/*--------------------------------*- C++ -*----------------------------------*\
| =========                 |                                                 |
| \\      /  F ield         | OpenFOAM: The Open Source CFD Toolbox           |
|  \\    /   O peration     | Version:  v1912                                 |
|   \\  /    A nd           | Website:  www.openfoam.com                      |
|    \\/     M anipulation  |                                                 |
\*---------------------------------------------------------------------------*/
FoamFile
{
    version     2.0;
    format      ascii;
    class       volScalarField;
    location    "1.5";
    object      p;
}
// * * * * * * * * * * * * * * * * * * * * * * * * * * * * * * * * * * * * * //

dimensions      [0 2 -2 0 0 0 0];


internalField   nonuniform List<scalar> 
9600
(
1.84228e-11
0.00245376
0.00136044
0.000618137
0.000281542
0.00112968
0.0013317
0.000355617
0.00136714
0.00173503
0.00253288
0.00197946
0.00272626
0.00194579
0.00337587
0.00473437
0.00474754
0.00464533
0.00385916
0.00455637
-3.44767e-06
0.00245602
0.00136153
0.000627489
0.000278948
0.00112596
0.00132767
0.000351066
0.00136091
0.00173414
0.00253651
0.00197399
0.00276764
0.00192069
0.0033963
0.00462738
0.00475863
0.00453493
0.00388891
0.00430021
-6.6942e-06
0.00246099
0.00136277
0.000635656
0.000274314
0.00111553
0.00131733
0.000359412
0.00135978
0.00173453
0.00253975
0.00196627
0.00280369
0.00187484
0.00341384
0.00450986
0.00476575
0.00441907
0.00391288
0.00400632
-8.63621e-06
0.00246551
0.00136279
0.000641908
0.000271753
0.00110344
0.0013104
0.00038039
0.00136112
0.00173613
0.00254406
0.00195739
0.00283955
0.00180786
0.0034241
0.00438521
0.00475757
0.00431842
0.0039097
0.00377299
-9.41012e-06
0.00246836
0.00136153
0.000648042
0.000271823
0.00109203
0.00130888
0.000410598
0.00136655
0.00173897
0.00254837
0.00195078
0.00287512
0.00172701
0.00344251
0.00424996
0.00475367
0.00422271
0.00388953
0.00360708
-9.33739e-06
0.00246965
0.00135943
0.000655574
0.000275101
0.00108155
0.00131168
0.000448173
0.00137571
0.00174259
0.00255369
0.00194769
0.00290905
0.00164493
0.00347069
0.00411314
0.00475739
0.00413056
0.00386242
0.00347137
-8.84617e-06
0.00247005
0.00135725
0.000665512
0.0002824
0.00107358
0.00131829
0.000491196
0.00138842
0.00174668
0.00255992
0.00194773
0.00294172
0.00156711
0.00350471
0.00398049
0.00475574
0.00404851
0.00381657
0.00335196
-8.35805e-06
0.00247054
0.0013558
0.000678323
0.000295024
0.00107041
0.0013278
0.00053798
0.00140438
0.00175114
0.00256684
0.00195049
0.00297332
0.00149445
0.00354149
0.00385201
0.00474283
0.00397661
0.00374241
0.00325152
-8.12653e-06
0.00247194
0.0013557
0.000694146
0.00031395
0.0010729
0.00133931
0.000587287
0.00142348
0.00175608
0.00257415
0.00195548
0.00300435
0.00142554
0.00357591
0.00372948
0.00471582
0.00391483
0.00364206
0.00317111
-8.21397e-06
0.00247462
0.00135709
0.000712769
0.000338968
0.00108044
0.00135236
0.000638032
0.00144548
0.00176168
0.0025819
0.00196281
0.00303545
0.00135831
0.00360332
0.00361591
0.00467029
0.00386498
0.00351753
0.0031034
-8.5437e-06
0.00247852
0.00135976
0.000733578
0.0003688
0.00109154
0.00136654
0.000689059
0.00146993
0.00176793
0.0025901
0.0019735
0.00306651
0.00129228
0.00362157
0.00351383
0.00460243
0.00382758
0.00337043
0.00303943
-8.9546e-06
0.00248333
0.00136338
0.000755829
0.000401801
0.00110429
0.00138132
0.000739001
0.00149611
0.00177467
0.00259843
0.00198905
0.00309664
0.00123048
0.00363054
0.00342569
0.00451094
0.00380125
0.00320494
0.00297053
-9.25343e-06
0.00248869
0.00136765
0.000778919
0.0004367
0.00111707
0.00139612
0.000786471
0.00152315
0.00178164
0.00260632
0.00201071
0.00312445
0.00117953
0.003631
0.00335397
0.0043977
0.00378316
0.00302762
0.00288916
-9.2633e-06
0.0024943
0.00137234
0.000802469
0.000473014
0.00112894
0.00141052
0.000830379
0.00155032
0.00178854
0.00261303
0.00203895
0.00314808
0.00114682
0.0036241
0.00330154
0.00426734
0.00376975
0.00284658
0.00279073
-8.85235e-06
0.00249993
0.00137737
0.0008263
0.000510799
0.00113965
0.00142438
0.000870197
0.00157721
0.00179535
0.00261791
0.00207335
0.00316601
0.00113695
0.00361049
0.00327079
0.00412562
0.00375732
0.00266998
0.00267433
-7.93052e-06
0.00250543
0.00138274
0.000850341
0.000550263
0.00114921
0.00143783
0.000906011
0.00160372
0.00180237
0.00262043
0.0021131
0.00317772
0.00115068
0.00358957
0.00326187
0.00397763
0.00374206
0.00250451
0.00254178
-6.42924e-06
0.00251064
0.00138859
0.000874557
0.000591555
0.00115771
0.0014512
0.00093836
0.00162979
0.0018101
0.00262015
0.00215746
0.00318332
0.00118495
0.00356007
0.00327232
0.00382706
0.00371941
0.00235544
0.00239571
-4.29073e-06
0.00251541
0.00139508
0.000898889
0.000634725
0.00116514
0.00146482
0.000967954
0.00165537
0.00181907
0.00261662
0.002206
0.00318295
0.00123425
0.00352095
0.00329795
0.00367604
0.00368428
0.00222684
0.00223853
-1.45408e-06
0.00251956
0.00140245
0.000923239
0.000679746
0.00117141
0.00147894
0.000995452
0.00168035
0.00182987
0.00260932
0.00225827
0.00317714
0.00129298
0.00347153
0.00333351
0.00352582
0.00363221
0.00212148
0.00207285
2.16431e-06
0.0025229
0.00141091
0.000947503
0.000726562
0.0011764
0.00149368
0.0010214
0.00170436
0.00184321
0.00259779
0.0023135
0.00316665
0.00135645
0.00341184
0.00337361
0.00337779
0.00356068
0.00204023
0.00190206
6.67296e-06
0.00252523
0.00142066
0.000971569
0.000775138
0.00118
0.00150905
0.00104631
0.00172683
0.00185959
0.00258196
0.00237081
0.00315225
0.00142084
0.003343
0.00341398
0.0032339
0.00346881
0.0019815
0.00173024
1.22014e-05
0.0025263
0.00143187
0.000995328
0.000825459
0.00118217
0.00152495
0.00107068
0.00174716
0.0018794
0.00256192
0.00242925
0.0031349
0.0014832
0.00326657
0.00345117
0.00309646
0.003357
0.001942
0.00156263
1.89037e-05
0.00252588
0.00144471
0.00101865
0.000877567
0.00118293
0.00154108
0.00109507
0.00176469
0.00190291
0.00253799
0.00248752
0.00311604
0.00154125
0.00318392
0.00348224
0.00296767
0.00322724
0.00191801
0.00140526
2.69506e-05
0.00252368
0.00145936
0.00104137
0.000931529
0.00118243
0.00155697
0.00112011
0.00177872
0.00193005
0.00251094
0.00254396
0.00309717
0.00159346
0.00309619
0.00350531
0.00284936
0.00308191
0.00190548
0.00126352
3.65268e-05
0.00251943
0.00147598
0.0010634
0.000987337
0.00118083
0.00157197
0.00114663
0.00178877
0.00196039
0.00248192
0.00259659
0.00307983
0.00163918
0.00300416
0.00351933
0.00274311
0.00292287
0.00189967
0.00114259
4.78468e-05
0.00251281
0.00149469
0.0010847
0.00104489
0.00117843
0.00158537
0.0011755
0.00179459
0.00199312
0.00245232
0.00264338
0.00306521
0.00167854
0.00290816
0.00352362
0.00265051
0.00275208
0.00189572
0.00104773
6.11431e-05
0.00250349
0.0015156
0.0011052
0.00110405
0.00117576
0.00159642
0.00120722
0.00179613
0.00202721
0.00242376
0.00268273
0.00305348
0.00171199
0.00283871
0.00351803
0.00257299
0.0025718
0.00188866
0.000983244
7.66508e-05
0.00249113
0.00153886
0.00112489
0.00116454
0.00117342
0.00160428
0.0012422
0.00179359
0.00206139
0.00239794
0.00271336
0.00304409
0.00173986
0.00273512
0.00350165
0.00251199
0.00238544
0.0018723
0.000951728
9.46188e-05
0.00247541
0.00156461
0.00114386
0.0012259
0.00117207
0.00160814
0.00128069
0.00178756
0.00209425
0.00237643
0.00273429
0.0030362
0.00176368
0.00262759
0.00347333
0.00246899
0.00219767
0.00183945
0.000953779
0.0001153
0.00245599
0.00159284
0.00116228
0.00128761
0.0011725
0.00160734
0.00132261
0.00177899
0.0021243
0.00236044
0.00274536
0.00302824
0.00178497
0.00251705
0.00343178
0.00244436
0.00201461
0.00178391
0.000985535
0.000138968
0.0024326
0.00162346
0.00118045
0.00134904
0.00117555
0.00160151
0.00136751
0.00176905
0.00214983
0.00235056
0.00274751
0.00301823
0.00180458
0.00240476
0.00337614
0.0024368
0.00184342
0.00170195
0.00103766
0.00016592
0.00240495
0.0016563
0.00119881
0.00140925
0.00118216
0.00159066
0.00141438
0.00175916
0.00216934
0.00234653
0.00274205
0.0030044
0.00182297
0.00229204
0.00330666
0.00244347
0.0016906
0.00159364
0.00109714
0.000196413
0.00237285
0.00169114
0.00121785
0.00146726
0.00119332
0.00157517
0.00146174
0.00175076
0.00218198
0.00234737
0.0027305
0.00298536
0.0018403
0.00218011
0.00322403
0.00246044
0.00156235
0.0014636
0.0011482
0.000230686
0.00233621
0.00172758
0.00123816
0.00152213
0.00120983
0.00155567
0.00150802
0.00174512
0.00218742
0.0023518
0.00271447
0.00296009
0.00185631
0.00207046
0.00312873
0.00248339
0.00146354
0.00131912
0.00117592
0.000269003
0.00229502
0.00176507
0.00126052
0.00157286
0.00123221
0.00153321
0.00155151
0.00174318
0.00218571
0.00235823
0.00269555
0.00292782
0.00187015
0.00196497
0.00302193
0.0025081
0.00139578
0.00116881
0.00117155
0.000311601
0.0022494
0.00180291
0.00128576
0.00161862
0.00126052
0.00150902
0.00159081
0.00174568
0.0021773
0.00236468
0.00267509
0.00288859
0.00188073
0.00186507
0.00290536
0.00253027
0.00135792
0.00102298
0.00113327
0.00035862
0.00219969
0.00184024
0.00131457
0.00165895
0.00129454
0.00148433
0.00162459
0.00175302
0.00216342
0.00236915
0.00265354
0.00284274
0.00188747
0.00177204
0.00278054
0.00254633
0.00134728
0.000890566
0.001065
0.000410198
0.00214643
0.00187605
0.00134755
0.00169355
0.00133385
0.00146068
0.00165148
0.00176491
0.00214601
0.00237012
0.00263086
0.00279088
0.00188971
0.00168687
0.0026493
0.00255307
0.00135958
0.000777825
0.000975226
0.000466438
0.00209033
0.00190916
0.00138509
0.0017224
0.0013775
0.00143997
0.00167062
0.00178024
0.00212713
0.00236679
0.00260691
0.00273402
0.00188673
0.00161004
0.00251392
0.00254743
0.00139016
0.000689049
0.000873261
0.000527296
0.00203244
0.00193842
0.00142719
0.00174609
0.00142425
0.00142409
0.00168186
0.0017972
0.00210848
0.00235891
0.00258133
0.00267301
0.00187826
0.00154201
0.00237648
0.0025274
0.00143436
0.000625545
0.000766466
0.000592673
0.00197387
0.00196276
0.00147359
0.00176525
0.00147277
0.0014147
0.00168563
0.00181355
0.00209101
0.00234686
0.00255375
0.00260883
0.00186436
0.0014827
0.00223924
0.00249155
0.00148674
0.000587635
0.000660992
0.00066243
0.00191576
0.00198104
0.00152403
0.00178036
0.00152133
0.0014132
0.00168335
0.00182693
0.0020749
0.00233131
0.00252386
0.00254244
0.0018452
0.0014318
0.00210464
0.00243883
0.00154236
0.000576724
0.00056097
0.000736276
0.0018583
0.00199215
0.00157804
0.00179242
0.00156786
0.00142037
0.00167739
0.00183546
0.00205934
0.00231309
0.00249191
0.00247476
0.0018209
0.00138891
0.00197566
0.00236984
0.00159535
0.000593061
0.000470908
0.000813654
0.0018055
0.00199504
0.00163474
0.00180346
0.00161034
0.00143556
0.00167082
0.00183847
0.00204293
0.00229267
0.00245884
0.00240726
0.00179188
0.00135266
0.00185457
0.00228716
0.00163927
0.000634327
0.000398688
0.000893789
0.00175869
0.00198886
0.00169291
0.00181806
0.00164699
0.00145723
0.00166668
0.00183698
0.00202414
0.00226925
0.00242522
0.0023421
0.00175948
0.00132118
0.00174179
0.00219376
0.00166982
0.000695347
0.000352991
0.000975682
0.00171946
0.00197353
0.00175102
0.00183878
0.00167641
0.00149565
0.00166755
0.00183335
0.00200202
0.00224094
0.00239065
0.00228208
0.00172631
0.00129223
0.0016365
0.00209327
0.00168572
0.000768525
0.000339835
0.00105815
0.00168913
0.00195037
0.00180653
0.00186655
0.00169874
0.00152349
0.00167311
0.0018306
0.00197742
0.00220598
0.00235388
0.00222912
0.00169532
0.00126454
0.00154361
0.00198968
0.0016883
0.00084494
0.000359971
0.00113997
0.00166868
0.00192194
0.00185564
0.00190244
0.00171776
0.00154193
0.00168125
0.00183107
0.00195221
0.00216388
0.00231314
0.0021833
0.00166936
0.00123871
0.00144943
0.00188336
0.00168041
0.000917468
0.000406267
0.00121988
0.0016589
0.00189139
0.00189463
0.00194568
0.001739
0.00155166
0.00168775
0.00183545
0.00192904
0.00211603
0.0022663
0.0021425
0.00165077
0.0012176
0.0013603
0.00177345
0.00166479
0.000984178
0.000467719
0.00129699
0.00166008
0.00186188
0.00192116
0.00199298
0.00176665
0.00155493
0.0016878
0.00184257
0.00191148
0.00206544
0.00221219
0.00210313
0.00163938
0.00120425
0.00127895
0.00166014
0.00164055
0.00104743
0.0005336
0.00137078
0.00167163
0.00183658
0.00193409
0.00203993
0.00180216
0.0015537
0.00167801
0.00184983
0.00190304
0.00201677
0.0021524
0.00206097
0.0016321
0.00120034
0.00121052
0.00154541
0.0016026
0.00110979
0.000600138
0.00144096
0.0016922
0.00181854
0.00193386
0.00208098
0.00184841
0.00155494
0.00165773
0.0018531
0.00190379
0.00197616
0.0020901
0.00201388
0.00162496
0.00120426
0.0011589
0.00143396
0.00154632
0.00116841
0.000673019
0.00150765
0.00171991
0.00180963
0.00192319
0.00211067
0.00190353
0.00156628
0.00162943
0.00184556
0.00191066
0.00194842
0.00202983
0.00196262
0.0016144
0.00121282
0.0011241
0.00133452
0.00147404
0.00121393
0.000757045
0.00157104
0.00175321
0.00181066
0.00190598
0.00212576
0.00196318
0.00159219
0.00159679
0.00182323
0.00191848
0.00193434
0.00197836
0.00190955
0.00159914
0.00122274
0.0011022
0.00125338
0.00139434
0.00123791
0.000848838
0.00163155
0.00179059
0.00182184
0.00188634
0.00212467
0.00201855
0.00163385
0.00156934
0.00178776
0.00191743
0.00193037
0.00194142
0.00186015
0.00157992
0.00123123
0.00108901
0.00119023
0.00131768
0.0012401
0.000938416
0.00168969
0.00183022
0.00184269
0.0018686
0.00210711
0.00206278
0.00168902
0.00155671
0.00174224
0.00190127
0.00193038
0.00191917
0.00182166
0.00155933
0.00123655
0.00108189
0.00114518
0.00125045
0.00122581
0.00101554
0.00174595
0.00187027
0.00187235
0.00185642
0.00207534
0.00209234
0.00175383
0.00156213
0.0016961
0.00187044
0.00192443
0.00190836
0.00179811
0.00154402
0.00123975
0.00107734
0.0011078
0.00119351
0.00120178
0.00107514
0.00180092
0.00190914
0.00190867
0.00185305
0.00203451
0.00210488
0.00182046
0.00158448
0.00165971
0.00182786
0.00190595
0.00190113
0.00178745
0.00153992
0.00124532
0.00107458
0.00107852
0.00114684
0.00117415
0.00111629
0.00185499
0.00194627
0.00194747
0.00186098
0.00199174
0.00209955
0.0018807
0.00162208
0.00163761
0.00178276
0.00187531
0.00188878
0.001786
0.00154717
0.00125937
0.00107611
0.0010557
0.00110906
0.00114731
0.0011412
0.00190825
0.0019818
0.0019848
0.00187977
0.00195447
0.00207728
0.00192858
0.00167054
0.00163085
0.00174376
0.00183576
0.00186584
0.00178629
0.00156454
0.00128348
0.00108719
0.00104027
0.00107795
0.0011234
0.0011544
0.00196066
0.00201589
0.00201884
0.00190754
0.00192769
0.0020437
0.00196055
0.00172276
0.00163865
0.00171465
0.00179652
0.001834
0.00177969
0.00158741
0.00131772
0.00111034
0.00103606
0.00105367
0.0011027
0.00116054
0.00201197
0.00204918
0.00204932
0.00194019
0.00191349
0.00200664
0.00197548
0.00177272
0.00165975
0.00169719
0.00176331
0.00179829
0.00176269
0.00160765
0.00136011
0.00114539
0.00104633
0.00103965
0.00108545
0.00116376
0.00206178
0.00208239
0.00207657
0.00197359
0.00191164
0.00197274
0.00197451
0.00181519
0.00168985
0.00169127
0.00173777
0.00176689
0.00174031
0.00161731
0.0014044
0.00119131
0.00107108
0.00104002
0.00107377
0.00116593
0.00210967
0.00211606
0.00210115
0.00200479
0.00192022
0.00194648
0.00196191
0.00184638
0.00172429
0.0016971
0.00172189
0.00174129
0.00171873
0.0016186
0.00144149
0.00124428
0.00110886
0.00105603
0.00107305
0.00116925
0.00215531
0.00215009
0.00212404
0.00203267
0.00193616
0.00192971
0.00194477
0.00186615
0.00175819
0.00171215
0.00171681
0.0017229
0.00170099
0.00161765
0.00146885
0.00129625
0.0011564
0.00108639
0.00108664
0.00117712
0.00219844
0.002184
0.00214645
0.00205725
0.00195578
0.00192227
0.00192823
0.00187615
0.00178786
0.00173237
0.00172174
0.00171508
0.00168765
0.00161782
0.0014918
0.00134229
0.00120997
0.0011284
0.00111511
0.00119496
0.00223882
0.00221737
0.00216919
0.00207912
0.00197606
0.00192262
0.001915
0.00187898
0.00181165
0.00175585
0.00173412
0.0017178
0.00168294
0.00161918
0.00151353
0.00138243
0.00126315
0.00117986
0.00115747
0.00122724
0.0022766
0.00224985
0.00219236
0.00209895
0.00199516
0.00192851
0.00190713
0.00187848
0.00182878
0.00177988
0.00175223
0.00172857
0.00169063
0.00162711
0.0015364
0.0014217
0.00131154
0.00123348
0.0012079
0.00127218
0.00231184
0.00228095
0.00221555
0.00211752
0.00201296
0.0019374
0.001904
0.00187897
0.00184163
0.00180127
0.00177424
0.00174429
0.00170665
0.0016468
0.00156488
0.00146546
0.00136306
0.00128983
0.00126278
0.00132219
0.00234456
0.00231039
0.00223836
0.00213527
0.0020295
0.00194759
0.00190382
0.00187951
0.00185238
0.00182133
0.00179915
0.00176639
0.00172734
0.00167427
0.00159998
0.00151356
0.00142238
0.00135462
0.0013298
0.00138453
0.00237471
0.00233791
0.00226077
0.00215247
0.00204454
0.00195787
0.00190623
0.00187964
0.00185969
0.00183998
0.00182586
0.00179588
0.00175739
0.00171039
0.00164485
0.00156674
0.00148629
0.0014262
0.00140701
0.00146146
0.0024024
0.00236333
0.00228216
0.00216923
0.00205815
0.00196697
0.00190928
0.0018791
0.00186358
0.00185635
0.00185482
0.0018333
0.00180301
0.00176322
0.00170695
0.00163733
0.00156589
0.00151308
0.00149801
0.00155357
0.00242757
0.00238691
0.00230201
0.00218531
0.00207047
0.00197565
0.00191278
0.00187721
0.00184987
0.00183904
0.00184345
0.00183148
0.00181773
0.00179722
0.00175642
0.00170443
0.00164772
0.00160621
0.0015959
0.00165212
0.00245003
0.00240855
0.00232018
0.00219807
0.00207857
0.00198114
0.00193433
0.00192344
0.00191725
0.00191863
0.00193078
0.00192542
0.00192093
0.00191586
0.00188109
0.00183288
0.00178634
0.00174948
0.00173684
0.00177757
0.00247141
0.00242765
0.0023352
0.00221097
0.00208771
0.00195683
0.0018579
0.0018043
0.00178638
0.00179519
0.00182921
0.00186054
0.00190579
0.00197221
0.00201775
0.00202712
0.00202457
0.00202542
0.00204003
0.00208392
0.00249129
0.0024445
0.00234584
0.00221799
0.0021064
0.00202902
0.00197455
0.00194456
0.0019288
0.00193119
0.00195427
0.00197704
0.00199172
0.00199757
0.00201086
0.00203774
0.00206965
0.00211262
0.00218644
0.00230788
0.00250636
0.00245863
0.00236162
0.00222796
0.00208142
0.00192444
0.00179578
0.00170058
0.0016329
0.00160687
0.00165501
0.00179466
0.00204023
0.00233316
0.00259196
0.00279121
0.00296022
0.00312204
0.00326221
0.00335151
0.0025168
0.00246634
0.00236623
0.00223815
0.00214375
0.0020655
0.00199789
0.0019584
0.00193741
0.00191992
0.00192845
0.00193925
0.00195379
0.00200726
0.00210134
0.00225662
0.00249964
0.00283796
0.00319419
0.00345542
0.00252756
0.00247943
0.00237794
0.00224161
0.00209858
0.00194965
0.00180759
0.0016957
0.0016374
0.00164515
0.00177152
0.00201512
0.00228299
0.00254716
0.00280477
0.00303975
0.00324799
0.00342446
0.00356018
0.00361758
0.00252531
0.00247352
0.00237623
0.00225936
0.00218047
0.00210529
0.0020268
0.00195074
0.00189456
0.00184484
0.00184473
0.00196889
0.00218539
0.00244415
0.00271087
0.00294468
0.00313412
0.00327762
0.00337984
0.00341981
0.00670947
0.00519465
-0.00214389
-0.00764443
-0.00839746
-0.00659651
-0.00446018
-0.00290658
-0.00203279
-0.00157587
-0.00133096
-0.00109168
-0.000700204
-0.000298176
-0.00012767
-7.80293e-05
7.61595e-05
0.000304906
0.000602444
0.00101399
0.00140738
0.00168539
0.00189274
0.0020864
0.00232632
0.00260159
0.00282935
0.00300062
0.00317948
0.00340401
0.00365524
0.00390248
0.00414937
0.00442506
0.00471924
0.00500039
0.00527231
0.0055764
0.00589879
0.00618589
0.00645311
0.00674422
0.00703137
0.00729165
0.00758515
0.00792155
0.00824337
0.00855571
0.00890451
0.00928074
0.00963179
0.00994763
0.010291
0.0106641
0.0110083
0.0113525
0.0117373
0.0121229
0.0125065
0.0129047
0.0133282
0.013774
0.014225
0.01464
0.0150278
0.0154282
0.0158767
0.0163604
0.0168444
0.017328
0.0178107
0.0183068
0.0188001
0.0193064
0.0198318
0.0203664
0.0209093
0.0214653
0.0220309
0.0226176
0.0232011
0.0238081
0.0244222
0.0250582
0.025714
0.0263714
0.0270329
0.0277319
0.0284172
0.0291396
0.0298885
0.0306183
0.0313803
0.0321435
0.0329625
0.0337413
0.0346086
0.0354557
0.0364463
0.0375767
0.00625949
0.00508526
-0.00203924
-0.00751389
-0.00831935
-0.00655673
-0.0044339
-0.00288592
-0.00201649
-0.00156285
-0.00132059
-0.00108345
-0.00069308
-0.000291341
-0.000121418
-7.27392e-05
8.08643e-05
0.000309148
0.000606125
0.00101745
0.00141074
0.00168847
0.0018955
0.00208883
0.00232847
0.00260362
0.00283129
0.00300238
0.00318103
0.0034054
0.00365654
0.00390371
0.00415048
0.00442607
0.0047202
0.0050013
0.00527314
0.00557715
0.00589954
0.00618663
0.00645379
0.00674487
0.00703202
0.00729227
0.0075857
0.00792211
0.00824392
0.00855622
0.00890499
0.00928121
0.00963227
0.00994808
0.0102914
0.0106646
0.0110087
0.0113529
0.0117377
0.0121233
0.0125069
0.0129051
0.0133285
0.0137742
0.0142253
0.0146403
0.0150281
0.0154285
0.0158769
0.0163606
0.0168446
0.0173282
0.0178109
0.018307
0.0188002
0.0193066
0.019832
0.0203666
0.0209094
0.0214654
0.022031
0.0226177
0.0232012
0.0238083
0.0244224
0.0250583
0.0257141
0.0263715
0.027033
0.027732
0.0284173
0.0291397
0.0298886
0.0306184
0.0313804
0.0321436
0.0329626
0.0337413
0.0346087
0.0354557
0.0364463
0.037577
0.00581814
0.00503715
-0.00177621
-0.00724048
-0.00817719
-0.00650044
-0.00441066
-0.00287147
-0.00200377
-0.00155071
-0.00130923
-0.00107367
-0.000685193
-0.000284823
-0.000115961
-6.81562e-05
8.49806e-05
0.000312824
0.000609378
0.00102063
0.00141382
0.00169121
0.00189793
0.00209098
0.00233039
0.00260545
0.00283298
0.00300387
0.00318235
0.00340661
0.00365766
0.00390474
0.00415141
0.00442694
0.00472103
0.00500207
0.00527382
0.00557778
0.00590019
0.00618726
0.00645435
0.00674541
0.00703257
0.00729275
0.00758614
0.00792257
0.00824437
0.00855662
0.00890537
0.00928161
0.00963268
0.00994844
0.0102917
0.0106649
0.011009
0.0113532
0.011738
0.0121236
0.0125071
0.0129053
0.0133287
0.0137745
0.0142256
0.0146405
0.0150283
0.0154287
0.0158771
0.0163608
0.0168448
0.0173283
0.0178111
0.0183071
0.0188004
0.0193068
0.0198321
0.0203667
0.0209096
0.0214655
0.0220311
0.0226179
0.0232013
0.0238084
0.0244225
0.0250584
0.0257142
0.0263716
0.0270331
0.0277321
0.0284174
0.0291398
0.0298887
0.0306184
0.0313805
0.0321436
0.0329626
0.0337414
0.0346087
0.0354558
0.0364463
0.0375774
0.00540831
0.00498337
-0.00147059
-0.00690361
-0.00798696
-0.00642251
-0.00437858
-0.00285198
-0.00198739
-0.0015361
-0.00129504
-0.00106026
-0.000674638
-0.000277271
-0.000109783
-6.23894e-05
9.03156e-05
0.000317573
0.000613696
0.00102469
0.00141741
0.00169434
0.00190094
0.00209385
0.00233295
0.0026077
0.002835
0.00300573
0.00318405
0.00340812
0.003659
0.00390595
0.00415253
0.00442799
0.00472201
0.00500297
0.00527461
0.00557851
0.00590092
0.00618796
0.00645495
0.00674598
0.00703314
0.00729325
0.0075866
0.00792306
0.00824485
0.00855704
0.00890578
0.00928205
0.00963312
0.00994882
0.0102921
0.0106653
0.0110094
0.0113535
0.0117383
0.0121239
0.0125074
0.0129056
0.013329
0.0137747
0.0142259
0.0146408
0.0150285
0.0154288
0.0158773
0.016361
0.016845
0.0173285
0.0178113
0.0183073
0.0188005
0.0193069
0.0198322
0.0203669
0.0209097
0.0214657
0.0220312
0.022618
0.0232014
0.0238085
0.0244226
0.0250585
0.0257143
0.0263717
0.0270332
0.0277322
0.0284175
0.0291398
0.0298888
0.0306185
0.0313805
0.0321437
0.0329627
0.0337414
0.0346088
0.0354558
0.0364463
0.037578
0.00498615
0.00487595
-0.00115758
-0.006533
-0.00776972
-0.00632997
-0.00433915
-0.00282754
-0.00196727
-0.00151915
-0.00127805
-0.00104271
-0.000660773
-0.000268513
-0.000102886
-5.51613e-05
9.74164e-05
0.000324209
0.000620023
0.00103029
0.00142177
0.00169794
0.0019047
0.00209785
0.00233654
0.00261058
0.00283755
0.00300836
0.00318663
0.00341031
0.00366079
0.00390757
0.00415406
0.00442939
0.00472327
0.00500412
0.00527566
0.00557945
0.00590182
0.0061888
0.00645568
0.00674664
0.00703376
0.0072938
0.00758711
0.0079236
0.00824537
0.00855752
0.00890626
0.00928254
0.0096336
0.00994925
0.0102925
0.0106657
0.0110098
0.0113538
0.0117386
0.0121242
0.0125077
0.0129059
0.0133292
0.013775
0.0142262
0.0146411
0.0150287
0.015429
0.0158775
0.0163612
0.0168452
0.0173287
0.0178115
0.0183075
0.0188007
0.0193071
0.0198324
0.020367
0.0209098
0.0214658
0.0220314
0.0226181
0.0232015
0.0238086
0.0244227
0.0250586
0.0257144
0.0263718
0.0270333
0.0277323
0.0284175
0.0291399
0.0298889
0.0306186
0.0313806
0.0321438
0.0329628
0.0337415
0.0346088
0.0354558
0.0364462
0.0375789
0.00454469
0.00472531
-0.000833461
-0.00613193
-0.0075334
-0.00622966
-0.00429677
-0.0028007
-0.00194467
-0.00150071
-0.00125981
-0.00102304
-0.000645027
-0.00025915
-9.55764e-05
-4.68547e-05
0.000105948
0.000332777
0.00062881
0.001038
0.00142732
0.00170214
0.00190927
0.00210313
0.00234128
0.00261404
0.00284059
0.00301193
0.00319044
0.00341355
0.00366332
0.00390984
0.00415625
0.00443133
0.0047249
0.00500561
0.00527706
0.0055807
0.00590296
0.0061899
0.00645666
0.00674744
0.00703448
0.00729446
0.00758772
0.00792418
0.00824593
0.00855808
0.00890682
0.00928309
0.00963414
0.00994976
0.0102929
0.0106661
0.0110102
0.0113542
0.011739
0.0121246
0.0125081
0.0129062
0.0133296
0.0137753
0.0142265
0.0146415
0.015029
0.0154292
0.0158777
0.0163615
0.0168454
0.017329
0.0178117
0.0183077
0.0188009
0.0193072
0.0198326
0.0203672
0.02091
0.0214659
0.0220315
0.0226183
0.0232017
0.0238087
0.0244228
0.0250587
0.0257145
0.026372
0.0270334
0.0277324
0.0284176
0.02914
0.029889
0.0306187
0.0313807
0.0321438
0.0329628
0.0337415
0.0346088
0.0354558
0.036446
0.0375799
0.00410557
0.00454611
-0.000496754
-0.00570853
-0.00728523
-0.00612654
-0.00425448
-0.00277321
-0.00192021
-0.00148078
-0.00124085
-0.00100272
-0.000628687
-0.000249602
-8.81382e-05
-3.82173e-05
0.000114958
0.000342517
0.000639682
0.00104789
0.00143439
0.00170727
0.00191477
0.00210967
0.00234709
0.00261792
0.00284391
0.00301634
0.00319554
0.00341797
0.00366678
0.00391301
0.0041594
0.00443404
0.00472702
0.00500752
0.00527889
0.00558227
0.00590437
0.00619135
0.006458
0.00674849
0.00703537
0.00729533
0.00758849
0.0079248
0.00824653
0.00855876
0.00890751
0.00928371
0.00963477
0.0099504
0.0102935
0.0106666
0.0110107
0.0113546
0.0117394
0.012125
0.0125085
0.0129066
0.0133299
0.0137756
0.0142269
0.0146419
0.0150293
0.0154295
0.015878
0.0163618
0.0168457
0.0173293
0.0178119
0.0183079
0.0188011
0.0193074
0.0198328
0.0203674
0.0209102
0.0214661
0.0220317
0.0226184
0.0232018
0.0238089
0.0244229
0.0250588
0.0257147
0.0263721
0.0270335
0.0277325
0.0284178
0.0291401
0.0298891
0.0306188
0.0313808
0.0321439
0.0329629
0.0337416
0.0346088
0.0354558
0.0364458
0.0375812
0.00368679
0.00433931
-0.000162688
-0.00527278
-0.00702834
-0.00602132
-0.00421223
-0.00274509
-0.00189382
-0.00145912
-0.00122119
-0.000982114
-0.000611986
-0.000239723
-8.04974e-05
-2.95869e-05
0.000123739
0.000352416
0.000651641
0.00105942
0.00144297
0.0017135
0.00192125
0.00211734
0.00235377
0.00262206
0.00284731
0.00302129
0.00320162
0.00342338
0.00367107
0.00391713
0.00416366
0.00443771
0.0047298
0.00500996
0.00528122
0.00558413
0.00590595
0.00619313
0.00645981
0.0067499
0.00703656
0.00729656
0.00758955
0.00792553
0.00824718
0.00855957
0.00890831
0.00928439
0.00963549
0.00995121
0.0102942
0.0106672
0.0110112
0.0113552
0.0117399
0.0121254
0.0125089
0.012907
0.0133303
0.0137761
0.0142274
0.0146424
0.0150297
0.0154298
0.0158783
0.0163621
0.016846
0.0173296
0.0178123
0.0183082
0.0188014
0.0193077
0.019833
0.0203676
0.0209104
0.0214663
0.0220319
0.0226186
0.023202
0.023809
0.0244231
0.025059
0.0257148
0.0263722
0.0270337
0.0277326
0.0284179
0.0291402
0.0298892
0.0306189
0.0313809
0.032144
0.0329631
0.0337417
0.0346088
0.0354558
0.0364455
0.0375828
0.00329652
0.00409812
0.000155906
-0.00482823
-0.00675942
-0.00591116
-0.0041687
-0.00271615
-0.00186566
-0.00143576
-0.00120081
-0.000961188
-0.000594818
-0.000229376
-7.25741e-05
-2.09358e-05
0.000132167
0.000361933
0.000663795
0.00107181
0.00145266
0.00172072
0.00192861
0.00212588
0.00236112
0.0026264
0.00285073
0.0030265
0.00320825
0.00342933
0.00367588
0.00392198
0.00416893
0.00444235
0.00473333
0.00501305
0.00528412
0.00558629
0.00590757
0.00619508
0.00646198
0.00675169
0.00703812
0.00729826
0.00759103
0.00792648
0.00824797
0.00856053
0.00890921
0.00928507
0.00963626
0.00995221
0.0102952
0.0106679
0.0110119
0.0113559
0.0117406
0.0121259
0.0125093
0.0129075
0.0133308
0.0137765
0.014228
0.014643
0.0150302
0.0154302
0.0158787
0.0163625
0.0168464
0.01733
0.0178126
0.0183086
0.0188017
0.019308
0.0198333
0.0203679
0.0209107
0.0214666
0.0220321
0.0226188
0.0232022
0.0238092
0.0244233
0.0250592
0.025715
0.0263724
0.0270338
0.0277328
0.0284181
0.0291404
0.0298894
0.0306191
0.0313811
0.0321442
0.0329632
0.0337419
0.0346088
0.0354558
0.0364452
0.0375845
0.00293872
0.00382349
0.000453151
-0.00437442
-0.00647451
-0.00579428
-0.00412372
-0.00268695
-0.00183637
-0.00141089
-0.00117958
-0.000939801
-0.000577121
-0.00021856
-6.43551e-05
-1.21352e-05
0.000140439
0.000371041
0.000675708
0.00108443
0.00146291
0.00172858
0.00193656
0.00213502
0.00236895
0.00263098
0.00285423
0.0030319
0.00321518
0.00343555
0.00368088
0.00392721
0.00417489
0.00444779
0.00473752
0.00501678
0.00528766
0.00558882
0.0059092
0.00619699
0.00646431
0.00675374
0.00704005
0.00730045
0.00759303
0.00792779
0.00824901
0.00856171
0.00891022
0.00928573
0.00963704
0.00995336
0.0102963
0.0106688
0.0110128
0.0113569
0.0117413
0.0121264
0.0125099
0.012908
0.0133312
0.0137769
0.0142286
0.0146437
0.0150307
0.0154306
0.0158791
0.0163629
0.0168469
0.0173304
0.0178131
0.018309
0.0188021
0.0193084
0.0198337
0.0203683
0.020911
0.0214669
0.0220324
0.0226191
0.0232025
0.0238095
0.0244235
0.0250594
0.0257153
0.0263727
0.0270341
0.027733
0.0284183
0.0291406
0.0298896
0.0306192
0.0313813
0.0321444
0.0329634
0.0337421
0.0346089
0.0354558
0.0364449
0.0375865
0.00261949
0.00352477
0.000724163
-0.00391325
-0.00617213
-0.00567015
-0.00407759
-0.00265815
-0.00180655
-0.00138457
-0.00115724
-0.000917721
-0.000558788
-0.000207213
-5.57623e-05
-2.98866e-06
0.000148911
0.000380047
0.000687343
0.00109685
0.00147319
0.00173661
0.00194475
0.00214449
0.00237715
0.00263582
0.00285791
0.00303752
0.00322237
0.00344195
0.00368596
0.00393258
0.00418121
0.00445373
0.00474221
0.00502102
0.00529177
0.00559179
0.00591092
0.00619877
0.00646658
0.00675591
0.00704226
0.00730309
0.00759548
0.0079295
0.00825041
0.0085632
0.00891138
0.00928635
0.00963777
0.00995459
0.0102975
0.0106697
0.0110138
0.0113581
0.0117423
0.0121272
0.0125105
0.0129086
0.0133315
0.0137772
0.0142291
0.0146444
0.0150314
0.0154312
0.0158797
0.0163634
0.0168473
0.0173309
0.0178135
0.0183094
0.0188026
0.0193089
0.0198342
0.0203687
0.0209114
0.0214673
0.0220328
0.0226195
0.0232028
0.0238098
0.0244238
0.0250597
0.0257155