/*--------------------------------*- C++ -*----------------------------------*\
| =========                 |                                                 |
| \\      /  F ield         | OpenFOAM: The Open Source CFD Toolbox           |
|  \\    /   O peration     | Version:  v1912                                 |
|   \\  /    A nd           | Website:  www.openfoam.com                      |
|    \\/     M anipulation  |                                                 |
\*---------------------------------------------------------------------------*/
FoamFile
{
    version     2.0;
    format      ascii;
    class       volVectorField;
    location    "8.9";
    object      U;
}
// * * * * * * * * * * * * * * * * * * * * * * * * * * * * * * * * * * * * * //

dimensions      [0 1 -1 0 0 0 0];


internalField   nonuniform List<vector> 
9600
(
(0.949646 -0.00960738 0)
(1.01669 0.00310083 0)
(0.993876 -0.00765502 0)
(1.02054 0.0205183 0)
(1.00498 0.026084 0)
(0.977136 -0.0102805 0)
(0.93823 -0.0139823 0)
(0.977466 -0.0490571 0)
(0.926149 -0.0304328 0)
(1.03994 -0.0109222 0)
(1.02294 -0.00696152 0)
(1.03775 0.0101741 0)
(1.04405 0.0321398 0)
(1.06565 0.00971962 0)
(1.02043 0.04983 0)
(1.09569 -0.00278802 0)
(0.975247 0.0278929 0)
(1.10612 -0.0164309 0)
(0.91387 0.0044102 0)
(1.08796 -0.0314463 0)
(0.956528 -0.00939021 0)
(1.01539 0.00277844 0)
(0.999823 -0.00766344 0)
(1.01986 0.0203705 0)
(1.00728 0.026316 0)
(0.98267 -0.00942436 0)
(0.952644 -0.0141134 0)
(0.966098 -0.0487461 0)
(0.931363 -0.0315148 0)
(1.02743 -0.0124274 0)
(1.02651 -0.0071177 0)
(1.03188 0.0100883 0)
(1.05061 0.0316099 0)
(1.05551 0.0104597 0)
(1.03738 0.0485751 0)
(1.06813 -0.000961214 0)
(1.0223 0.0267758 0)
(1.04774 -0.0144735 0)
(1.0082 0.00534606 0)
(0.993894 -0.0309484 0)
(0.965829 -0.00921657 0)
(1.01132 0.00242727 0)
(1.0084 -0.00769083 0)
(1.01852 0.0202913 0)
(1.01153 0.0267014 0)
(0.990268 -0.00889562 0)
(0.965496 -0.0139479 0)
(0.965275 -0.048419 0)
(0.94253 -0.0322338 0)
(1.01253 -0.0136732 0)
(1.02937 -0.00716591 0)
(1.02763 0.00969966 0)
(1.05091 0.0310166 0)
(1.05251 0.0109126 0)
(1.04396 0.0477621 0)
(1.06591 -0.000270644 0)
(1.04057 0.0263241 0)
(1.05265 -0.0132985 0)
(1.02979 0.00521468 0)
(1.01446 -0.0234018 0)
(0.975456 -0.00906983 0)
(1.00534 0.00208935 0)
(1.01544 -0.00775096 0)
(1.01724 0.0202996 0)
(1.01608 0.026935 0)
(0.997327 -0.00839697 0)
(0.977304 -0.0137146 0)
(0.964321 -0.0481082 0)
(0.95057 -0.0328432 0)
(1.00024 -0.0148428 0)
(1.02877 -0.00745407 0)
(1.02612 0.00928115 0)
(1.04814 0.0305321 0)
(1.04813 0.0110895 0)
(1.04853 0.0472917 0)
(1.06264 6.89547e-05 0)
(1.04994 0.0266232 0)
(1.05039 -0.0128996 0)
(1.03421 0.00646315 0)
(1.0154 -0.021946 0)
(0.983699 -0.00893007 0)
(1.00002 0.00175904 0)
(1.01797 -0.0078424 0)
(1.01571 0.0202891 0)
(1.01952 0.0270669 0)
(1.00341 -0.00794798 0)
(0.987524 -0.013398 0)
(0.967468 -0.0476362 0)
(0.955997 -0.0332804 0)
(0.992008 -0.015935 0)
(1.02467 -0.00794023 0)
(1.02491 0.00898029 0)
(1.04555 0.0300542 0)
(1.04574 0.0113619 0)
(1.05026 0.0463095 0)
(1.06511 0.000979662 0)
(1.05296 0.0257689 0)
(1.05293 -0.0110249 0)
(1.03469 0.00647924 0)
(1.01888 -0.019022 0)
(0.989709 -0.00880036 0)
(0.997073 0.00146003 0)
(1.01541 -0.00794606 0)
(1.01246 0.0202427 0)
(1.0215 0.0271424 0)
(1.00811 -0.00756121 0)
(0.996527 -0.0130556 0)
(0.971039 -0.0471044 0)
(0.959506 -0.0336086 0)
(0.986568 -0.016935 0)
(1.01824 -0.00851485 0)
(1.02222 0.00861477 0)
(1.04381 0.0295816 0)
(1.04544 0.0114274 0)
(1.05273 0.0453915 0)
(1.06638 0.00140692 0)
(1.05535 0.0253703 0)
(1.05232 -0.00973769 0)
(1.03432 0.00665381 0)
(1.01839 -0.0158155 0)
(0.993621 -0.00868581 0)
(0.996238 0.00122539 0)
(1.0091 -0.00801772 0)
(1.00654 0.0201521 0)
(1.02214 0.027131 0)
(1.01213 -0.00724019 0)
(1.00488 -0.0126882 0)
(0.974758 -0.0464467 0)
(0.962591 -0.0338282 0)
(0.98306 -0.0178153 0)
(1.01114 -0.00913131 0)
(1.0181 0.00811257 0)
(1.04227 0.0289608 0)
(1.04611 0.0114543 0)
(1.0555 0.0443007 0)
(1.06767 0.00216003 0)
(1.05654 0.0249501 0)
(1.05138 -0.0079928 0)
(1.03364 0.00687326 0)
(1.0178 -0.0127202 0)
(0.996018 -0.00858551 0)
(0.996261 0.00107404 0)
(1.00118 -0.00802166 0)
(0.998685 0.0199782 0)
(1.02232 0.0269988 0)
(1.01607 -0.0070013 0)
(1.01269 -0.0123041 0)
(0.977979 -0.0457056 0)
(0.965536 -0.0339741 0)
(0.981194 -0.0185652 0)
(1.00485 -0.00975208 0)
(1.01364 0.00747113 0)
(1.04077 0.0281937 0)
(1.04679 0.0113734 0)
(1.05806 0.0431457 0)
(1.06811 0.00298644 0)
(1.05693 0.0245011 0)
(1.04937 -0.00612409 0)
(1.0323 0.00700823 0)
(1.01657 -0.00969676 0)
(0.997409 -0.00849461 0)
(0.996358 0.00100789 0)
(0.993574 -0.00794634 0)
(0.991162 0.0196888 0)
(1.02327 0.0267265 0)
(1.02021 -0.00683676 0)
(1.01979 -0.0118894 0)
(0.980927 -0.0448631 0)
(0.968108 -0.0340691 0)
(0.980677 -0.0191956 0)
(1.00026 -0.0103556 0)
(1.01009 0.00671359 0)
(1.0397 0.0272705 0)
(1.04736 0.0112048 0)
(1.05994 0.0419467 0)
(1.06753 0.00394605 0)
(1.05619 0.0240979 0)
(1.04664 -0.00408007 0)
(1.03016 0.00713085 0)
(1.01494 -0.00671462 0)
(0.998134 -0.00840745 0)
(0.99652 0.00101077 0)
(0.987544 -0.00780185 0)
(0.986284 0.0192676 0)
(1.02562 0.0263224 0)
(1.02417 -0.00672664 0)
(1.02567 -0.0114408 0)
(0.983941 -0.0439185 0)
(0.969957 -0.0341387 0)
(0.980813 -0.0197428 0)
(0.997411 -0.0109481 0)
(1.00808 0.00584636 0)
(1.03941 0.0262096 0)
(1.04776 0.0109899 0)
(1.06076 0.040718 0)
(1.06564 0.00505462 0)
(1.05406 0.0237447 0)
(1.04314 -0.00188877 0)
(1.02724 0.00722229 0)
(1.01281 -0.00383196 0)
(0.998511 -0.0083213 0)
(0.996896 0.00106043 0)
(0.983721 -0.00761898 0)
(0.98495 0.0187146 0)
(1.02871 0.0258157 0)
(1.02714 -0.00664327 0)
(1.02965 -0.0109645 0)
(0.987411 -0.042854 0)
(0.971184 -0.0341727 0)
(0.980714 -0.020239 0)
(0.995544 -0.0115567 0)
(1.00729 0.00487729 0)
(1.03968 0.0250506 0)
(1.04759 0.0107783 0)
(1.06004 0.0394997 0)
(1.06217 0.00632683 0)
(1.05031 0.023431 0)
(1.03881 0.00039276 0)
(1.02368 0.00730182 0)
(1.01024 -0.00110578 0)
(0.998878 -0.00823641 0)
(0.997287 0.00113687 0)
(0.982221 -0.00742598 0)
(0.986259 0.0180516 0)
(1.03101 0.0252578 0)
(1.02856 -0.00656392 0)
(1.03121 -0.0104853 0)
(0.991439 -0.041682 0)
(0.972326 -0.0341351 0)
(0.979751 -0.0206936 0)
(0.993388 -0.0122022 0)
(1.00643 0.00381563 0)
(1.03941 0.023826 0)
(1.04594 0.0106298 0)
(1.05707 0.038329 0)
(1.05676 0.00775704 0)
(1.04485 0.0231435 0)
(1.03362 0.0027021 0)
(1.01972 0.00739568 0)
(1.00739 0.00140559 0)
(0.999466 -0.00815149 0)
(0.997305 0.00121898 0)
(0.982666 -0.00723608 0)
(0.988381 0.0173248 0)
(1.03123 0.0246944 0)
(1.02854 -0.0064697 0)
(1.03036 -0.0100441 0)
(0.995718 -0.040441 0)
(0.973867 -0.0339829 0)
(0.977872 -0.021072 0)
(0.989927 -0.0128731 0)
(1.00372 0.00267827 0)
(1.03671 0.0225675 0)
(1.04147 0.0105875 0)
(1.05098 0.0372215 0)
(1.04912 0.00930646 0)
(1.03778 0.0228328 0)
(1.0277 0.00499355 0)
(1.01561 0.00748735 0)
(1.00453 0.00367825 0)
(1.00028 -0.00806403 0)
(0.996788 0.00129238 0)
(0.984293 -0.00705409 0)
(0.989822 0.0165931 0)
(1.02911 0.0241419 0)
(1.02765 -0.00635718 0)
(1.02776 -0.00967519 0)
(0.999685 -0.0391886 0)
(0.975828 -0.0336906 0)
(0.975518 -0.0213127 0)
(0.985164 -0.0135268 0)
(0.998154 0.00151841 0)
(1.0299 0.0213074 0)
(1.03322 0.0106559 0)
(1.04128 0.0361571 0)
(1.03938 0.0109043 0)
(1.02957 0.0224525 0)
(1.02142 0.00714363 0)
(1.01161 0.00757328 0)
(1.00192 0.00565595 0)
(1.00114 -0.00797075 0)
(0.995933 0.00134949 0)
(0.986275 -0.00687345 0)
(0.990093 0.0159013 0)
(1.02545 0.023598 0)
(1.0265 -0.00623732 0)
(1.02451 -0.00938299 0)
(1.00286 -0.037974 0)
(0.977888 -0.0332596 0)
(0.973277 -0.0213779 0)
(0.980057 -0.0140898 0)
(0.990334 0.000435533 0)
(1.01901 0.0200904 0)
(1.02162 0.0108051 0)
(1.02871 0.0350703 0)
(1.02841 0.0124352 0)
(1.02105 0.0219547 0)
(1.01531 0.00905509 0)
(1.00802 0.00766747 0)
(0.999764 0.00726993 0)
(1.00185 -0.00786893 0)
(0.995081 0.00138727 0)
(0.988038 -0.00668289 0)
(0.98952 0.0152673 0)
(1.02136 0.0230505 0)
(1.02542 -0.00612322 0)
(1.02148 -0.00915687 0)
(1.00506 -0.0368135 0)
(0.979742 -0.0327116 0)
(0.971564 -0.0212666 0)
(0.97569 -0.0145133 0)
(0.982075 -0.000463197 0)
(1.00605 0.0189539 0)
(1.00867 0.0109896 0)
(1.01522 0.0339064 0)
(1.01765 0.0137608 0)
(1.01324 0.0212899 0)
(1.00992 0.0106727 0)
(1.00502 0.00778038 0)
(0.998125 0.00851075 0)
(1.0023 -0.0077578 0)
(0.994462 0.00140672 0)
(0.989374 -0.00647375 0)
(0.988674 0.0146867 0)
(1.01768 0.022483 0)
(1.0245 -0.00602239 0)
(1.01911 -0.00898301 0)
(1.00639 -0.0356948 0)
(0.981276 -0.0320735 0)
(0.97052 -0.0210054 0)
(0.972583 -0.0147921 0)
(0.975131 -0.00112146 0)
(0.993792 0.0179277 0)
(0.996787 0.0111724 0)
(1.00308 0.0326049 0)
(1.00838 0.0148366 0)
(1.00684 0.0204718 0)
(1.00556 0.0119649 0)
(1.00268 0.00793523 0)
(0.996976 0.00940095 0)
(1.00249 -0.00763723 0)
(0.994122 0.00140936 0)
(0.990319 -0.00624134 0)
(0.987969 0.0141456 0)
(1.01472 0.0218894 0)
(1.02373 -0.00594325 0)
(1.01739 -0.00884376 0)
(1.00707 -0.034599 0)
(0.982522 -0.0313727 0)
(0.970095 -0.0206204 0)
(0.970656 -0.0149466 0)
(0.970318 -0.00154199 0)
(0.98416 0.0170244 0)
(0.987565 0.0113229 0)
(0.993695 0.0311691 0)
(1.00128 0.0156598 0)
(1.00212 0.0195211 0)
(1.00226 0.0129722 0)
(1.00093 0.00814978 0)
(0.996223 0.00998184 0)
(1.00249 -0.00750682 0)
(0.993994 0.00139509 0)
(0.990995 -0.00598388 0)
(0.98757 0.0136299 0)
(1.01243 0.0212734 0)
(1.02306 -0.0058871 0)
(1.01615 -0.00872157 0)
(1.00732 -0.0335101 0)
(0.983544 -0.030631 0)
(0.970169 -0.0201385 0)
(0.969579 -0.0150043 0)
(0.967512 -0.00175969 0)
(0.977681 0.016223 0)
(0.981408 0.011436 0)
(0.987368 0.0296528 0)
(0.996351 0.0162325 0)
(0.998915 0.01851 0)
(0.999872 0.0137263 0)
(0.99963 0.00842079 0)
(0.995752 0.010329 0)
(1.00234 -0.00736624 0)
(0.99399 0.0013639 0)
(0.991511 -0.00570314 0)
(0.987474 0.0131301 0)
(1.01069 0.0206371 0)
(1.02241 -0.00584835 0)
(1.0152 -0.00861007 0)
(1.00729 -0.0324158 0)
(0.98439 -0.0298634 0)
(0.970625 -0.0195769 0)
(0.969074 -0.0149885 0)
(0.966153 -0.00184924 0)
(0.973887 0.0155198 0)
(0.977884 0.0114943 0)
(0.983601 0.0280962 0)
(0.993191 0.016618 0)
(0.996885 0.0175225 0)
(0.998169 0.0142575 0)
(0.998657 0.0087297 0)
(0.995463 0.0104972 0)
(1.00213 -0.00721499 0)
(0.994045 0.00131562 0)
(0.991936 -0.00540189 0)
(0.987617 0.0126399 0)
(1.00933 0.0199851 0)
(1.02173 -0.00582557 0)
(1.01439 -0.00850423 0)
(1.0071 -0.0313068 0)
(0.985089 -0.0290895 0)
(0.971357 -0.0189444 0)
(0.968997 -0.0149279 0)
(0.96568 -0.00187311 0)
(0.97198 0.0148782 0)
(0.976291 0.0115018 0)
(0.981665 0.0265558 0)
(0.991311 0.0168553 0)
(0.995688 0.0165737 0)
(0.996946 0.0146008 0)
(0.997921 0.00906279 0)
(0.995283 0.0105245 0)
(1.00189 -0.00705203 0)
(0.994122 0.00124922 0)
(0.992308 -0.00508326 0)
(0.987928 0.0121544 0)
(1.00826 0.019322 0)
(1.02097 -0.00581465 0)
(1.01365 -0.00840174 0)
(1.0068 -0.0301812 0)
(0.985667 -0.0283189 0)
(0.97226 -0.0182577 0)
(0.969288 -0.0148213 0)
(0.965694 -0.00186931 0)
(0.971255 0.0142657 0)
(0.975981 0.0114625 0)
(0.980905 0.0250558 0)
(0.990288 0.0169764 0)
(0.995048 0.0156862 0)
(0.996049 0.0148005 0)
(0.997362 0.00943433 0)
(0.995171 0.0104586 0)
(1.00166 -0.00687763 0)
(0.994206 0.00116518 0)
(0.992644 -0.00474955 0)
(0.988348 0.01167 0)
(1.00741 0.0186528 0)
(1.02009 -0.00580965 0)
(1.0129 -0.00830537 0)
(1.00641 -0.0290374 0)
(0.986154 -0.0275562 0)
(0.973232 -0.0175317 0)
(0.9699 -0.0146635 0)
(0.965962 -0.0018591 0)
(0.971202 0.013674 0)
(0.97644 0.0113533 0)
(0.980833 0.0236249 0)
(0.989786 0.0170122 0)
(0.994753 0.0148935 0)
(0.995379 0.014876 0)
(0.99693 0.00982246 0)
(0.995104 0.010322 0)
(1.00147 -0.00669139 0)
(0.994296 0.00106299 0)
(0.992949 -0.00440196 0)
(0.988837 0.011183 0)
(1.00673 0.0179842 0)
(1.01908 -0.00580317 0)
(1.01211 -0.00821976 0)
(1.00596 -0.0278714 0)
(0.986586 -0.0268078 0)
(0.974182 -0.0167886 0)
(0.970769 -0.0144481 0)
(0.966358 -0.00184992 0)
(0.971483 0.0130925 0)
(0.977275 0.0111772 0)
(0.981099 0.0222566 0)
(0.989554 0.0169834 0)
(0.994638 0.014214 0)
(0.99487 0.0148355 0)
(0.996582 0.0102259 0)
(0.995088 0.0101541 0)
(1.00131 -0.00649316 0)
(0.994399 0.000942605 0)
(0.993214 -0.00404343 0)
(0.989367 0.010694 0)
(1.0062 0.0173179 0)
(1.01796 -0.00578811 0)
(1.01128 -0.0081451 0)
(1.00545 -0.0266881 0)
(0.986996 -0.0260682 0)
(0.975049 -0.0160425 0)
(0.971816 -0.0141787 0)
(0.96683 -0.00186894 0)
(0.971896 0.0125174 0)
(0.978201 0.0109306 0)
(0.98148 0.0209525 0)
(0.989417 0.0168972 0)
(0.994586 0.0136241 0)
(0.994496 0.0146968 0)
(0.996287 0.0106532 0)
(0.995123 0.00997985 0)
(1.00119 -0.00628474 0)
(0.994525 0.000806704 0)
(0.993425 -0.00367642 0)
(0.989924 0.0102031 0)
(1.00579 0.0166596 0)
(1.01679 -0.00576076 0)
(1.01045 -0.00808279 0)
(1.00487 -0.0254935 0)
(0.98741 -0.0253352 0)
(0.975802 -0.0153004 0)
(0.972955 -0.0138446 0)
(0.96738 -0.00191816 0)
(0.972345 0.0119438 0)
(0.979044 0.0106299 0)
(0.981859 0.0197154 0)
(0.989268 0.0167531 0)
(0.99453 0.0131257 0)
(0.994248 0.014451 0)
(0.996018 0.0110636 0)
(0.995215 0.00982706 0)
(1.00109 -0.00606639 0)
(0.994679 0.000656598 0)
(0.993566 -0.00330018 0)
(0.990501 0.00970394 0)
(1.00549 0.0160138 0)
(1.01565 -0.00571245 0)
(1.00965 -0.00804105 0)
(1.00425 -0.0242891 0)
(0.987841 -0.0246052 0)
(0.976443 -0.0145854 0)
(0.974104 -0.0134394 0)
(0.96803 -0.00198522 0)
(0.972808 0.0113805 0)
(0.979734 0.0102947 0)
(0.982201 0.0185118 0)
(0.989072 0.0165568 0)
(0.994439 0.0127306 0)
(0.994121 0.0140877 0)
(0.995772 0.0114327 0)
(0.99535 0.00972254 0)
(1.00101 -0.00583863 0)
(0.994861 0.000493706 0)
(0.993627 -0.00291747 0)
(0.99109 0.00919565 0)
(1.0053 0.0153754 0)
(1.0146 -0.0056375 0)
(1.00893 -0.00801797 0)
(1.00361 -0.0230768 0)
(0.988295 -0.0238753 0)
(0.976996 -0.0139003 0)
(0.975194 -0.0129609 0)
(0.968806 -0.00207248 0)
(0.973299 0.0108258 0)
(0.980269 0.00995009 0)
(0.982525 0.0173369 0)
(0.988834 0.0163089 0)
(0.994307 0.0124104 0)
(0.994104 0.0136331 0)
(0.995548 0.0117395 0)
(0.995501 0.00968351 0)
(1.00093 -0.00560258 0)
(0.995061 0.000321877 0)
(0.993608 -0.00253108 0)
(0.991679 0.00867955 0)
(1.00519 0.0147418 0)
(1.01368 -0.00553235 0)
(1.00831 -0.00800378 0)
(1.00297 -0.0218636 0)
(0.98877 -0.0231346 0)
(0.977501 -0.0132467 0)
(0.976178 -0.0124125 0)
(0.969714 -0.00219089 0)
(0.97384 0.0102876 0)
(0.980689 0.00961268 0)
(0.982859 0.0161906 0)
(0.988576 0.0160071 0)
(0.994138 0.0121516 0)
(0.994176 0.0131043 0)
(0.995352 0.0119315 0)
(0.995628 0.00972862 0)
(1.00087 -0.00535967 0)
(0.995265 0.000145599 0)
(0.993526 -0.00214032 0)
(0.99225 0.00815206 0)
(1.00513 0.0141102 0)
(1.0129 -0.00538889 0)
(1.00779 -0.00799964 0)
(1.00236 -0.0206521 0)
(0.98926 -0.0223691 0)
(0.977996 -0.0126412 0)
(0.977037 -0.0118068 0)
(0.970738 -0.0023309 0)
(0.974437 0.00975417 0)
(0.981034 0.0092819 0)
(0.983226 0.0150672 0)
(0.988329 0.0156365 0)
(0.993935 0.011955 0)
(0.994303 0.0125262 0)
(0.995199 0.0119782 0)
(0.995701 0.00983398 0)
(1.00081 -0.00510924 0)
(0.995464 -3.3182e-05 0)
(0.993408 -0.00175072 0)
(0.992789 0.00760943 0)
(1.00509 0.0134722 0)
(1.01224 -0.0052037 0)
(1.00735 -0.00800324 0)
(1.00179 -0.0194453 0)
(0.989757 -0.0215837 0)
(0.978518 -0.0120786 0)
(0.97778 -0.0111369 0)
(0.971851 -0.00248159 0)
(0.975086 0.00921915 0)
(0.981339 0.0089854 0)
(0.983629 0.0139669 0)
(0.988119 0.0151769 0)
(0.993702 0.0118066 0)
(0.994449 0.011944 0)
(0.995093 0.0118714 0)
(0.995696 0.00996813 0)
(1.00077 -0.00485271 0)
(0.995654 -0.000212461 0)
(0.993291 -0.00136331 0)
(0.993285 0.00705558 0)
(1.00501 0.0128161 0)
(1.01164 -0.00497677 0)
(1.00697 -0.0080034 0)
(1.00127 -0.0182528 0)
(0.990256 -0.020765 0)
(0.979089 -0.0115585 0)
(0.978435 -0.0104144 0)
(0.973023 -0.00262671 0)
(0.975781 0.0086735 0)
(0.981625 0.00872669 0)
(0.984059 0.0129099 0)
(0.987968 0.0146295 0)
(0.993444 0.0116767 0)
(0.994578 0.0113869 0)
(0.995039 0.0116141 0)
(0.995619 0.0100952 0)
(1.00074 -0.00459026 0)
(0.995836 -0.000393332 0)
(0.99321 -0.000980229 0)
(0.993739 0.00650247 0)
(1.00488 0.01214 0)
(1.01106 -0.00471049 0)
(1.00661 -0.00799691 0)
(1.00081 -0.0170803 0)
(0.990749 -0.0199067 0)
(0.979724 -0.0110856 0)
(0.97904 -0.00966357 0)
(0.974229 -0.00276302 0)
(0.976522 0.00809929 0)
(0.981909 0.00850008 0)
(0.984508 0.0119242 0)
(0.987888 0.0140025 0)
(0.993174 0.0115448 0)
(0.99467 0.0108841 0)
(0.995036 0.0112387 0)
(0.995489 0.0101567 0)
(1.0007 -0.00432243 0)
(0.996013 -0.000572484 0)
(0.993191 -0.00060553 0)
(0.994158 0.00595325 0)
(1.00469 0.0114463 0)
(1.01046 -0.00441205 0)
(1.00625 -0.00798184 0)
(1.00038 -0.0159396 0)
(0.991228 -0.0190124 0)
(0.980425 -0.0106538 0)
(0.979628 -0.00889755 0)
(0.975453 -0.00286688 0)
(0.977324 0.00750362 0)
(0.982206 0.00829756 0)
(0.984966 0.011022 0)
(0.98789 0.0132956 0)
(0.992908 0.0113938 0)
(0.994712 0.010462 0)
(0.995075 0.0107817 0)
(0.995343 0.0101207 0)
(1.00065 -0.00405067 0)
(0.996189 -0.000747957 0)
(0.993247 -0.000246026 0)
(0.994555 0.00541705 0)
(1.00444 0.0107301 0)
(1.00983 -0.00408578 0)
(1.00588 -0.0079423 0)
(0.999982 -0.0148428 0)
(0.991688 -0.0180777 0)
(0.981186 -0.0102563 0)
(0.980228 -0.00812848 0)
(0.976681 -0.0029173 0)
(0.978195 0.00687791 0)
(0.98253 0.00811011 0)
(0.98543 0.0102213 0)
(0.987979 0.0125206 0)
(0.992673 0.0111839 0)
(0.994707 0.0101037 0)
(0.995141 0.0102805 0)
(0.995212 0.00996033 0)
(1.00059 -0.00377488 0)
(0.996366 -0.000922676 0)
(0.993375 9.8745e-05 0)
(0.994939 0.0049083 0)
(1.00416 0.00999375 0)
(1.00916 -0.00374521 0)
(1.00549 -0.00787523 0)
(0.999611 -0.0137917 0)
(0.992122 -0.0171021 0)
(0.981997 -0.00988267 0)
(0.980853 -0.00738731 0)
(0.977899 -0.00291069 0)
(0.979143 0.00621084 0)
(0.982898 0.00790897 0)
(0.985891 0.00953463 0)
(0.988153 0.011724 0)
(0.992491 0.0109101 0)
(0.994669 0.00978969 0)
(0.995222 0.00977542 0)
(0.995132 0.00966774 0)
(1.00053 -0.00349612 0)
(0.996547 -0.00109302 0)
(0.993565 0.000415971 0)
(0.995314 0.00443587 0)
(1.00386 0.0092506 0)
(1.00845 -0.00338996 0)
(1.00509 -0.0077832 0)
(0.999268 -0.0128003 0)
(0.992528 -0.0160938 0)
(0.98284 -0.00953176 0)
(0.981509 -0.00667981 0)
(0.979091 -0.00282549 0)
(0.980161 0.00554265 0)
(0.983325 0.00766479 0)
(0.986354 0.00893879 0)
(0.988404 0.0109219 0)
(0.992377 0.0105786 0)
(0.994612 0.00952479 0)
(0.995301 0.00932919 0)
(0.995107 0.00928058 0)
(1.00045 -0.00321703 0)
(0.996732 -0.00125769 0)
(0.993799 0.000699645 0)
(0.995681 0.0040037 0)
(1.00356 0.00849221 0)
(1.00774 -0.00302995 0)
(1.00469 -0.0076334 0)
(0.998958 -0.01188 0)
(0.992905 -0.0150701 0)
(0.983704 -0.00918399 0)
(0.982198 -0.00602139 0)
(0.980246 -0.00268672 0)
(0.98123 0.00489491 0)
(0.983809 0.00739795 0)
(0.986809 0.00843683 0)
(0.98872 0.0101398 0)
(0.992347 0.010163 0)
(0.99456 0.00925415 0)
(0.995365 0.00893885 0)
(0.995124 0.0088471 0)
(1.00038 -0.00293683 0)
(0.996926 -0.00142072 0)
(0.99406 0.000942788 0)
(0.996032 0.00363545 0)
(1.00326 0.00773651 0)
(1.00702 -0.00269238 0)
(1.00429 -0.00744215 0)
(0.998683 -0.0110196 0)
(0.993259 -0.0140347 0)
(0.984576 -0.0088381 0)
(0.98291 -0.00541656 0)
(0.981351 -0.00249087 0)
(0.982333 0.00424404 0)
(0.984357 0.00708318 0)
(0.987254 0.00802007 0)
(0.989072 0.00942415 0)
(0.992391 0.00970779 0)
(0.994531 0.00897864 0)
(0.995418 0.00860072 0)
(0.995173 0.00840553 0)
(1.0003 -0.00265976 0)
(0.997129 -0.00156678 0)
(0.99434 0.00113764 0)
(0.996363 0.00330672 0)
(1.00297 0.00699317 0)
(1.00632 -0.0023487 0)
(1.00391 -0.00720649 0)
(0.998452 -0.0102314 0)
(0.993591 -0.0129936 0)
(0.985451 -0.00849113 0)
(0.983649 -0.00488534 0)
(0.982396 -0.00223728 0)
(0.98344 0.00364765 0)
(0.984966 0.00669078 0)
(0.987692 0.00766789 0)
(0.989449 0.00876448 0)
(0.992509 0.0092146 0)
(0.994531 0.0086741 0)
(0.99545 0.00827375 0)
(0.99522 0.00800202 0)
(1.00023 -0.0023874 0)
(0.997341 -0.00170799 0)
(0.994625 0.00129147 0)
(0.99667 0.00304741 0)
(1.00271 0.00625745 0)
(1.00564 -0.00204538 0)
(1.00354 -0.00690047 0)
(0.998264 -0.00951786 0)
(0.993907 -0.0119715 0)
(0.986316 -0.00810499 0)
(0.98441 -0.00442834 0)
(0.983387 -0.00197359 0)
(0.984529 0.00313259 0)
(0.985632 0.00624528 0)
(0.988129 0.00732495 0)
(0.989821 0.0082076 0)
(0.99268 0.00875237 0)
(0.994566 0.00837766 0)
(0.99549 0.00794098 0)
(0.995288 0.00753691 0)
(1.00017 -0.002121 0)
(0.997561 -0.0018254 0)
(0.994922 0.00138873 0)
(0.996949 0.00282271 0)
(1.00245 0.00556881 0)
(1.00499 -0.00176171 0)
(1.00319 -0.00656602 0)
(0.998118 -0.00884145 0)
(0.994214 -0.0109984 0)
(0.987172 -0.00770734 0)
(0.985188 -0.0040104 0)
(0.984326 -0.00170293 0)
(0.985586 0.00266126 0)
(0.986337 0.00573699 0)
(0.988581 0.00698476 0)
(0.990211 0.0076759 0)
(0.992899 0.00828271 0)
(0.994616 0.00813509 0)
(0.995475 0.00776449 0)
(0.995271 0.00730314 0)
(1.0001 -0.00186611 0)
(0.997786 -0.00191887 0)
(0.995219 0.00143757 0)
(0.997204 0.00265445 0)
(1.00222 0.00489373 0)
(1.00437 -0.001512 0)
(1.00284 -0.00616383 0)
(0.99801 -0.00823144 0)
(0.994509 -0.01003 0)
(0.988015 -0.0073027 0)
(0.985987 -0.00367112 0)
(0.985216 -0.00141082 0)
(0.986595 0.00227188 0)
(0.98709 0.00521059 0)
(0.989044 0.00658152 0)
(0.990583 0.00716852 0)
(0.99318 0.00771866 0)
(0.994752 0.00769268 0)
(0.995523 0.00742463 0)
(0.995257 0.00700223 0)
(1.00004 -0.00162294 0)
(0.998012 -0.00199153 0)
(0.995528 0.00144514 0)
(0.997434 0.00251288 0)
(1.002 0.00428607 0)
(1.0038 -0.00132194 0)
(1.00251 -0.00573708 0)
(0.997939 -0.00763704 0)
(0.994802 -0.0091457 0)
(0.988829 -0.00683946 0)
(0.986804 -0.00336031 0)
(0.986076 -0.00115798 0)
(0.987554 0.00195721 0)
(0.98785 0.0046778 0)
(0.989533 0.00614949 0)
(0.990958 0.00664181 0)
(0.993441 0.00705467 0)
(0.994886 0.00704393 0)
(0.995565 0.00691598 0)
(0.995245 0.00676053 0)
(0.999988 -0.00139397 0)
(0.998234 -0.00202257 0)
(0.995837 0.0014021 0)
(0.997647 0.00239699 0)
(1.0018 0.00371471 0)
(1.00325 -0.00114879 0)
(1.0022 -0.00530212 0)
(0.997889 -0.00705956 0)
(0.995089 -0.00829555 0)
(0.989631 -0.00639123 0)
(0.987621 -0.00310438 0)
(0.986898 -0.000910909 0)
(0.988461 0.00169828 0)
(0.988638 0.00415747 0)
(0.990032 0.00569279 0)
(0.991287 0.00614377 0)
(0.99371 0.00642751 0)
(0.995102 0.00639599 0)
(0.995798 0.00629819 0)
(0.995456 0.00638007 0)
(0.999937 -0.00118284 0)
(0.998449 -0.00202718 0)
(0.996159 0.00133492 0)
(0.997837 0.00229223 0)
(1.00161 0.00322361 0)
(1.00276 -0.00104121 0)
(1.00189 -0.0048306 0)
(0.997873 -0.00652748 0)
(0.995371 -0.00747684 0)
(0.990388 -0.00593135 0)
(0.988461 -0.00286222 0)
(0.987707 -0.000705113 0)
(0.98931 0.00148572 0)
(0.989414 0.003651 0)
(0.990567 0.00518224 0)
(0.991637 0.0057684 0)
(0.993943 0.00605828 0)
(0.995255 0.00608192 0)
(0.995968 0.00613971 0)
(0.995689 0.00620255 0)
(0.999891 -0.000990273 0)
(0.998655 -0.00198403 0)
(0.996477 0.00123116 0)
(0.998015 0.0021708 0)
(1.00143 0.0027999 0)
(1.00231 -0.00092828 0)
(1.00161 -0.004402 0)
(0.997869 -0.00596721 0)
(0.995656 -0.00674029 0)
(0.991128 -0.00545581 0)
(0.989287 -0.00264168 0)
(0.988484 -0.000556978 0)
(0.990104 0.00134699 0)
(0.990189 0.00319792 0)
(0.991153 0.00470229 0)
(0.992044 0.0053555 0)
(0.994255 0.00563917 0)
(0.99557 0.00564969 0)
(0.996271 0.00576149 0)
(0.995896 0.00591603 0)
(0.999848 -0.000815208 0)
(0.998847 -0.00191124 0)
(0.996799 0.0011069 0)
(0.998177 0.00205227 0)
(1.00126 0.00244327 0)
(1.0019 -0.000858922 0)
(1.00135 -0.00395739 0)
(0.997893 -0.00543746 0)
(0.995931 -0.00603333 0)
(0.991826 -0.00498329 0)
(0.990116 -0.00244109 0)
(0.989262 -0.000404997 0)
(0.990852 0.00122989 0)
(0.990933 0.00280034 0)
(0.991749 0.00424259 0)
(0.992446 0.00497112 0)
(0.994501 0.0052197 0)
(0.995751 0.00514895 0)
(0.996522 0.00518997 0)
(0.996256 0.00543442 0)
(0.999809 -0.000661155 0)
(0.999025 -0.00180559 0)
(0.997113 0.000976403 0)
(0.998336 0.0018877 0)
(1.0011 0.00216331 0)
(1.00153 -0.000790934 0)
(1.00111 -0.00351199 0)
(0.997923 -0.00495217 0)
(0.996212 -0.00536819 0)
(0.992503 -0.00449844 0)
(0.990924 -0.00224616 0)
(0.990006 -0.000305879 0)
(0.991548 0.00115284 0)
(0.991667 0.00247817 0)
(0.99239 0.00385266 0)
(0.992903 0.00464921 0)
(0.994797 0.00495821 0)
(0.996032 0.00491908 0)
(0.996869 0.0050535 0)
(0.996637 0.00522414 0)
(0.999774 -0.00052502 0)
(0.999186 -0.00167416 0)
(0.99742 0.000842103 0)
(0.99848 0.00171788 0)
(1.00095 0.00191257 0)
(1.0012 -0.00069406 0)
(1.00088 -0.0031272 0)
(0.997978 -0.00445401 0)
(0.996492 -0.00474638 0)
(0.99313 -0.00403737 0)
(0.991715 -0.00204246 0)
(0.990765 -0.000189568 0)
(0.992221 0.00112539 0)
(0.992365 0.00222027 0)
(0.993031 0.00349696 0)
(0.993383 0.00432847 0)
(0.995094 0.00466752 0)
(0.996276 0.00460618 0)
(0.997135 0.00464261 0)
(0.996932 0.00472099 0)
(0.999743 -0.00040423 0)
(0.99933 -0.00153646 0)
(0.997708 0.000724654 0)
(0.998626 0.00152301 0)
(1.00082 0.00172797 0)
(1.00089 -0.000620772 0)
(1.00068 -0.00271638 0)
(0.998041 -0.00397115 0)
(0.996768 -0.00418976 0)
(0.993741 -0.00355975 0)
(0.992488 -0.00180752 0)
(0.991494 -0.000107692 0)
(0.992841 0.00107514 0)
(0.993038 0.00202422 0)
(0.993697 0.00316081 0)
(0.993897 0.0039736 0)
(0.99541 0.00434493 0)
(0.996514 0.00428975 0)
(0.997402 0.00426094 0)
(0.99723 0.0044148 0)
(0.999714 -0.000299559 0)
(0.999457 -0.00139338 0)
(0.997982 0.000629407 0)
(0.998764 0.00133173 0)
(1.00069 0.00153616 0)
(1.00063 -0.000515721 0)
(1.0005 -0.00230881 0)
(0.998112 -0.00352422 0)
(0.997049 -0.00365719 0)
(0.994315 -0.00311903 0)
(0.99322 -0.00158885 0)
(0.992216 -3.17623e-05 0)
(0.993464 0.00107367 0)
(0.993678 0.00187907 0)
(0.994319 0.00281693 0)
(0.994413 0.00359251 0)
(0.995735 0.00400698 0)
(0.996736 0.00400674 0)
(0.997689 0.00391813 0)
(0.997538 0.00409869 0)
(0.999689 -0.000206714 0)
(0.99957 -0.00125317 0)
(0.998232 0.000557259 0)
(0.998897 0.00112853 0)
(1.00059 0.00138316 0)
(1.0004 -0.000416124 0)
(1.00034 -0.00193984 0)
(0.998189 -0.0030714 0)
(0.997325 -0.00316898 0)
(0.99487 -0.00270174 0)
(0.993933 -0.00135094 0)
(0.99292 4.81498e-05 0)
(0.994043 0.00104461 0)
(0.99426 0.00171575 0)
(0.994932 0.00251865 0)
(0.994962 0.00325839 0)
(0.996113 0.00367898 0)
(0.996975 0.00376373 0)
(0.997949 0.00361971 0)
(0.99785 0.00375104 0)
(0.999666 -0.000124743 0)
(0.999669 -0.00112413 0)
(0.998462 0.000511317 0)
(0.999024 0.000952893 0)
(1.00051 0.0012258 0)
(1.00021 -0.000333076 0)
(1.0002 -0.00156529 0)
(0.998272 -0.00262209 0)
(0.9976 -0.00270981 0)
(0.995399 -0.00231763 0)
(0.994604 -0.00114088 0)
(0.993596 0.000105257 0)
(0.994612 0.00102332 0)
(0.994829 0.00162269 0)
(0.99552 0.0022761 0)
(0.995495 0.00292385 0)
(0.996501 0.00332431 0)
(0.997214 0.00347204 0)
(0.998181 0.00334585 0)
(0.998173 0.00339746 0)
(0.999646 -5.29547e-05 0)
(0.999757 -0.00100067 0)
(0.998671 0.000483343 0)
(0.99914 0.000786817 0)
(1.00044 0.00107834 0)
(1.00006 -0.000241425 0)
(1.00009 -0.00120738 0)
(0.998354 -0.00220555 0)
(0.997859 -0.00228332 0)
(0.995901 -0.00197892 0)
(0.995251 -0.000935134 0)
(0.99426 0.000185951 0)
(0.995165 0.00101672 0)
(0.995349 0.00153011 0)
(0.996059 0.00203858 0)
(0.996023 0.00261367 0)
(0.996922 0.00300088 0)
(0.997505 0.00319663 0)
(0.998405 0.00312748 0)
(0.998484 0.00307697 0)
(0.999629 1.19757e-05 0)
(0.999833 -0.00088967 0)
(0.998859 0.000467849 0)
(0.999247 0.000654344 0)
(1.00039 0.00095098 0)
(0.999954 -0.000180957 0)
(1 -0.000889224 0)
(0.99844 -0.00179336 0)
(0.998113 -0.00187387 0)
(0.996381 -0.00164598 0)
(0.99587 -0.000751362 0)
(0.994895 0.00024807 0)
(0.995693 0.00098975 0)
(0.995844 0.00144997 0)
(0.996576 0.0018652 0)
(0.996541 0.00236001 0)
(0.997349 0.00269431 0)
(0.997812 0.00288633 0)
(0.998605 0.00287932 0)
(0.998762 0.00279292 0)
(0.999614 6.86807e-05 0)
(0.999902 -0.000786965 0)
(0.99903 0.00046484 0)
(0.999342 0.000551514 0)
(1.00035 0.000841642 0)
(0.999885 -0.000128665 0)
(0.999954 -0.000594728 0)
(0.998529 -0.00139928 0)
(0.998348 -0.00149437 0)
(0.996827 -0.00135012 0)
(0.996455 -0.00059434 0)
(0.995514 0.000294247 0)
(0.996214 0.000979421 0)
(0.99632 0.00139126 0)
(0.997056 0.00171323 0)
(0.997023 0.00211526 0)
(0.997757 0.00239463 0)
(0.99815 0.00257637 0)
(0.998846 0.00264003 0)
(0.999024 0.00258349 0)
(0.999601 0.000118041 0)
(0.999963 -0.000690805 0)
(0.999186 0.00046537 0)
(0.999429 0.000477083 0)
(1.00033 0.000775898 0)
(0.999853 -8.33731e-05 0)
(0.999934 -0.000346737 0)
(0.998624 -0.00105373 0)
(0.99857 -0.00113196 0)
(0.997246 -0.00107194 0)
(0.997012 -0.000441029 0)
(0.996115 0.000331541 0)
(0.996722 0.000949874 0)
(0.996769 0.00133137 0)
(0.997499 0.00157638 0)
(0.997483 0.00190148 0)
(0.998162 0.00214971 0)
(0.998509 0.00230971 0)
(0.999118 0.00237652 0)
(0.999244 0.00237284 0)
(0.999591 0.000161419 0)
(1.00002 -0.000602657 0)
(0.999329 0.000475693 0)
(0.999511 0.000423893 0)
(1.00031 0.000749655 0)
(0.999848 -4.77545e-05 0)
(0.99995 -0.000146469 0)
(0.998734 -0.000738362 0)
(0.998781 -0.00079366 0)
(0.99763 -0.000803826 0)
(0.997531 -0.000308725 0)
(0.996687 0.000349818 0)
(0.997224 0.000899027 0)
(0.99721 0.00126763 0)
(0.997915 0.00146734 0)
(0.997922 0.00172347 0)
(0.998551 0.00192354 0)
(0.998845 0.00205775 0)
(0.999405 0.00209074 0)
(0.999472 0.00215092 0)
(0.999584 0.000198975 0)
(1.00006 -0.000517347 0)
(0.99946 0.000490223 0)
(0.999589 0.000384108 0)
(1.0003 0.000750757 0)
(0.999864 1.27482e-06 0)
(0.999998 1.22438e-05 0)
(0.998859 -0.000468682 0)
(0.998984 -0.000495334 0)
(0.997983 -0.000551421 0)
(0.998012 -0.000180524 0)
(0.997235 0.000367009 0)
(0.997717 0.000848088 0)
(0.997645 0.00118818 0)
(0.99831 0.0013666 0)
(0.998329 0.00156817 0)
(0.998922 0.00170737 0)
(0.999171 0.00183936 0)
(0.99971 0.00184603 0)
(0.999742 0.00191991 0)
(0.999578 0.00023045 0)
(1.0001 -0.000434079 0)
(0.99958 0.000510828 0)
(0.999667 0.000355072 0)
(1.0003 0.000767456 0)
(0.999892 6.22663e-05 0)
(1.00007 0.000141392 0)
(0.999004 -0.00024727 0)
(0.999186 -0.000227195 0)
(0.998307 -0.00031622 0)
(0.998452 -5.14149e-05 0)
(0.997751 0.000378454 0)
(0.998193 0.000793186 0)
(0.998076 0.00109948 0)
(0.998696 0.00125414 0)
(0.99871 0.00143468 0)
(0.999282 0.00152476 0)
(0.999492 0.00164096 0)
(0.999994 0.00163399 0)
(1.00002 0.00167678 0)
(0.999574 0.000256806 0)
(1.00014 -0.000353159 0)
(0.999687 0.000536501 0)
(0.999741 0.000331241 0)
(1.00031 0.000791435 0)
(0.999928 0.000136211 0)
(1.00016 0.000254271 0)
(0.999167 -7.21256e-05 0)
(0.99939 9.46035e-07 0)
(0.998606 -0.000105024 0)
(0.99885 7.5577e-05 0)