/*--------------------------------*- C++ -*----------------------------------*\
| =========                 |                                                 |
| \\      /  F ield         | OpenFOAM: The Open Source CFD Toolbox           |
|  \\    /   O peration     | Version:  v1912                                 |
|   \\  /    A nd           | Website:  www.openfoam.com                      |
|    \\/     M anipulation  |                                                 |
\*---------------------------------------------------------------------------*/
FoamFile
{
    version     2.0;
    format      ascii;
    class       surfaceScalarField;
    location    "6.9";
    object      phi;
}
// * * * * * * * * * * * * * * * * * * * * * * * * * * * * * * * * * * * * * //

dimensions      [0 3 -1 0 0 0 0];
oriented        oriented;


internalField   nonuniform List<scalar> 
19000
(
1.22343e-06
-1.50079e-06
1.17947e-06
2.01717e-06
1.08052e-06
-1.60311e-07
1.16579e-06
-2.32564e-06
1.30556e-06
-2.29963e-06
1.21948e-06
5.34162e-07
1.18629e-06
4.87939e-07
1.24448e-06
3.18076e-07
1.23152e-06
-6.47622e-07
1.20003e-06
-2.75155e-07
1.21601e-06
-4.32596e-07
1.22276e-06
2.44715e-08
1.18598e-06
-5.91969e-08
1.17299e-06
4.14014e-07
1.1894e-06
3.30619e-07
1.18132e-06
5.80459e-07
1.18348e-06
5.42125e-07
1.18635e-06
5.29888e-07
1.18627e-06
5.18432e-07
3.15825e-07
1.17126e-06
1.28417e-06
-1.56069e-06
1.29155e-06
2.00979e-06
1.17059e-06
-3.9357e-08
1.20407e-06
-2.35911e-06
1.36051e-06
-2.45607e-06
1.28984e-06
6.04828e-07
1.2505e-06
5.2728e-07
1.32485e-06
2.43722e-07
1.31878e-06
-6.41545e-07
1.28141e-06
-2.37785e-07
1.29305e-06
-4.44242e-07
1.29775e-06
1.97773e-08
1.25415e-06
-1.56042e-08
1.24293e-06
4.2524e-07
1.24862e-06
3.24928e-07
1.25371e-06
5.75364e-07
1.23595e-06
5.59889e-07
1.2603e-06
5.05536e-07
1.23242e-06
5.46315e-07
2.90685e-07
1.25756e-06
1.34443e-06
-1.62234e-06
1.40997e-06
1.94425e-06
1.26796e-06
1.0266e-07
1.24359e-06
-2.33475e-06
1.41158e-06
-2.62406e-06
1.37844e-06
6.37961e-07
1.32945e-06
5.76278e-07
1.41128e-06
1.61886e-07
1.40713e-06
-6.37391e-07
1.37363e-06
-2.04286e-07
1.37549e-06
-4.461e-07
1.38748e-06
7.78819e-09
1.33094e-06
4.09311e-08
1.32308e-06
4.33095e-07
1.31262e-06
3.35397e-07
1.32649e-06
5.61485e-07
1.30062e-06
5.85767e-07
1.31724e-06
4.88911e-07
1.3071e-06
5.56452e-07
2.9017e-07
1.30762e-06
1.40503e-06
-1.68327e-06
1.52389e-06
1.82539e-06
1.36527e-06
2.6128e-07
1.28921e-06
-2.25869e-06
1.45805e-06
-2.7929e-06
1.47597e-06
6.20042e-07
1.42238e-06
6.29864e-07
1.49708e-06
8.71884e-08
1.48753e-06
-6.27842e-07
1.46034e-06
-1.77097e-07
1.45358e-06
-4.39338e-07
1.47341e-06
-1.20461e-08
1.41465e-06
9.96975e-08
1.39957e-06
4.48176e-07
1.38176e-06
3.53203e-07
1.39063e-06
5.52613e-07
1.37249e-06
6.03907e-07
1.37605e-06
4.85353e-07
1.37875e-06
5.53755e-07
2.94396e-07
1.37452e-06
1.46629e-06
-1.74121e-06
1.62395e-06
1.66773e-06
1.45765e-06
4.27585e-07
1.34383e-06
-2.14487e-06
1.49945e-06
-2.94851e-06
1.57097e-06
5.48514e-07
1.52635e-06
6.74486e-07
1.57881e-06
3.47349e-08
1.55713e-06
-6.06167e-07
1.53264e-06
-1.52607e-07
1.52242e-06
-4.29113e-07
1.54694e-06
-3.65692e-08
1.50061e-06
1.46023e-07
1.47595e-06
4.72841e-07
1.45332e-06
3.75835e-07
1.45488e-06
5.51046e-07
1.44452e-06
6.14266e-07
1.4434e-06
4.86474e-07
1.45051e-06
5.46643e-07
2.96746e-07
1.44816e-06
1.52884e-06
-1.79438e-06
1.70561e-06
1.49097e-06
1.54427e-06
5.88919e-07
1.40831e-06
-2.0089e-06
1.53767e-06
-3.07787e-06
1.65542e-06
4.30757e-07
1.63616e-06
6.93753e-07
1.65752e-06
1.33743e-08
1.61881e-06
-5.67457e-07
1.59254e-06
-1.26343e-07
1.58282e-06
-4.19393e-07
1.61033e-06
-6.40706e-08
1.58333e-06
1.73023e-07
1.5561e-06
5.00062e-07
1.52784e-06
4.041e-07
1.52314e-06
5.55747e-07
1.51768e-06
6.19725e-07
1.51778e-06
4.86372e-07
1.52815e-06
5.36272e-07
2.97157e-07
1.52774e-06
1.59319e-06
-1.84135e-06
1.76939e-06
1.31478e-06
1.62647e-06
7.31834e-07
1.48157e-06
-1.864e-06
1.5779e-06
-3.1742e-06
1.73016e-06
2.78494e-07
1.74504e-06
6.78879e-07
1.73521e-06
2.32055e-08
1.67719e-06
-5.09441e-07
1.64682e-06
-9.59706e-08
1.63807e-06
-4.10649e-07
1.66784e-06
-9.38391e-08
1.65926e-06
1.81602e-07
1.63813e-06
5.21198e-07
1.60712e-06
4.35106e-07
1.59803e-06
5.64838e-07
1.59579e-06
6.21966e-07
1.59949e-06
4.82676e-07
1.61332e-06
5.22442e-07
2.967e-07
1.61377e-06
1.65929e-06
-1.88051e-06
1.8195e-06
1.15456e-06
1.70589e-06
8.45449e-07
1.56237e-06
-1.72048e-06
1.62637e-06
-3.23821e-06
1.80067e-06
1.04194e-07
1.84633e-06
6.33224e-07
1.81167e-06
5.78663e-08
1.7357e-06
-4.33474e-07
1.70083e-06
-6.11014e-08
1.69128e-06
-4.01104e-07
1.72189e-06
-1.24449e-07
1.72789e-06
1.7561e-07
1.71864e-06
5.3044e-07
1.69121e-06
4.62541e-07
1.68187e-06
5.74178e-07
1.68266e-06
6.21174e-07
1.6899e-06
4.75436e-07
1.70638e-06
5.05969e-07
2.97289e-07
1.70579e-06
1.72672e-06
-1.90966e-06
1.86189e-06
1.01939e-06
1.78343e-06
9.23916e-07
1.64981e-06
-1.58686e-06
1.68619e-06
-3.27459e-06
1.8693e-06
-7.89121e-08
1.93429e-06
5.68228e-07
1.88426e-06
1.07895e-07
1.79597e-06
-3.45177e-07
1.75761e-06
-2.27503e-08
1.74493e-06
-3.88424e-07
1.77396e-06
-1.53479e-07
1.7907e-06
1.58877e-07
1.7961e-06
5.25038e-07
1.77861e-06
4.80027e-07
1.77449e-06
5.78303e-07
1.77938e-06
6.16284e-07
1.78882e-06
4.65995e-07
1.80599e-06
4.88802e-07
3.01163e-07
1.80211e-06
1.79565e-06
-1.92658e-06
1.903e-06
9.12036e-07
1.85998e-06
9.66934e-07
1.74326e-06
-1.47014e-06
1.75618e-06
-3.28751e-06
1.93337e-06
-2.561e-07
2.0052e-06
4.96397e-07
1.95003e-06
1.6307e-07
1.85847e-06
-2.53621e-07
1.81924e-06
1.64765e-08
1.8016e-06
-3.70776e-07
1.82617e-06
-1.78051e-07
1.85034e-06
1.34708e-07
1.87089e-06
5.04487e-07
1.86749e-06
4.83426e-07
1.87292e-06
5.72871e-07
1.88304e-06
6.06163e-07
1.89288e-06
4.56159e-07
1.90833e-06
4.73347e-07
3.09953e-07
1.89954e-06
1.86734e-06
-1.93018e-06
1.94901e-06
8.30368e-07
1.93715e-06
9.78794e-07
1.84187e-06
-1.37486e-06
1.83327e-06
-3.27891e-06
1.98997e-06
-4.12794e-07
2.05936e-06
4.27006e-07
2.00838e-06
2.14051e-07
1.9235e-06
-1.68746e-07
1.88743e-06
5.25531e-08
1.86438e-06
-3.47724e-07
1.88189e-06
-1.95568e-07
1.91005e-06
1.06548e-07
1.94406e-06
4.70479e-07
1.95567e-06
4.71821e-07
1.97218e-06
5.56356e-07
1.98755e-06
5.90794e-07
1.99598e-06
4.47724e-07
2.00777e-06
4.61565e-07
3.23918e-07
1.9938e-06
1.94392e-06
-1.92126e-06
2.00492e-06
7.69374e-07
2.01705e-06
9.66661e-07
1.94416e-06
-1.30197e-06
1.91528e-06
-3.25003e-06
2.04091e-06
-5.38428e-07
2.10246e-06
3.6545e-07
2.06251e-06
2.54008e-07
1.99195e-06
-9.81903e-08
1.96315e-06
8.13548e-08
1.93617e-06
-3.20746e-07
1.94528e-06
-2.04679e-07
1.97338e-06
7.84542e-08
2.01654e-06
4.27311e-07
2.04055e-06
4.4782e-07
2.06639e-06
5.30512e-07
2.08564e-06
5.71541e-07
2.09143e-06
4.41942e-07
2.09886e-06
4.54129e-07
3.41549e-07
2.08123e-06
2.02725e-06
-1.90232e-06
2.0734e-06
7.23225e-07
2.10155e-06
9.38509e-07
2.04851e-06
-1.24893e-06
2.00185e-06
-3.20337e-06
2.0929e-06
-6.29476e-07
2.14417e-06
3.14177e-07
2.11834e-06
2.79834e-07
2.06542e-06
-4.52649e-08
2.04639e-06
1.00382e-07
2.0184e-06
-2.92758e-07
2.01974e-06
-2.06011e-07
2.04373e-06
5.44649e-08
2.08966e-06
3.81376e-07
2.12055e-06
4.1693e-07
2.15141e-06
4.99657e-07
2.17238e-06
5.50567e-07
2.17535e-06
4.38972e-07
2.17939e-06
4.50093e-07
3.59893e-07
2.16104e-06
2.11814e-06
-1.87646e-06
2.15458e-06
6.86782e-07
2.19184e-06
9.01255e-07
2.15414e-06
-1.21123e-06
2.09368e-06
-3.14291e-06
2.15351e-06
-6.89307e-07
2.19422e-06
2.73469e-07
2.18201e-06
2.92037e-07
2.14575e-06
-9.00518e-09
2.13653e-06
1.09603e-07
2.11052e-06
-2.66744e-07
2.10646e-06
-2.0195e-07
2.12367e-06
3.72528e-08
2.16592e-06
3.39122e-07
2.19726e-06
3.85588e-07
2.22796e-06
4.68958e-07
2.24854e-06
5.29991e-07
2.2496e-06
4.37909e-07
2.25221e-06
4.47488e-07
3.757e-07
2.2364e-06
2.21637e-06
-1.84635e-06
2.24688e-06
6.5627e-07
2.28838e-06
8.59759e-07
2.26133e-06
-1.18418e-06
2.19135e-06
-3.07293e-06
2.22736e-06
-7.25312e-07
2.2589e-06
2.41931e-07
2.25759e-06
2.9335e-07
2.2344e-06
1.41799e-08
2.23303e-06
1.1097e-07
2.2108e-06
-2.4451e-07
2.20427e-06
-1.95418e-07
2.21426e-06
2.72648e-08
2.2487e-06
3.04673e-07
2.27562e-06
3.58671e-07
2.30212e-06
4.42463e-07
2.32082e-06
5.11285e-07
2.32127e-06
4.37461e-07
2.32429e-06
4.44466e-07
3.86754e-07
2.31324e-06
2.32127e-06
-1.81374e-06
2.34831e-06
6.29227e-07
2.39121e-06
8.16854e-07
2.37102e-06
-1.16399e-06
2.29497e-06
-2.99688e-06
2.31519e-06
-7.45529e-07
2.34e-06
2.17114e-07
2.34635e-06
2.87009e-07
2.33204e-06
2.849e-08
2.3358e-06
1.07206e-07
2.31762e-06
-2.26333e-07
2.31079e-06
-1.88585e-07
2.31491e-06
2.31408e-08
2.34074e-06
2.7885e-07
2.36137e-06
3.38037e-07
2.38189e-06
4.21938e-07
2.39808e-06
4.95097e-07
2.39888e-06
4.36664e-07
2.40321e-06
4.40137e-07
3.9251e-07
2.39745e-06
2.43222e-06
-1.77956e-06
2.45735e-06
6.04101e-07
2.50026e-06
7.73942e-07
2.48433e-06
-1.14806e-06
2.40438e-06
-2.91693e-06
2.4153e-06
-7.56453e-07
2.43604e-06
1.96377e-07
2.44744e-06
2.75612e-07
2.43859e-06
3.73426e-08
2.44504e-06
1.00751e-07
2.43016e-06
-2.11449e-07
2.42389e-06
-1.8232e-07
2.42409e-06
2.29438e-08
2.44286e-06
2.60076e-07
2.45805e-06
3.22853e-07
2.47302e-06
4.06962e-07
2.48677e-06
4.81349e-07
2.48833e-06
4.3511e-07
2.49388e-06
4.34588e-07
3.93775e-07
2.49261e-06
2.54895e-06
-1.74422e-06
2.57319e-06
5.79863e-07
2.61549e-06
7.31646e-07
2.60214e-06
-1.13471e-06
2.51951e-06
-2.83431e-06
2.52546e-06
-7.62399e-07
2.54424e-06
1.77596e-07
2.55904e-06
2.6081e-07
2.5535e-06
4.28844e-08
2.56094e-06
9.33083e-08
2.54828e-06
-1.98785e-07
2.54245e-06
-1.76491e-07
2.54022e-06
2.51732e-08
2.55422e-06
2.46077e-07
2.566e-06
3.11072e-07
2.57709e-06
3.95873e-07
2.58896e-06
4.69482e-07
2.59132e-06
4.32746e-07
2.59755e-06
4.2836e-07
3.9192e-07
2.5994e-06
2.67146e-06
-1.70785e-06
2.69554e-06
5.55785e-07
2.73695e-06
6.90237e-07
2.72513e-06
-1.12289e-06
2.64048e-06
-2.74966e-06
2.6439e-06
-7.65815e-07
2.66203e-06
1.59462e-07
2.67932e-06
2.43522e-07
2.67606e-06
4.61408e-08
2.68351e-06
8.5861e-08
2.67216e-06
-1.8744e-07
2.66626e-06
-1.70585e-07
2.66239e-06
2.90407e-08
2.67336e-06
2.35105e-07
2.68358e-06
3.00853e-07
2.69259e-06
3.86862e-07
2.70329e-06
4.5878e-07
2.70641e-06
4.29628e-07
2.71284e-06
4.21931e-07
3.88198e-07
2.71656e-06
2.79993e-06
-1.67051e-06
2.82437e-06
5.31343e-07
2.86475e-06
6.49852e-07
2.8538e-06
-1.11194e-06
2.7675e-06
-2.66337e-06
2.76959e-06
-7.67901e-07
2.7877e-06
1.41351e-07
2.80694e-06
2.2428e-07
2.80565e-06
4.74306e-08
2.81262e-06
7.88999e-08
2.802e-06
-1.7682e-07
2.7956e-06
-1.64194e-07
2.79044e-06
3.42063e-08
2.7993e-06
2.26244e-07
2.8089e-06
2.91253e-07
2.8171e-06
3.7866e-07
2.82724e-06
4.4864e-07
2.83107e-06
4.25805e-07
2.83751e-06
4.15489e-07
3.8342e-07
2.84229e-06
2.93461e-06
-1.63223e-06
2.95977e-06
5.06189e-07
2.99902e-06
6.10596e-07
2.98854e-06
-1.10146e-06
2.90087e-06
-2.57569e-06
2.90211e-06
-7.69149e-07
2.92045e-06
1.23013e-07
2.94126e-06
2.03468e-07
2.94191e-06
4.6783e-08
2.94816e-06
7.26477e-08
2.9379e-06
-1.66561e-07
2.9309e-06
-1.57184e-07
2.92467e-06
4.04333e-08
2.93179e-06
2.19125e-07
2.94088e-06
2.82159e-07
2.94884e-06
3.70705e-07
2.95879e-06
4.38692e-07
2.96326e-06
4.21325e-07
2.96977e-06
4.08986e-07
3.77943e-07
2.97525e-06
3.07583e-06
-1.59305e-06
3.10191e-06
4.80112e-07
3.1399e-06
5.72599e-07
3.1297e-06
-1.09125e-06
3.0409e-06
-2.48689e-06
3.04145e-06
-7.69701e-07
3.06014e-06
1.04318e-07
3.08217e-06
1.81443e-07
3.08473e-06
4.42194e-08
3.09018e-06
6.71983e-08
3.08003e-06
-1.56414e-07
3.07247e-06
-1.49619e-07
3.0655e-06
4.74044e-08
3.07107e-06
2.13557e-07
3.07935e-06
2.73872e-07
3.08711e-06
3.62943e-07
3.09703e-06
4.28777e-07
3.10212e-06
4.16237e-07
3.10882e-06
4.02286e-07
3.71823e-07
3.11494e-06
3.22391e-06
-1.55305e-06
3.25103e-06
4.52995e-07
3.28759e-06
5.36036e-07
3.27761e-06
-1.08127e-06
3.18796e-06
-2.39725e-06
3.1878e-06
-7.69537e-07
3.20698e-06
8.51375e-08
3.22985e-06
1.58571e-07
3.2342e-06
3.98759e-08
3.23883e-06
6.25599e-08
3.22861e-06
-1.46191e-07
3.22061e-06
-1.41615e-07
3.21327e-06
5.47355e-08
3.21751e-06
2.09319e-07
3.22467e-06
2.66713e-07
3.2321e-06
3.55521e-07
3.24201e-06
4.18861e-07
3.24768e-06
4.1057e-07
3.25469e-06
3.95273e-07
3.65015e-07
3.2615e-06
3.37917e-06
-1.51228e-06
3.40741e-06
4.2475e-07
3.44233e-06
5.0112e-07
3.43256e-06
-1.0715e-06
3.34247e-06
-2.30716e-06
3.34149e-06
-7.68558e-07
3.36127e-06
6.53616e-08
3.38461e-06
1.35227e-07
3.39048e-06
3.4007e-08
3.39439e-06
5.86478e-08
3.38397e-06
-1.35768e-07
3.37561e-06
-1.33253e-07
3.36827e-06
6.20708e-08
3.37146e-06
2.06126e-07
3.37737e-06
2.60803e-07
3.38435e-06
3.48548e-07
3.39424e-06
4.08964e-07
3.40053e-06
4.04286e-07
3.40791e-06
3.87889e-07
3.5753e-07
3.4154e-06
3.54191e-06
-1.47078e-06
3.5714e-06
3.95266e-07
3.60449e-06
4.68029e-07
3.59488e-06
-1.06189e-06
3.5048e-06
-2.21708e-06
3.50286e-06
-7.66619e-07
3.52328e-06
4.49372e-08
3.54675e-06
1.11759e-07
3.55382e-06
2.69364e-08
3.55718e-06
5.5283e-08
3.54653e-06
-1.25115e-07
3.53782e-06
-1.24546e-07
3.53074e-06
6.91535e-08
3.53318e-06
2.03684e-07
3.53795e-06
2.56035e-07
3.5445e-06
3.41999e-07
3.55435e-06
3.99114e-07
3.56134e-06
3.97291e-07
3.56914e-06
3.80098e-07
3.49522e-07
3.57714e-06
3.71242e-06
-1.4285e-06
3.74331e-06
3.64376e-07
3.77452e-06
4.3682e-07
3.76491e-06
-1.05228e-06
3.67532e-06
-2.12749e-06
3.67226e-06
-7.63562e-07
3.6933e-06
2.39014e-08
3.71658e-06
8.84712e-08
3.72453e-06
1.89863e-08
3.72758e-06
5.22391e-08
3.71675e-06
-1.14287e-07
3.70768e-06
-1.15477e-07
3.70098e-06
7.58515e-08
3.70291e-06
2.01752e-07
3.70683e-06
2.52115e-07
3.71311e-06
3.3572e-07
3.72291e-06
3.89321e-07
3.7307e-06
3.89496e-07
3.73896e-06
3.71837e-07
3.41226e-07
3.74726e-06
3.89098e-06
-1.38529e-06
3.92348e-06
3.31878e-07
3.95295e-06
4.07349e-07
3.94303e-06
-1.04236e-06
3.85438e-06
-2.03884e-06
3.85007e-06
-7.59252e-07
3.87158e-06
2.39388e-09
3.89445e-06
6.56013e-08
3.903e-06
1.04368e-08
3.90595e-06
4.92923e-08
3.89507e-06
-1.03408e-07
3.88564e-06
-1.06046e-07
3.87936e-06
8.21301e-08
3.88093e-06
2.00177e-07
3.88438e-06
2.4867e-07
3.89063e-06
3.29467e-07
3.90038e-06
3.79567e-07
3.909e-06
3.80875e-07
3.91783e-06
3.63014e-07
3.32817e-07
3.92624e-06
4.07791e-06
-1.34095e-06
4.11219e-06
2.97601e-07
4.1403e-06
3.79241e-07
4.12967e-06
-1.03173e-06
4.04233e-06
-1.9515e-06
4.03669e-06
-7.53612e-07
4.05843e-06
-1.93502e-08
4.08069e-06
4.33453e-08
4.08963e-06
1.4961e-09
4.09265e-06
4.62765e-08
4.08188e-06
-9.26422e-08
4.07217e-06
-9.63358e-08
4.0663e-06
8.80001e-08
4.06758e-06
1.98895e-07
4.07092e-06
2.45337e-07
4.07739e-06
3.2299e-07
4.08716e-06
3.69804e-07
4.0965e-06
3.71532e-07
4.10596e-06
3.53549e-07
3.24302e-07
4.11448e-06
4.27361e-06
-1.29526e-06
4.30973e-06
2.61485e-07
4.33702e-06
3.51942e-07
4.32526e-06
-1.01996e-06
4.23951e-06
-1.86575e-06
4.23253e-06
-7.46628e-07
4.25421e-06
-4.10317e-08
4.27568e-06
2.1879e-08
4.28487e-06
-7.70166e-09
4.28805e-06
4.31002e-08
4.27757e-06
-8.21638e-08
4.26778e-06
-8.65412e-08
4.26232e-06
9.34585e-08
4.2633e-06
1.97918e-07
4.26679e-06
2.41841e-07
4.2737e-06
3.16081e-07
4.28353e-06
3.59978e-07
4.29338e-06
3.61675e-07
4.30347e-06
3.43459e-07
3.15541e-07
4.31223e-06
4.47854e-06
-1.24803e-06
4.51638e-06
2.23645e-07
4.54349e-06
3.24834e-07
4.53024e-06
-1.00671e-06
4.44628e-06
-1.78179e-06
4.438e-06
-7.38345e-07
4.4593e-06
-6.23347e-08
4.47981e-06
1.37031e-09
4.48919e-06
-1.70806e-08
4.49256e-06
3.97307e-08
4.48251e-06
-7.21103e-08
4.47291e-06
-7.69498e-08
4.46793e-06
9.84446e-08
4.46857e-06
1.97278e-07
4.47236e-06
2.38053e-07
4.47985e-06
3.08593e-07
4.48975e-06
3.50074e-07
4.49994e-06
3.51484e-07
4.51044e-06
3.32956e-07
3.06359e-07
4.51962e-06
4.69328e-06
-1.19919e-06
4.73254e-06
1.84381e-07
4.76e-06
2.97378e-07
4.74507e-06
-9.91789e-07
4.66303e-06
-1.69975e-06
4.65352e-06
-7.28833e-07
4.67417e-06
-8.29846e-08
4.69357e-06
-1.80337e-08
4.70309e-06
-2.65968e-08
4.70666e-06
3.6161e-08
4.69711e-06
-6.25579e-08
4.68801e-06
-6.7853e-08
4.68363e-06
1.02824e-07
4.68392e-06
1.96986e-07
4.68798e-06
2.33998e-07
4.69615e-06
3.00419e-07
4.70609e-06
3.40138e-07
4.71648e-06
3.41094e-07
4.72708e-06
3.2235e-07
2.96704e-07
4.73674e-06
4.91841e-06
-1.14881e-06
4.95867e-06
1.44123e-07
4.98683e-06
2.69222e-07
4.97018e-06
-9.75143e-07
4.89018e-06
-1.61975e-06
4.87952e-06
-7.18174e-07
4.89933e-06
-1.02789e-07
4.91751e-06
-3.62211e-08
4.92714e-06
-3.62275e-08
4.93091e-06
3.23965e-08
4.92186e-06
-5.35126e-08
4.91348e-06
-5.94732e-08
4.90989e-06
1.06412e-07
4.90986e-06
1.97019e-07
4.91407e-06
2.29786e-07
4.92294e-06
2.91552e-07
4.93285e-06
3.30224e-07
4.9433e-06
3.30653e-07
4.95376e-06
3.11883e-07
2.86727e-07
4.96374e-06
5.15458e-06
-1.09707e-06
5.19535e-06
1.03356e-07
5.22431e-06
2.40261e-07
5.20602e-06
-9.56854e-07
5.12819e-06
-1.54193e-06
5.11646e-06
-7.06439e-07
5.13532e-06
-1.21652e-07
5.15224e-06
-5.31362e-08
5.16195e-06
-4.5942e-08
5.16591e-06
2.84332e-08
5.15732e-06
-4.49196e-08
5.14974e-06
-5.18962e-08
5.14717e-06
1.08991e-07
5.14685e-06
1.97332e-07
5.15104e-06
2.25599e-07
5.16058e-06
2.82013e-07
5.17043e-06
3.20368e-07
5.18073e-06
3.20362e-07
5.19092e-06
3.01684e-07
2.76701e-07
5.20095e-06
5.40239e-06
-1.04427e-06
5.44321e-06
6.25342e-08
5.47286e-06
2.10616e-07
5.45305e-06
-9.37048e-07
5.37758e-06
-1.46646e-06
5.36484e-06
-6.93699e-07
5.38273e-06
-1.39541e-07
5.39838e-06
-6.87862e-08
5.40812e-06
-5.56827e-08
5.4123e-06
2.42538e-08
5.40408e-06
-3.67007e-08
5.39724e-06
-4.50496e-08
5.39587e-06
1.10357e-07
5.39537e-06
1.97833e-07
5.39931e-06
2.21654e-07
5.40949e-06
2.71838e-07
5.4193e-06
3.10559e-07
5.42919e-06
3.10466e-07
5.43914e-06
2.91742e-07
2.66896e-07
5.44894e-06
5.66245e-06
-9.90763e-07
5.70294e-06
2.20387e-08
5.733e-06
1.80557e-07
5.71179e-06
-9.15839e-07
5.63889e-06
-1.39355e-06
5.62522e-06
-6.80029e-07
5.64214e-06
-1.56462e-07
5.65658e-06
-8.32279e-08
5.66625e-06
-6.53474e-08
5.67068e-06
1.9824e-08
5.66277e-06
-2.87891e-08
5.65648e-06
-3.87575e-08
5.65646e-06
1.10376e-07
5.65594e-06
1.98351e-07
5.6594e-06
2.1819e-07
5.67015e-06
2.61095e-07
5.68006e-06
3.00649e-07
5.68934e-06
3.01181e-07
5.69903e-06
2.82054e-07
2.57503e-07
5.70842e-06
5.93533e-06
-9.369e-07
5.9752e-06
-1.78298e-08
6.00535e-06
1.5041e-07
5.98281e-06
-8.93304e-07
5.91269e-06
-1.32344e-06
5.89818e-06
-6.6552e-07
5.91414e-06
-1.72419e-07
5.92747e-06
-9.65565e-08
5.93692e-06
-7.4793e-08
5.94164e-06
1.51027e-08
5.934e-06
-2.11528e-08
5.92804e-06
-3.27974e-08
5.9294e-06
1.09016e-07
5.92915e-06
1.98599e-07
5.93194e-06
2.15404e-07
5.94299e-06
2.50039e-07
5.9533e-06
2.90344e-07
5.96193e-06
2.92555e-07
5.97122e-06
2.7276e-07
2.48555e-07
5.98017e-06
6.22161e-06
-8.83026e-07
6.26061e-06
-5.6821e-08
6.29054e-06
1.20476e-07
6.26672e-06
-8.69489e-07
6.19958e-06
-1.2563e-06
6.18434e-06
-6.50277e-07
6.19932e-06
-1.87401e-07
6.21165e-06
-1.08882e-07
6.22072e-06
-8.38628e-08
6.22573e-06
1.00872e-08
6.21843e-06
-1.38539e-08
6.21257e-06
-2.6933e-08
6.21522e-06
1.06361e-07
6.21561e-06
1.98217e-07
6.2176e-06
2.13406e-07
6.22858e-06
2.39063e-07
6.23957e-06
2.79355e-07
6.24767e-06
2.84452e-07
6.25638e-06
2.64054e-07
2.4004e-07
6.26489e-06
6.5219e-06
-8.29453e-07
6.55978e-06
-9.47023e-08
6.58927e-06
9.09828e-08
6.56421e-06
-8.44429e-07
6.50018e-06
-1.19226e-06
6.48431e-06
-6.34414e-07
6.49828e-06
-2.01372e-07
6.50972e-06
-1.20313e-07
6.51827e-06
-9.24208e-08
6.52355e-06
4.80807e-09
6.51669e-06
-6.99333e-09
6.51077e-06
-2.10114e-08
6.51455e-06
1.0258e-07
6.51589e-06
1.96878e-07
6.51705e-06
2.12244e-07
6.52753e-06
2.28583e-07
6.5394e-06
2.67492e-07
6.5473e-06
2.76543e-07
6.55523e-06
2.56128e-07
2.31974e-07
6.5633e-06
6.8368e-06
-7.76463e-07
6.87332e-06
-1.31219e-07
6.90225e-06
6.20522e-08
6.87598e-06
-8.18164e-07
6.81512e-06
-1.1314e-06
6.79877e-06
-6.18059e-07
6.81165e-06
-2.1426e-07
6.82227e-06
-1.30925e-07
6.83022e-06
-1.00378e-07
6.83572e-06
-6.94694e-10
6.82942e-06
-6.84341e-10
6.82337e-06
-1.49639e-08
6.82804e-06
9.79079e-08
6.83069e-06
1.94227e-07
6.83109e-06
2.11844e-07
6.84059e-06
2.19081e-07
6.85321e-06
2.54877e-07
6.86139e-06
2.68357e-07
6.86852e-06
2.49002e-07
2.24442e-07
6.87605e-06
7.167e-06
-7.24323e-07
7.20186e-06
-1.66078e-07
7.23018e-06
3.37279e-08
7.20279e-06
-7.90773e-07
7.14511e-06
-1.07372e-06
7.12837e-06
-6.01318e-07
7.14007e-06
-2.25962e-07
7.14994e-06
-1.40797e-07
7.15724e-06
-1.07673e-07
7.16292e-06
-6.37662e-09
7.15727e-06
4.96504e-09
7.15111e-06
-8.79931e-09
7.15635e-06
9.26696e-08
7.1606e-06
1.89971e-07
7.16062e-06
2.11823e-07
7.16863e-06
2.11077e-07
7.18152e-06
2.41982e-07
7.19034e-06
2.59542e-07
7.19686e-06
2.42475e-07
2.17395e-07
7.20391e-06
7.51319e-06
-6.7329e-07
7.54606e-06
-1.98945e-07
7.57381e-06
5.97415e-09
7.54538e-06
-7.62345e-07
7.49085e-06
-1.01919e-06
7.47387e-06
-5.8434e-07
7.48424e-06
-2.36328e-07
7.49338e-06
-1.4994e-07
7.50001e-06
-1.14307e-07
7.50581e-06
-1.21742e-08
7.50097e-06
9.80654e-09
7.49476e-06
-2.59147e-09
7.50031e-06
8.7127e-08
7.50634e-06
1.83938e-07
7.50649e-06
2.11667e-07
7.51266e-06
2.04912e-07
7.52491e-06
2.29734e-07
7.53424e-06
2.50207e-07
7.54024e-06
2.36476e-07
2.10188e-07
7.54745e-06
7.87614e-06
-6.23622e-07
7.90665e-06
-2.29452e-07
7.93391e-06
-2.12816e-08
7.90457e-06
-7.33011e-07
7.85309e-06
-9.67705e-07
7.83598e-06
-5.67227e-07
7.84493e-06
-2.45282e-07
7.85331e-06
-1.58316e-07
7.8593e-06
-1.20301e-07
7.86518e-06
-1.80498e-08
7.86116e-06
1.38226e-08
7.85505e-06
3.51803e-09
7.8606e-06
8.15821e-08
7.86855e-06
1.7598e-07
7.86988e-06
2.10344e-07
7.87439e-06
2.00399e-07
7.88487e-06
2.19257e-07
7.89327e-06
2.41804e-07
7.89808e-06
2.31663e-07
2.01638e-07
7.90663e-06
8.25664e-06
-5.75581e-07
8.28441e-06
-2.57218e-07
8.3113e-06
-4.8171e-08
8.28111e-06
-7.02825e-07
8.23262e-06
-9.19214e-07
8.21555e-06
-5.50158e-07
8.22291e-06
-2.5264e-07
8.23043e-06
-1.65839e-07
8.23585e-06
-1.25717e-07
8.24177e-06
-2.39688e-08
8.23874e-06
1.68535e-08
8.23287e-06
9.38528e-09
8.2381e-06
7.63548e-08
8.24748e-06
1.66599e-07
8.25156e-06
2.06264e-07
8.25901e-06
1.9295e-07
8.27722e-06
2.0104e-07
8.2955e-06
2.23532e-07
8.30456e-06
2.22602e-07
1.99737e-07
8.30646e-06
8.65551e-06
-5.2943e-07
8.68015e-06
-2.81861e-07
8.70679e-06
-7.48077e-08
8.67589e-06
-6.71922e-07
8.63017e-06
-8.73492e-07
8.61337e-06
-5.3336e-07
8.61907e-06
-2.58341e-07
8.62566e-06
-1.72433e-07
8.63052e-06
-1.30577e-07
8.63642e-06
-2.98613e-08
8.63437e-06
1.88966e-08
8.6288e-06
1.49586e-08
8.63388e-06
7.12749e-08
8.64487e-06
1.55603e-07
8.65133e-06
1.99812e-07
8.65792e-06
1.86362e-07
8.67289e-06
1.86063e-07
8.68991e-06
2.06514e-07
8.69823e-06
2.1428e-07
1.96508e-07
8.70146e-06
9.0736e-06
-4.85411e-07
9.09482e-06
-3.03076e-07
9.12129e-06
-1.01278e-07
9.08977e-06
-6.4041e-07
9.04652e-06
-8.30242e-07
9.03033e-06
-5.17166e-07
9.03429e-06
-2.62302e-07
9.03979e-06
-1.77934e-07
9.04408e-06
-1.34869e-07
9.05002e-06
-3.57919e-08
9.04915e-06
1.97653e-08
9.04402e-06
2.00827e-08
9.04872e-06
6.65791e-08
9.06018e-06
1.4414e-07
9.06844e-06
1.91555e-07
9.07437e-06
1.80432e-07
9.08723e-06
1.732e-07
9.10528e-06
1.88468e-07
9.11683e-06
2.02727e-07
1.94931e-07
9.11841e-06
9.51183e-06
-4.43777e-07
9.52931e-06
-3.20561e-07
9.55569e-06
-1.27658e-07
9.52373e-06
-6.08449e-07
9.48256e-06
-7.8907e-07
9.46721e-06
-5.01824e-07
9.4696e-06
-2.64692e-07
9.47385e-06
-1.82176e-07
9.47762e-06
-1.38641e-07
9.48341e-06
-4.15886e-08
9.48348e-06
1.9702e-08
9.47935e-06
2.42125e-08
9.48399e-06
6.19396e-08
9.49492e-06
1.33205e-07
9.50164e-06
1.84842e-07
9.50233e-06
1.79739e-07
9.50409e-06
1.71438e-07
9.51156e-06
1.80995e-07
9.51946e-06
1.94831e-07
1.83492e-07
9.5309e-06
9.9711e-06
-4.04741e-07
9.98465e-06
-3.34116e-07
1.00109e-05
-1.5394e-07
9.9788e-06
-5.7631e-07
9.93914e-06
-7.49417e-07
9.92494e-06
-4.87616e-07
9.92596e-06
-2.65718e-07
9.92881e-06
-1.85026e-07
9.93178e-06
-1.41606e-07
9.93766e-06
-4.74723e-08
9.93884e-06
1.8522e-08
9.93511e-06
2.79466e-08
9.93846e-06
5.85825e-08
9.95044e-06
1.2123e-07
9.96272e-06
1.72557e-07
9.97054e-06
1.71924e-07
9.98105e-06
1.60923e-07
9.99894e-06
1.63112e-07
1.00121e-05
1.81696e-07
1.83901e-07
1.00117e-05
1.04524e-05
-3.6849e-07
1.04619e-05
-3.43621e-07
1.04879e-05
-1.79955e-07
1.04561e-05
-5.44501e-07
1.04172e-05
-7.10565e-07
1.04044e-05
-4.74764e-07
1.04044e-05
-2.65708e-07
1.04058e-05
-1.86416e-07
1.04079e-05
-1.43688e-07
1.04136e-05
-5.31685e-08
1.04156e-05
1.64796e-08
1.04128e-05
3.07081e-08
1.04155e-05
5.58741e-08
1.04258e-05
1.10995e-07
1.04342e-05
1.64175e-07
1.04372e-05
1.68858e-07
1.04385e-05
1.59641e-07
1.04451e-05
1.5648e-07
1.04543e-05
1.72524e-07
1.72895e-07
1.04653e-05
1.09567e-05
-3.35157e-07
1.09621e-05
-3.49079e-07
1.09876e-05
-2.05424e-07
1.09567e-05
-5.13575e-07
1.09181e-05
-6.72012e-07
1.09065e-05
-4.63102e-07
1.09059e-05
-2.6512e-07
1.09058e-05
-1.86344e-07
1.09067e-05
-1.44551e-07
1.09121e-05
-5.85757e-08
1.09151e-05
1.34664e-08
1.09126e-05
3.3172e-08
1.09137e-05
5.47665e-08
1.09234e-05
1.0131e-07
1.09325e-05
1.55131e-07
1.09371e-05
1.64204e-07
1.09397e-05
1.57068e-07
1.09463e-05
1.49873e-07
1.09584e-05
1.60406e-07
1.63974e-07
1.09673e-05
1.1485e-05
-3.04838e-07
1.14865e-05
-3.50548e-07
1.15109e-05
-2.29842e-07
1.14817e-05
-4.8433e-07
1.14431e-05
-6.33459e-07
1.14321e-05
-4.52095e-07
1.14315e-05
-2.64479e-07
1.14302e-05
-1.85063e-07
1.14297e-05
-1.44053e-07
1.14343e-05
-6.31345e-08
1.14377e-05
1.00575e-08
1.1436e-05
3.48126e-08
1.14364e-05
5.43691e-08
1.14454e-05
9.23687e-08
1.14546e-05
1.45914e-07
1.14606e-05
1.58214e-07
1.14644e-05
1.53232e-07
1.14705e-05
1.43806e-07
1.14811e-05
1.49813e-07
1.54513e-07
1.14905e-05
1.20385e-05
-2.7754e-07
1.20362e-05
-3.4827e-07
1.2059e-05
-2.52604e-07
1.20322e-05
-4.57526e-07
1.19937e-05
-5.94918e-07
1.19826e-05
-4.40996e-07
1.19822e-05
-2.64162e-07
1.198e-05
-1.82826e-07
1.1978e-05
-1.42036e-07
1.19816e-05
-6.66921e-08
1.19855e-05
6.15277e-09
1.1985e-05
3.53126e-08
1.19847e-05
5.46668e-08
1.19925e-05
8.45441e-08
1.20023e-05
1.36071e-07
1.20091e-05
1.51391e-07
1.20138e-05
1.4863e-07
1.20192e-05
1.3831e-07
1.2028e-05
1.41048e-07
1.44883e-07
1.20376e-05
1.26183e-05
-2.53235e-07
1.26125e-05
-3.42529e-07
1.2633e-05
-2.73102e-07
1.26093e-05
-4.33833e-07
1.25711e-05
-5.56681e-07
1.2559e-05
-4.28907e-07
1.25591e-05
-2.64248e-07
1.25565e-05
-1.80204e-07
1.25531e-05
-1.387e-07
1.25555e-05
-6.90598e-08
1.25593e-05
2.37845e-09
1.25599e-05
3.47288e-08
1.25596e-05
5.49762e-08
1.25664e-05
7.77098e-08
1.25766e-05
1.25867e-07
1.25838e-05
1.44191e-07
1.25887e-05
1.43769e-07
1.25939e-05
1.3309e-07
1.26016e-05
1.33364e-07
1.3574e-07
1.26107e-05
1.32255e-05
-2.31794e-07
1.32167e-05
-3.33732e-07
1.32345e-05
-2.90867e-07
1.32142e-05
-4.13592e-07
1.31767e-05
-5.19135e-07
1.31629e-05
-4.15149e-07
1.31633e-05
-2.6461e-07
1.31609e-05
-1.77775e-07
1.31563e-05
-1.34151e-07
1.31572e-05
-6.99541e-08
1.31608e-05
-1.25487e-09
1.31626e-05
3.29829e-08
1.31625e-05
5.50288e-08
1.31679e-05
7.23375e-08
1.31779e-05
1.15891e-07
1.31857e-05
1.3634e-07
1.31911e-05
1.38379e-07
1.31962e-05
1.27991e-07
1.32032e-05
1.26421e-07
1.27277e-07
1.32116e-05
1.38614e-05
-2.13042e-07
1.38501e-05
-3.22455e-07
1.38646e-05
-3.05343e-07
1.38478e-05
-3.96806e-07
1.38116e-05
-4.82958e-07
1.37959e-05
-3.99423e-07
1.37959e-05
-2.64626e-07
1.37942e-05
-1.76024e-07
1.3789e-05
-1.2893e-07
1.37884e-05
-6.94372e-08
1.37914e-05
-4.22254e-09
1.37938e-05
3.05882e-08
1.37942e-05
5.46279e-08
1.37985e-05
6.8073e-08
1.38081e-05
1.06265e-07
1.38166e-05
1.27809e-07
1.38225e-05
1.32538e-07
1.38274e-05
1.23098e-07
1.38336e-05
1.20227e-07
1.19279e-07
1.38416e-05
1.45273e-05
-1.96721e-07
1.45143e-05
-3.09408e-07
1.45249e-05
-3.15981e-07
1.45113e-05
-3.83125e-07
1.44772e-05
-4.4893e-07
1.44595e-05
-3.81719e-07
1.44585e-05
-2.63587e-07
1.44577e-05
-1.75209e-07
1.44524e-05
-1.23645e-07
1.44504e-05
-6.74432e-08
1.44524e-05
-6.24913e-09
1.44553e-05
2.77326e-08
1.44565e-05
5.33578e-08
1.44601e-05
6.44925e-08
1.44688e-05
9.75664e-08
1.44774e-05
1.19201e-07
1.44837e-05
1.26266e-07
1.44888e-05
1.17951e-07
1.44944e-05
1.14642e-07
1.11564e-07
1.45021e-05
1.52247e-05
-1.82504e-07
1.52106e-05
-2.95326e-07
1.5217e-05
-3.22357e-07
1.52058e-05
-3.71946e-07
1.51746e-05
-4.17722e-07
1.51552e-05
-3.62363e-07
1.51524e-05
-2.60788e-07
1.51524e-05
-1.75172e-07
1.51477e-05
-1.18956e-07
1.51447e-05
-6.44857e-08
1.51456e-05
-7.08852e-09
1.51486e-05
2.4744e-08
1.51505e-05
5.13785e-08
1.51535e-05
6.14892e-08
1.51612e-05
8.98643e-08
1.517e-05
1.10465e-07
1.51767e-05
1.19518e-07
1.51825e-05
1.12195e-07
1.51875e-05
1.09605e-07
1.04731e-07
1.51944e-05
1.59549e-05
-1.70028e-07
1.59404e-05
-2.8088e-07
1.59423e-05
-3.24232e-07
1.59329e-05
-3.62561e-07
1.59049e-05
-3.89723e-07
1.58843e-05
-3.41773e-07
1.58792e-05
-2.55721e-07
1.58794e-05
-1.75316e-07
1.58759e-05
-1.15519e-07
1.58727e-05
-6.12783e-08
1.58724e-05
-6.73894e-09
1.5875e-05
2.2134e-08
1.58777e-05
4.87113e-08
1.58806e-05
5.85218e-08
1.58876e-05
8.28799e-08
1.58963e-05
1.01776e-07
1.5903e-05
1.12879e-07
1.59089e-05
1.06268e-07
1.59139e-05
1.04572e-07
9.89306e-08
1.59197e-05
1.67195e-05
-1.58907e-07
1.67052e-05
-2.66603e-07
1.67028e-05
-3.21809e-07
1.66942e-05
-3.53948e-07
1.66694e-05
-3.65004e-07
1.66482e-05
-3.20521e-07
1.66405e-05
-2.47996e-07
1.66401e-05
-1.74922e-07
1.66381e-05
-1.13492e-07
1.66355e-05
-5.87484e-08
1.66345e-05
-5.70983e-09
1.66366e-05
2.00664e-08
1.66397e-05
4.55409e-08
1.66429e-05
5.53313e-08
1.66489e-05
7.68582e-08
1.66573e-05
9.34281e-08
1.66639e-05
1.06264e-07
1.66697e-05
1.00475e-07
1.66754e-05
9.89084e-08
9.37201e-08
1.66806e-05
1.75202e-05
-1.48778e-07
1.75065e-05
-2.52891e-07
1.75003e-05
-3.15562e-07
1.74913e-05
-3.44958e-07
1.74697e-05
-3.4347e-07
1.74487e-05
-2.99467e-07
1.74385e-05
-2.37821e-07
1.74366e-05
-1.72974e-07
1.74355e-05
-1.12421e-07
1.74343e-05
-5.75306e-08
1.74334e-05
-4.82041e-09
1.74349e-05
1.85119e-08
1.74381e-05
4.23959e-08
1.74416e-05
5.18231e-08
1.7447e-05
7.15001e-08
1.74549e-05
8.54913e-08
1.7462e-05
9.92082e-08
1.74674e-05
9.50553e-08
1.74731e-05
9.31458e-08
8.86903e-08
1.74782e-05
1.83589e-05
-1.3932e-07
1.83459e-05
-2.39929e-07
1.83365e-05
-3.06137e-07
1.83263e-05
-3.3476e-07
1.83076e-05
-3.24792e-07
1.82876e-05
-2.79452e-07
1.82756e-05
-2.25794e-07
1.82717e-05
-1.69047e-07
1.82706e-05
-1.11413e-07
1.82707e-05
-5.76139e-08
1.82706e-05
-4.67728e-09
1.82718e-05
1.72787e-08
1.82748e-05
3.9425e-08
1.82785e-05
4.81264e-08
1.82836e-05
6.63629e-08
1.82909e-05
7.82572e-08
1.82982e-05
9.19001e-08
1.83033e-05
8.98778e-08
1.83085e-05
8.79967e-08
8.33276e-08
1.83139e-05
1.92374e-05
-1.30281e-07
1.92251e-05
-2.2772e-07
1.92133e-05