/*--------------------------------*- C++ -*----------------------------------*\
| =========                 |                                                 |
| \\      /  F ield         | OpenFOAM: The Open Source CFD Toolbox           |
|  \\    /   O peration     | Version:  v1912                                 |
|   \\  /    A nd           | Website:  www.openfoam.com                      |
|    \\/     M anipulation  |                                                 |
\*---------------------------------------------------------------------------*/
FoamFile
{
    version     2.0;
    format      ascii;
    class       surfaceScalarField;
    location    "0.9";
    object      phi;
}
// * * * * * * * * * * * * * * * * * * * * * * * * * * * * * * * * * * * * * //

dimensions      [0 3 -1 0 0 0 0];
oriented        oriented;


internalField   nonuniform List<scalar> 
19000
(
1.16653e-06
-4.92817e-07
1.22357e-06
-2.18573e-07
1.22753e-06
3.14741e-07
1.12227e-06
1.14119e-06
1.13774e-06
-5.33526e-07
1.21023e-06
-8.38427e-07
1.20528e-06
-1.12673e-06
1.19531e-06
1.95231e-07
1.20603e-06
1.26253e-07
1.18189e-06
4.49894e-07
1.18814e-06
4.3595e-07
1.15967e-06
-1.42406e-09
1.17946e-06
-1.91002e-07
1.18698e-06
-5.11844e-08
1.18227e-06
-1.97782e-07
1.18976e-06
-3.51693e-08
1.1889e-06
-2.04287e-07
1.17695e-06
-1.09781e-07
1.18264e-06
-1.50262e-07
-2.41236e-07
1.13557e-06
1.22457e-06
-4.93124e-07
1.28237e-06
-2.76379e-07
1.28384e-06
3.13274e-07
1.19577e-06
1.22926e-06
1.20353e-06
-5.41287e-07
1.2656e-06
-9.00496e-07
1.26668e-06
-1.1278e-06
1.25984e-06
2.02064e-07
1.26607e-06
1.20027e-07
1.24873e-06
4.67236e-07
1.24437e-06
4.40302e-07
1.22714e-06
1.58105e-08
1.23444e-06
-1.98303e-07
1.25384e-06
-7.05844e-08
1.23766e-06
-1.81605e-07
1.25825e-06
-5.57582e-08
1.24006e-06
-1.86091e-07
1.24881e-06
-1.18533e-07
1.22795e-06
-1.29402e-07
-2.31782e-07
1.2185e-06
1.28381e-06
-4.94151e-07
1.34213e-06
-3.34697e-07
1.34195e-06
3.1345e-07
1.27612e-06
1.29509e-06
1.27101e-06
-5.36179e-07
1.32054e-06
-9.50026e-07
1.32635e-06
-1.13361e-06
1.32807e-06
2.00345e-07
1.32628e-06
1.21816e-07
1.32064e-06
4.72873e-07
1.30651e-06
4.54439e-07
1.29714e-06
2.51781e-08
1.29224e-06
-1.9341e-07
1.31287e-06
-9.12083e-08
1.29795e-06
-1.66684e-07
1.31115e-06
-6.89649e-08
1.29791e-06
-1.72851e-07
1.29901e-06
-1.19627e-07
1.28634e-06
-1.16736e-07
-2.1483e-07
1.26939e-06
1.344e-06
-4.94045e-07
1.40073e-06
-3.91429e-07
1.40121e-06
3.12974e-07
1.35631e-06
1.33998e-06
1.33821e-06
-5.18075e-07
1.37374e-06
-9.85565e-07
1.38281e-06
-1.14267e-06
1.39345e-06
1.89707e-07
1.38712e-06
1.2814e-07
1.38811e-06
4.71888e-07
1.37232e-06
4.70231e-07
1.3633e-06
3.41993e-08
1.35326e-06
-1.83378e-07
1.36673e-06
-1.04676e-07
1.35926e-06
-1.59218e-07
1.36449e-06
-7.41904e-08
1.35588e-06
-1.6424e-07
1.3544e-06
-1.18151e-07
1.34351e-06
-1.05842e-07
-1.97441e-07
1.32612e-06
1.406e-06
-4.91691e-07
1.45725e-06
-4.42676e-07
1.46062e-06
3.09598e-07
1.43297e-06
1.36763e-06
1.4062e-06
-4.91303e-07
1.42693e-06
-1.0063e-06
1.43765e-06
-1.1534e-06
1.45532e-06
1.72039e-07
1.44938e-06
1.34079e-07
1.45199e-06
4.69284e-07
1.43945e-06
4.82767e-07
1.42871e-06
4.49431e-08
1.41667e-06
-1.71339e-07
1.42326e-06
-1.11265e-07
1.41961e-06
-1.55566e-07
1.42286e-06
-7.74459e-08
1.41485e-06
-1.56225e-07
1.41399e-06
-1.17299e-07
1.40352e-06
-9.53651e-08
-1.79869e-07
1.38595e-06
1.47122e-06
-4.87231e-07
1.51272e-06
-4.84177e-07
1.51987e-06
3.02449e-07
1.50604e-06
1.38146e-06
1.47689e-06
-4.62153e-07
1.48357e-06
-1.01297e-06
1.49374e-06
-1.16356e-06
1.51651e-06
1.4927e-07
1.51368e-06
1.3691e-07
1.51611e-06
4.66848e-07
1.50739e-06
4.9149e-07
1.4963e-06
5.60341e-08
1.48278e-06
-1.57822e-07
1.48503e-06
-1.13517e-07
1.48162e-06
-1.52151e-07
1.48497e-06
-8.0803e-08
1.47736e-06
-1.48615e-07
1.47646e-06
-1.16394e-07
1.46737e-06
-8.62816e-08
-1.61519e-07
1.44902e-06
1.54067e-06
-4.81689e-07
1.56949e-06
-5.12995e-07
1.57957e-06
2.92369e-07
1.57749e-06
1.38353e-06
1.55124e-06
-4.35902e-07
1.54647e-06
-1.0082e-06
1.55336e-06
-1.17045e-06
1.57922e-06
1.2341e-07
1.57974e-06
1.36382e-07
1.5825e-06
4.64095e-07
1.57666e-06
4.97327e-07
1.56672e-06
6.59773e-08
1.55222e-06
-1.43322e-07
1.55202e-06
-1.13318e-07
1.54769e-06
-1.47826e-07
1.55083e-06
-8.39393e-08
1.54406e-06
-1.41844e-07
1.54252e-06
-1.1485e-07
1.53497e-06
-7.87331e-08
-1.42733e-07
1.51618e-06
1.61461e-06
-4.76173e-07
1.63017e-06
-5.28552e-07
1.64128e-06
2.81256e-07
1.64964e-06
1.37518e-06
1.62906e-06
-4.15321e-07
1.61649e-06
-9.95632e-07
1.61772e-06
-1.17168e-06
1.64415e-06
9.69814e-08
1.64703e-06
1.33499e-07
1.65122e-06
4.59912e-07
1.64776e-06
5.00781e-07
1.63977e-06
7.39643e-08
1.62515e-06
-1.28695e-07
1.62369e-06
-1.11865e-07
1.61859e-06
-1.42726e-07
1.62101e-06
-8.63576e-08
1.61503e-06
-1.35857e-07
1.61259e-06
-1.12414e-07
1.60637e-06
-7.25134e-08
-1.24006e-07
1.58764e-06
1.69268e-06
-4.71278e-07
1.69669e-06
-5.32557e-07
1.70704e-06
2.70903e-07
1.72432e-06
1.35789e-06
1.70979e-06
-4.0079e-07
1.69291e-06
-9.78744e-07
1.68725e-06
-1.16602e-06
1.71167e-06
7.25633e-08
1.71559e-06
1.29579e-07
1.722e-06
4.53498e-07
1.72106e-06
5.01718e-07
1.71548e-06
7.9549e-08
1.70155e-06
-1.1477e-07
1.69963e-06
-1.09943e-07
1.69426e-06
-1.37351e-07
1.69573e-06
-8.78345e-08
1.69038e-06
-1.30502e-07
1.68684e-06
-1.08879e-07
1.68166e-06
-6.73337e-08
-1.05759e-07
1.66342e-06
1.77443e-06
-4.66986e-07
1.76993e-06
-5.28061e-07
1.77867e-06
2.62166e-07
1.80287e-06
1.33369e-06
1.79322e-06
-3.91138e-07
1.77455e-06
-9.60074e-07
1.76202e-06
-1.15349e-06
1.78263e-06
5.19486e-08
1.78644e-06
1.25774e-07
1.79531e-06
4.44621e-07
1.79719e-06
4.99843e-07
1.79425e-06
8.24895e-08
1.78157e-06
-1.02093e-07
1.77962e-06
-1.0799e-07
1.77447e-06
-1.32209e-07
1.77492e-06
-8.82833e-08
1.77016e-06
-1.2574e-07
1.76547e-06
-1.04186e-07
1.76091e-06
-6.27791e-08
-8.83654e-08
1.74352e-06
1.85968e-06
-4.62914e-07
1.84987e-06
-5.18253e-07
1.85715e-06
2.54887e-07
1.88614e-06
1.3047e-06
1.87954e-06
-3.84535e-07
1.86053e-06
-9.41068e-07
1.84204e-06
-1.13499e-06
1.85828e-06
3.57078e-08
1.86124e-06
1.22813e-07
1.87237e-06
4.33484e-07
1.87711e-06
4.95104e-07
1.87676e-06
8.2838e-08
1.86553e-06
-9.08578e-08
1.86364e-06
-1.06098e-07
1.8591e-06
-1.27667e-07
1.85849e-06
-8.76784e-08
1.85433e-06
-1.21582e-07
1.84863e-06
-9.84808e-08
1.84423e-06
-5.8382e-08
-7.2158e-08
1.82802e-06
1.94854e-06
-4.58619e-07
1.93594e-06
-5.05649e-07
1.94248e-06
2.48344e-07
1.97457e-06
1.27261e-06
1.96921e-06
-3.79179e-07
1.95046e-06
-9.22311e-07
1.92731e-06
-1.11185e-06
1.93968e-06
2.33388e-08
1.94157e-06
1.20918e-07
1.95458e-06
4.20478e-07
1.96186e-06
4.87821e-07
1.96371e-06
8.09961e-08
1.95384e-06
-8.09868e-08
1.95182e-06
-1.04083e-07
1.94806e-06
-1.23911e-07
1.94643e-06
-8.60466e-08
1.94282e-06
-1.17968e-07
1.93642e-06
-9.20811e-08
1.93174e-06
-5.37006e-08
-5.74297e-08
1.91701e-06
2.04135e-06
-4.53776e-07
2.02758e-06
-4.91881e-07
2.03415e-06
2.41776e-07
2.06823e-06
1.23852e-06
2.06275e-06
-3.73692e-07
2.04429e-06
-9.03849e-07
2.01781e-06
-1.08538e-06
2.02741e-06
1.37431e-08
2.02841e-06
1.19915e-07
2.04291e-06
4.05984e-07
2.05217e-06
4.78557e-07
2.05555e-06
7.76141e-08
2.04685e-06
-7.22814e-08
2.04436e-06
-1.01599e-07
2.04144e-06
-1.20982e-07
2.03884e-06
-8.34539e-08
2.03559e-06
-1.14719e-07
2.0289e-06
-8.53843e-08
2.02358e-06
-4.83846e-08
-4.43996e-08
2.01055e-06
2.13845e-06
-4.4822e-07
2.12442e-06
-4.77852e-07
2.13149e-06
2.34699e-07
2.16704e-06
1.20298e-06
2.1606e-06
-3.67255e-07
2.14224e-06
-8.85487e-07
2.1135e-06
-1.05664e-06
2.12153e-06
5.71685e-09
2.12201e-06
1.19437e-07
2.13768e-06
3.90312e-07
2.14832e-06
4.67918e-07
2.15252e-06
7.34116e-08
2.14481e-06
-6.45716e-08
2.1415e-06
-9.82929e-08
2.13934e-06
-1.18817e-07
2.13589e-06
-8.00043e-08
2.1327e-06
-1.11535e-07
2.12611e-06
-7.87915e-08
2.11996e-06
-4.22315e-08
-3.31313e-08
2.10869e-06
2.24019e-06
-4.41924e-07
2.22634e-06
-4.64002e-07
2.23407e-06
2.26969e-07
2.27083e-06
1.16622e-06
2.26311e-06
-3.59538e-07
2.24462e-06
-8.67001e-07
2.21436e-06
-1.02637e-06
2.22179e-06
-1.71606e-09
2.22212e-06
1.19106e-07
2.23873e-06
3.73705e-07
2.25025e-06
4.56391e-07
2.25464e-06
6.90272e-08
2.24784e-06
-5.77729e-08
2.24348e-06
-9.39366e-08
2.24192e-06
-1.17257e-07
2.23778e-06
-7.58604e-08
2.23428e-06
-1.08038e-07
2.22814e-06
-7.26498e-08
2.22115e-06
-3.52382e-08
-2.34551e-08
2.21147e-06
2.34689e-06
-4.34942e-07
2.3334e-06
-4.50514e-07
2.34167e-06
2.18702e-07
2.37954e-06
1.12835e-06
2.37055e-06
-3.50543e-07
2.3518e-06
-8.48256e-07
2.32044e-06
-9.95007e-07
2.32789e-06
-9.16615e-09
2.32836e-06
1.18641e-07
2.34568e-06
3.56378e-07
2.35779e-06
4.4428e-07
2.36188e-06
6.49383e-08
2.35598e-06
-5.18708e-08
2.35051e-06
-8.84669e-08
2.34934e-06
-1.16091e-07
2.34474e-06
-7.12596e-08
2.34055e-06
-1.0385e-07
2.33511e-06
-6.72093e-08
2.32745e-06
-2.75728e-08
-1.50072e-08
2.319e-06
2.45881e-06
-4.27358e-07
2.44574e-06
-4.3744e-07
2.4543e-06
2.1014e-07
2.49323e-06
1.08943e-06
2.48313e-06
-3.40441e-07
2.46411e-06
-8.29236e-07
2.4319e-06
-9.628e-07
2.43962e-06
-1.68895e-08
2.44039e-06
1.17872e-07
2.45822e-06
3.38546e-07
2.47078e-06
4.31725e-07
2.47427e-06
6.14449e-08
2.46928e-06
-4.68841e-08
2.46278e-06
-8.19617e-08
2.46177e-06
-1.15079e-07
2.457e-06
-6.64948e-08
2.45182e-06
-9.86642e-08
2.4472e-06
-6.25973e-08
2.43914e-06
-1.95046e-08
-7.33521e-09
2.43146e-06
2.57619e-06
-4.19253e-07
2.56353e-06
-4.24776e-07
2.57213e-06
2.01536e-07
2.61205e-06
1.0495e-06
2.60106e-06
-3.29445e-07
2.58182e-06
-8.10001e-07
2.54893e-06
-9.29912e-07
2.55693e-06
-2.48833e-08
2.55808e-06
1.16722e-07
2.57619e-06
3.20433e-07
2.58916e-06
4.18751e-07
2.59191e-06
5.86962e-08
2.58785e-06
-4.28252e-08
2.58049e-06
-7.45994e-08
2.57939e-06
-1.13974e-07
2.57476e-06
-6.18713e-08
2.56842e-06
-9.23259e-08
2.56459e-06
-5.87648e-08
2.55648e-06
-1.13961e-08
6.11538e-12
2.54914e-06
2.69926e-06
-4.10682e-07
2.68699e-06
-4.12507e-07
2.69543e-06
1.93093e-07
2.73628e-06
1.00865e-06
2.72458e-06
-3.17743e-07
2.70521e-06
-7.9063e-07
2.67179e-06
-8.96488e-07
2.6799e-06
-3.2998e-08
2.68146e-06
1.15161e-07
2.69963e-06
3.02265e-07
2.71305e-06
4.0533e-07
2.71502e-06
5.67293e-08
2.71186e-06
-3.96694e-08
2.70388e-06
-6.66165e-08
2.70243e-06
-1.12524e-07
2.69822e-06
-5.76636e-08
2.69075e-06
-8.48551e-08
2.68746e-06
-5.54726e-08
2.67976e-06
-3.6948e-09
7.37718e-09
2.67239e-06
2.82826e-06
-4.01676e-07
2.81638e-06
-4.00621e-07
2.82454e-06
1.84932e-07
2.86624e-06
9.66951e-07
2.85397e-06
-3.05475e-07
2.83452e-06
-7.71178e-07
2.80071e-06
-8.62685e-07
2.80874e-06
-4.10296e-08
2.81074e-06
1.13166e-07
2.82876e-06
2.84241e-07
2.84266e-06
3.9143e-07
2.84389e-06
5.55066e-08
2.84156e-06
-3.73429e-08
2.83321e-06
-5.82666e-08
2.83117e-06
-1.10489e-07
2.82758e-06
-5.40652e-08
2.81914e-06
-7.64228e-08
2.81605e-06
-5.23777e-08
2.80919e-06
3.16612e-09
1.49664e-08
2.8016e-06
2.96347e-06
-3.92253e-07
2.95197e-06
-3.89114e-07
2.95978e-06
1.77114e-07
3.00223e-06
9.24505e-07
2.98951e-06
-2.92752e-07
2.96998e-06
-7.51655e-07
2.93598e-06
-8.28682e-07
2.94372e-06
-4.87724e-08
2.94618e-06
1.1071e-07
2.9639e-06
2.66517e-07
2.97829e-06
3.77041e-07
2.97885e-06
5.49458e-08
2.97724e-06
-3.57317e-08
2.96876e-06
-4.97815e-08
2.96594e-06
-1.07674e-07
2.96303e-06
-5.11483e-08
2.95391e-06
-6.73066e-08
2.95067e-06
-4.91358e-08
2.94498e-06
8.85342e-09
2.27865e-08
2.93716e-06
3.10518e-06
-3.82422e-07
3.09405e-06
-3.77991e-07
3.10152e-06
1.69648e-07
3.14459e-06
8.81428e-07
3.13152e-06
-2.79675e-07
3.11188e-06
-7.32021e-07
3.07787e-06
-7.9467e-07
3.08515e-06
-5.60478e-08
3.0881e-06
1.07761e-07
3.10542e-06
2.4919e-07
3.12028e-06
3.62189e-07
3.12028e-06
5.49459e-08
3.11924e-06
-3.46973e-08
3.11083e-06
-4.13653e-08
3.10709e-06
-1.03938e-07
3.10482e-06
-4.88793e-08
3.09534e-06
-5.78267e-08
3.09168e-06
-4.54728e-08
3.08733e-06
1.3204e-08
3.06742e-08
3.07944e-06
3.25368e-06
-3.72194e-07
3.24295e-06
-3.67255e-07
3.25008e-06
1.62517e-07
3.29364e-06
8.3786e-07
3.28032e-06
-2.66354e-07
3.26051e-06
-7.12205e-07
3.22668e-06
-7.60844e-07
3.23335e-06
-6.27164e-08
3.23681e-06
1.04303e-07
3.25369e-06
2.32308e-07
3.26895e-06
3.46932e-07
3.26849e-06
5.5398e-08
3.26789e-06
-3.40934e-08
3.25971e-06
-3.31902e-08
3.25497e-06
-9.91946e-08
3.25325e-06
-4.71554e-08
3.24371e-06
-4.82923e-08
3.23945e-06
-4.12103e-08
3.23642e-06
1.62318e-08
3.8336e-08
3.22876e-06
3.40932e-06
-3.61581e-07
3.39897e-06
-3.56907e-07
3.40581e-06
1.55678e-07
3.4497e-06
7.9397e-07
3.43626e-06
-2.52916e-07
3.41617e-06
-6.92115e-07
3.38271e-06
-7.27386e-07
3.38868e-06
-6.8684e-08
3.39264e-06
1.00348e-07
3.40907e-06
2.15877e-07
3.42465e-06
3.31353e-07
3.42384e-06
5.62077e-08
3.42353e-06
-3.37878e-08
3.41574e-06
-2.53949e-08
3.40995e-06
-9.34101e-08
3.40866e-06
-4.58614e-08
3.39932e-06
-3.89583e-08
3.39435e-06
-3.62392e-08
3.39252e-06
1.80666e-08
4.54183e-08
3.38544e-06
3.57243e-06
-3.50602e-07
3.56246e-06
-3.46938e-07
3.56908e-06
1.49065e-07
3.61309e-06
7.49957e-07
3.59968e-06
-2.39509e-07
3.57922e-06
-6.71656e-07
3.54629e-06
-6.94454e-07
3.55151e-06
-7.39042e-08
3.55592e-06
9.59379e-08
3.57192e-06
1.99882e-07
3.58773e-06
3.15542e-07
3.58664e-06
5.72983e-08
3.58652e-06
-3.36689e-08
3.57921e-06
-1.80891e-08
3.5724e-06
-8.66e-08
3.57142e-06
-4.48799e-08
3.56249e-06
-3.00254e-08
3.55677e-06
-3.05207e-08
3.55589e-06
1.89467e-08
5.15467e-08
3.54976e-06
3.74338e-06
-3.3928e-07
3.73378e-06
-3.37331e-07
3.74025e-06
1.42595e-07
3.78416e-06
7.06049e-07
3.77094e-06
-2.26298e-07
3.75003e-06
-6.50745e-07
3.71775e-06
-6.6217e-07
3.72222e-06
-7.83756e-08
3.72702e-06
9.11395e-08
3.7426e-06
1.84303e-07
3.75855e-06
2.99592e-07
3.75723e-06
5.8613e-08
3.75721e-06
-3.3645e-08
3.75048e-06
-1.13561e-08
3.7427e-06
-7.8824e-08
3.7419e-06
-4.40771e-08
3.73356e-06
-2.16922e-08
3.72708e-06
-2.40403e-08
3.72684e-06
1.91886e-08
5.63681e-08
3.72202e-06
3.92255e-06
-3.27646e-07
3.91328e-06
-3.28056e-07
3.91971e-06
1.3616e-07
3.96326e-06
6.62497e-07
3.95042e-06
-2.13449e-07
3.929e-06
-6.29326e-07
3.89744e-06
-6.30611e-07
3.9012e-06
-8.21407e-08
3.9063e-06
8.60384e-08
3.92148e-06
1.69125e-07
3.93749e-06
2.83579e-07
3.93598e-06
6.01281e-08
3.93598e-06
-3.36497e-08
3.92989e-06
-5.26272e-09
3.92123e-06
-7.01635e-08
3.92045e-06
-4.3299e-08
3.91294e-06
-1.41752e-08
3.90574e-06
-1.68438e-08
3.90572e-06
1.92066e-08
5.9596e-08
3.90249e-06
4.11034e-06
-3.15734e-07
4.10135e-06
-3.1907e-07
4.10787e-06
1.2964e-07
4.15081e-06
6.19562e-07
4.13847e-06
-2.01115e-07
4.11653e-06
-6.07385e-07
4.08574e-06
-5.99814e-07
4.08887e-06
-8.52694e-08
4.09418e-06
8.07196e-08
4.10895e-06
1.54357e-07
4.12497e-06
2.67561e-07
4.12326e-06
6.18369e-08
4.12324e-06
-3.36236e-08
4.11785e-06
1.22841e-10
4.10839e-06
-6.07058e-08
4.10745e-06
-4.23592e-08
4.10097e-06
-7.69137e-09
4.09319e-06
-9.06926e-09
4.09293e-06
1.94716e-08
6.10905e-08
4.09143e-06
4.30716e-06
-3.03587e-07
4.2984e-06
-3.10318e-07
4.30514e-06
1.22904e-07
4.34721e-06
5.77495e-07
4.33551e-06
-1.89416e-07
4.31308e-06
-5.84954e-07
4.28304e-06
-5.69781e-07
4.28562e-06
-8.78433e-08
4.29108e-06
7.52556e-08
4.30541e-06
1.40029e-07
4.32139e-06
2.51577e-07
4.31949e-06
6.37348e-08
4.31935e-06
-3.34811e-08
4.31477e-06
4.70311e-09
4.30462e-06
-5.05497e-08
4.30328e-06
-4.1028e-08
4.298e-06
-2.40938e-09
4.28992e-06
-9.84243e-10
4.28897e-06
2.04166e-08
6.09731e-08
4.28909e-06
4.51344e-06
-2.91252e-07
4.50485e-06
-3.01731e-07
4.51193e-06
1.15824e-07
4.55292e-06
5.3651e-07
4.54191e-06
-1.78413e-07
4.51908e-06
-5.6212e-07
4.48978e-06
-5.40477e-07
4.49187e-06
-8.9942e-08
4.49744e-06
6.96939e-08
4.51127e-06
1.26192e-07
4.52719e-06
2.35656e-07
4.52512e-06
6.58063e-08
4.52475e-06
-3.31128e-08
4.52108e-06
8.37497e-09
4.51037e-06
-3.98357e-08
4.5084e-06
-3.90628e-08
4.50438e-06
1.61493e-09
4.49635e-06
7.04345e-09
4.49445e-06
2.23167e-08
5.96742e-08
4.49575e-06
4.72964e-06
-2.78781e-07
4.72114e-06
-2.93226e-07
4.72869e-06
1.08276e-07
4.76843e-06
4.96767e-07
4.75812e-06
-1.68099e-07
4.73501e-06
-5.39017e-07
4.70638e-06
-5.11848e-07
4.70807e-06
-9.16235e-08
4.71371e-06
6.40471e-08
4.727e-06
1.12909e-07
4.74282e-06
2.19827e-07
4.74062e-06
6.80149e-08
4.73991e-06
-3.24046e-08
4.7372e-06
1.10827e-08
4.72615e-06
-2.87909e-08
4.72332e-06
-3.62323e-08
4.72047e-06
4.4736e-09
4.71291e-06
1.45971e-08
4.71e-06
2.52292e-08
5.78374e-08
4.71184e-06
4.95625e-06
-2.66229e-07
4.94773e-06
-2.84713e-07
4.95585e-06
1.00162e-07
4.99426e-06
4.58351e-07
4.98456e-06
-1.58392e-07
4.96135e-06
-5.15813e-07
4.93334e-06
-4.83832e-07
4.93463e-06
-9.292e-08
4.94038e-06
5.82971e-08
4.95306e-06
1.00235e-07
4.96875e-06
2.04135e-07
4.96646e-06
7.03028e-08
4.9653e-06
-3.12392e-08
4.96357e-06
1.28082e-08
4.95248e-06
-1.77045e-08
4.94861e-06
-3.23556e-08
4.94675e-06
6.33263e-09
4.93995e-06
2.14001e-08
4.93621e-06
2.89629e-08
5.61027e-08
4.93795e-06
5.19374e-06
-2.53654e-07
5.18513e-06
-2.761e-07
5.19386e-06
9.14263e-08
5.23096e-06
4.21256e-07
5.22171e-06
-1.49144e-07
5.19859e-06
-4.92694e-07
5.17117e-06
-4.56412e-07
5.17204e-06
-9.37824e-08
5.17793e-06
5.24007e-08
5.18996e-06
8.82023e-08
5.20546e-06
1.88639e-07
5.20316e-06
7.26028e-08
5.20144e-06
-2.95205e-08
5.20066e-06
1.3585e-08
5.18984e-06
-6.87913e-09
5.18484e-06
-2.73582e-08
5.18372e-06
7.45548e-09
5.17786e-06
2.7254e-08
5.1736e-06
3.32225e-08
5.49036e-08
5.1748e-06
5.44265e-06
-2.41113e-07
5.43385e-06
-2.67307e-07
5.44317e-06
8.21161e-08
5.47907e-06
3.85355e-07
5.4701e-06
-1.40175e-07
5.44724e-06
-4.69836e-07
5.42048e-06
-4.29657e-07
5.42079e-06
-9.40833e-08
5.42685e-06
4.63401e-08
5.43824e-06
7.68043e-08
5.45347e-06
1.73417e-07
5.45123e-06
7.48393e-08
5.44888e-06
-2.71731e-08
5.44899e-06
1.3481e-08
5.43869e-06
3.41643e-09
5.43259e-06
-2.12569e-08
5.43192e-06
8.12076e-09
5.42713e-06
3.20443e-08
5.42264e-06
3.77167e-08
5.43892e-08
5.42315e-06
5.7035e-06
-2.28658e-07
5.69448e-06
-2.58286e-07
5.70423e-06
7.23646e-08
5.73916e-06
3.5043e-07
5.73028e-06
-1.31296e-07
5.70781e-06
-4.4737e-07
5.68188e-06
-4.03721e-07
5.68144e-06
-9.3651e-08
5.68763e-06
4.01536e-08
5.69844e-06
6.59962e-08
5.7133e-06
1.58552e-07
5.71121e-06
7.69316e-08
5.70818e-06
-2.41377e-08
5.70906e-06
1.25957e-08
5.69956e-06
1.29202e-08
5.69243e-06
-1.41254e-08
5.69193e-06
8.61507e-09
5.68828e-06
3.56944e-08
5.68377e-06
4.22325e-08
5.45066e-08
5.68365e-06
5.97687e-06
-2.16333e-07
5.96764e-06
-2.49055e-07
5.97763e-06
6.23721e-08
6.01181e-06
3.16245e-07
6.00288e-06
-1.22364e-07
5.98081e-06
-4.25298e-07
5.95592e-06
-3.78832e-07
5.95463e-06
-9.23618e-08
5.96081e-06
3.39747e-08
5.97109e-06
5.57182e-08
5.98555e-06
1.44095e-07
5.98367e-06
7.88087e-08
5.9799e-06
-2.03633e-08
5.98143e-06
1.10571e-08
5.97299e-06
2.13609e-08
5.96493e-06
-6.06212e-09
5.96432e-06
9.22496e-09
5.96188e-06
3.81352e-08
5.95751e-06
4.66032e-08
5.5153e-08
5.95686e-06
6.26333e-06
-2.04175e-07
6.25396e-06
-2.39687e-07
6.26395e-06
5.23869e-08
6.29764e-06
2.82554e-07
6.28857e-06
-1.13298e-07
6.26671e-06
-4.03441e-07
6.24316e-06
-3.5528e-07
6.24101e-06
-9.02129e-08
6.24696e-06
2.80255e-08
6.25675e-06
4.59263e-08
6.27078e-06
1.3007e-07
6.2692e-06
8.03919e-08
6.26465e-06
-1.582e-08
6.26665e-06
9.05761e-09
6.25956e-06
2.84511e-08
6.25075e-06
2.75227e-09
6.24968e-06
1.02983e-08
6.2485e-06
3.93107e-08
6.24447e-06
5.06318e-08
5.62924e-08
6.24333e-06
6.56351e-06
-1.92213e-07
6.55411e-06
-2.30286e-07
6.56382e-06
4.2674e-08
6.59721e-06
2.49167e-07
6.58805e-06
-1.04138e-07
6.56614e-06
-3.8153e-07
6.54415e-06
-3.33293e-07
6.54126e-06
-8.7329e-08
6.54672e-06
2.25731e-08
6.55601e-06
3.66368e-08
6.56961e-06
1.16467e-07
6.56841e-06
8.15933e-08
6.56309e-06
-1.05066e-08
6.56534e-06
6.8157e-09
6.55981e-06
3.39725e-08
6.55056e-06
1.20107e-08
6.54867e-06
1.21856e-08
6.54868e-06
3.93024e-08
6.54529e-06
5.40211e-08
5.7913e-08
6.54367e-06
6.87804e-06
-1.80463e-07
6.86872e-06
-2.20965e-07
6.87792e-06
3.34745e-08
6.91095e-06
2.16138e-07
6.90204e-06
-9.52295e-08
6.87977e-06
-3.59259e-07
6.85943e-06
-3.1296e-07
6.85607e-06
-8.39658e-08
6.86077e-06
1.78746e-08
6.86947e-06
2.79405e-08
6.88265e-06
1.03285e-07
6.88194e-06
8.2302e-08
6.8759e-06
-4.4723e-09
6.8781e-06
4.61891e-09
6.87432e-06
3.77551e-08
6.86501e-06
2.1317e-08
6.86206e-06
1.51383e-08
6.86296e-06
3.84063e-08
6.86059e-06
5.63896e-08
5.99399e-08
6.85856e-06
7.20761e-06
-1.68939e-07
7.19844e-06
-2.11795e-07
7.20696e-06
2.4958e-08
7.23937e-06
1.83727e-07
7.23128e-06
-8.71391e-08
7.20839e-06
-3.36366e-07
7.18961e-06
-2.94182e-07
7.18608e-06
-8.04357e-08
7.18987e-06
1.40835e-08
7.1978e-06
2.00102e-08
7.21057e-06
9.05177e-08
7.21045e-06
8.24171e-08
7.20383e-06
2.15339e-09
7.20566e-06
2.78666e-09
7.20363e-06
3.97861e-08
7.19478e-06
3.01661e-08
7.19065e-06
1.92661e-08
7.19194e-06
3.71148e-08
7.19093e-06
5.74075e-08
6.21396e-08
7.18873e-06
7.55294e-06
-1.57648e-07
7.54392e-06
-2.02782e-07
7.55171e-06
1.71718e-08
7.58317e-06
1.52268e-07
7.5765e-06
-8.04676e-08
7.55284e-06
-3.12713e-07
7.53532e-06
-2.76659e-07
7.53195e-06
-7.70693e-08
7.53479e-06
1.12461e-08
7.54176e-06
1.30421e-08
7.55409e-06
7.81819e-08
7.55468e-06
8.18326e-08
7.54763e-06
9.20185e-09
7.54877e-06
1.64937e-09
7.54842e-06
4.01348e-08
7.54046e-06
3.81267e-08
7.53529e-06
2.4434e-08
7.53641e-06
3.59948e-08
7.53683e-06
5.69881e-08
6.41081e-08
7.53486e-06
7.91476e-06
-1.46593e-07
7.90592e-06
-1.93941e-07
7.91297e-06
1.01129e-08
7.94308e-06
1.22162e-07
7.93833e-06
-7.57221e-08
7.91402e-06
-2.88394e-07
7.89733e-06
-2.59972e-07
7.89436e-06
-7.41004e-08
7.8963e-06
9.30666e-09
7.90212e-06
7.22486e-09
7.91398e-06
6.63197e-08
7.91533e-06
8.04777e-08
7.90809e-06
1.64483e-08
7.90825e-06
1.4858e-09
7.90936e-06
3.90239e-08
7.9027e-06
4.47915e-08
7.89677e-06
3.03631e-08
7.89725e-06
3.55171e-08
7.89887e-06
5.53673e-08
6.53727e-08
7.8976e-06
8.29386e-06
-1.35775e-07
8.28542e-06
-1.85501e-07
8.29163e-06
3.90733e-09
8.31991e-06
9.38787e-08
8.31741e-06
-7.32164e-08
8.2928e-06
-2.63787e-07
8.27648e-06
-2.43651e-07
8.274e-06
-7.16192e-08
8.27521e-06
8.09198e-09
8.27972e-06
2.71882e-09
8.29099e-06
5.50482e-08
8.2932e-06
7.82683e-08
8.28599e-06
2.36555e-08
8.28499e-06
2.48656e-09
8.2872e-06
3.68167e-08
8.28218e-06
4.98125e-08
8.27587e-06
3.66657e-08
8.2754e-06
3.59921e-08
8.27777e-06
5.29946e-08
6.55671e-08
8.27758e-06
8.69108e-06
-1.25196e-07
8.68324e-06
-1.7766e-07
8.68855e-06
-1.40413e-09
8.7145e-06
6.7934e-08
8.7143e-06
-7.30139e-08
8.69005e-06
-2.39541e-07
8.67366e-06
-2.27265e-07
8.67163e-06
-6.95881e-08
8.67234e-06
7.38113e-09
8.67543e-06
-3.7048e-10
8.68596e-06
4.45206e-08
8.68907e-06
7.5158e-08
8.68217e-06
3.05518e-08
8.67994e-06
4.72386e-09
8.68275e-06
3.40074e-08
8.6796e-06
5.29631e-08
8.6734e-06
4.28658e-08
8.67183e-06
3.75576e-08
8.67442e-06
5.03997e-08
6.45399e-08
8.67545e-06
9.1073e-06
-1.14874e-07
9.10012e-06
-1.70482e-07
9.10466e-06
-5.94634e-09
9.12772e-06
4.48777e-08
9.12964e-06
-7.49404e-08
9.10657e-06
-2.16468e-07
9.08984e-06
-2.10529e-07
9.08811e-06
-6.78606e-08
9.08855e-06
6.94292e-09
9.0902e-06
-2.02047e-09
9.09976e-06
3.496e-08
9.10378e-06
7.11372e-08
9.09748e-06
3.6851e-08
9.0941e-06
8.09996e-09
9.09695e-06
3.11607e-08
9.09568e-06
5.42363e-08
9.09011e-06
4.84291e-08
9.08753e-06
4.01381e-08
9.08981e-06
4.81207e-08
6.23761e-08
9.09198e-06
9.54343e-06
-1.04843e-07
9.53688e-06
-1.63936e-07
9.54085e-06
-9.91825e-09
9.56056e-06
2.51768e-08
9.56428e-06
-7.86652e-08
9.54315e-06
-1.95342e-07
9.52603e-06
-1.93404e-07
9.5243e-06
-6.6133e-08
9.52469e-06
6.55557e-09
9.52502e-06
-2.35265e-09
9.53332e-06
2.66592e-08
9.53814e-06
6.63147e-08
9.53276e-06
4.22321e-08
9.52849e-06
1.23752e-08
9.53089e-06
2.87641e-08
9.53124e-06
5.38841e-08
9.52677e-06
5.2897e-08
9.52351e-06
4.33986e-08
9.52501e-06
4.66164e-08
5.94097e-08
9.52798e-06
1.00005e-05
-9.51643e-08
9.99439e-06
-1.57871e-07
9.99805e-06
-1.35793e-08
1.00142e-05
9.0542e-09
1.00191e-05
-8.36321e-08
1.00006e-05
-1.76779e-07
9.98326e-06
-1.76089e-07
9.9812e-06
-6.40737e-08
9.98167e-06
6.08716e-09
9.98094e-06
-1.62387e-09
9.98768e-06
1.99261e-08
9.99313e-06
6.08597e-08
9.98891e-06
4.64535e-08
9.98406e-06
1.72232e-08
9.9857e-06
2.71277e-08
9.98726e-06
5.23234e-08
9.98414e-06
5.60176e-08
9.98069e-06
4.68474e-08
9.9812e-06
4.61102e-08
5.61556e-08
9.98445e-06
1.04794e-05
-8.59301e-08
1.04736e-05
-1.52018e-07
1.04774e-05
-1.74006e-08
1.04899e-05
-3.46079e-09
1.04952e-05
-8.89447e-08
1.04796e-05
-1.61199e-07
1.04626e-05
-1.59064e-07
1.04598e-05
-6.13252e-08
1.04604e-05
5.50329e-09
1.0459e-05
-1.75419e-10
1.0464e-05
1.49218e-08
1.04698e-05
5.50387e-08
1.04669e-05
4.93994e-08
1.04618e-05
2.2307e-08
1.04625e-05
2.63952e-08
1.04648e-05
4.99923e-08
1.04631e-05
5.77507e-08
1.04599e-05
5.00419e-08
1.04595e-05
4.64804e-08
5.31668e-08
1.04625e-05
1.09813e-05
-7.72484e-08
1.09754e-05
-1.46045e-07
1.09798e-05
-2.18614e-08
1.0989e-05
-1.26038e-08
1.09935e-05
-9.34879e-08
1.09811e-05
-1.48829e-07
1.0965e-05
-1.42935e-07
1.09614e-05
-5.77087e-08
1.0962e-05
4.92682e-09
1.09601e-05
1.67448e-09
1.09635e-05
1.15588e-08
1.09693e-05
4.92207e-08
1.09676e-05
5.10864e-08
1.09627e-05
2.72733e-08
1.09625e-05
2.65867e-08
1.09651e-05
4.73191e-08
1.09647e-05
5.81585e-08
1.09621e-05
5.26968e-08
1.09612e-05
4.73859e-08
5.08221e-08
1.09635e-05
1.15073e-05
-6.92225e-08
1.15009e-05
-1.39645e-07
1.15062e-05
-2.71291e-08
1.15126e-05
-1.90233e-08
1.15154e-05
-9.62816e-08
1.1506e-05
-1.39439e-07
1.14915e-05
-1.28363e-07
1.1487e-05
-5.32858e-08
1.14874e-05
4.55672e-09
1.14854e-05
3.69964e-09
1.14873e-05
9.61273e-09
1.14928e-05
4.3758e-08
1.14923e-05
5.16194e-08
1.14877e-05
3.1835e-08
1.14867e-05
2.7582e-08
1.14893e-05
4.47036e-08
1.14901e-05
5.73887e-08
1.14882e-05
5.46162e-08
1.1487e-05
4.85057e-08
4.91803e-08
1.14887e-05
1.20585e-05
-6.19323e-08
1.20515e-05
-1.32632e-07
1.20574e-05
-3.30537e-08
1.2062e-05
-2.35379e-08
1.20624e-05
-9.67739e-08
1.20553e-05
-1.32259e-07
1.20428e-05
-1.15925e-07
1.20379e-05
-4.83825e-08
1.20379e-05
4.60001e-09
1.20358e-05
5.76251e-09
1.20366e-05
8.81751e-09
1.20415e-05
3.88893e-08
1.20419e-05
5.11714e-08
1.2038e-05
3.57954e-08
1.20364e-05
2.91691e-08
1.20387e-05
4.24369e-08
1.20403e-05
5.57153e-08
1.20393e-05
5.5637e-08
1.20382e-05
4.96244e-08
4.80834e-08
1.20393e-05
1.26361e-05
-5.54196e-08
1.26285e-05
-1.25014e-07
1.26346e-05
-3.92163e-08
1.26381e-05
-2.70206e-08
1.26362e-05
-9.48773e-08
1.263e-05
-1.26093e-07
1.26201e-05
-1.0597e-07
1.26153e-05
-4.35745e-08
1.26147e-05
5.18106e-09
1.26126e-05
7.84117e-09
1.26125e-05
8.91076e-09
1.26167e-05
3.47568e-08
1.26179e-05
4.99383e-08
1.26147e-05
3.90364e-08
1.26127e-05
3.1125e-08
1.26145e-05
4.06483e-08
1.26167e-05
5.34936e-08
1.26167e-05
5.56879e-08
1.26157e-05
5.05589e-08
4.73654e-08
1.26164e-05
1.32412e-05
-4.96944e-08
1.32331e-05
-1.16922e-07
1.3239e-05
-4.51295e-08
1.32421e-05
-3.00904e-08
1.32382e-05
-9.09386e-08
1.32318e-05
-1.19769e-07
1.32243e-05
-9.84132e-08
1.32201e-05
-3.94224e-08
1.32192e-05
6.14596e-09
1.3217e-05
9.96857e-09
1.32163e-05
9.65936e-09
1.32196e-05
3.14281e-08
1.32214e-05
4.81486e-08
1.3219e-05
4.14752e-08
1.32168e-05
3.3243e-08
1.32181e-05
3.93699e-08
1.32206e-05
5.10162e-08
1.32214e-05
5.48653e-08
1.32209e-05
5.11186e-08
4.69062e-08
1.32213e-05
1.38752e-05
-4.47404e-08
1.38668e-05
-1.08477e-07
1.38721e-05
-5.04761e-08
1.3875e-05
-3.29803e-08
1.38697e-05
-8.56693e-08
1.38625e-05
-1.12543e-07
1.38565e-05
-9.24226e-08
1.38535e-05
-3.64427e-08
1.38526e-05
7.10459e-09
1.38504e-05
1.21451e-08
1.38492e-05
1.08995e-08
1.38517e-05
2.88772e-08
1.38538e-05
4.60548e-08
1.38522e-05
4.30934e-08
1.38501e-05
3.53057e-08
1.38509e-05
3.85863e-08
1.38534e-05
4.85111e-08
1.38549e-05
5.3337e-08
1.38549e-05
5.11704e-08
4.6596e-08
1.38552e-05
1.45394e-05
-4.05091e-08
1.45308e-05
-9.98093e-08
1.45353e-05
-5.50099e-08
1.45381e-05
-3.57731e-08
1.45322e-05
-7.97532e-08
1.4524e-05
-1.04326e-07
1.45184e-05
-8.68362e-08
1.45167e-05
-3.48132e-08
1.45162e-05
7.66813e-09
1.45141e-05
1.422e-08
1.45125e-05
1.24979e-08
1.45143e-05
2.70506e-08
1.45166e-05
4.38355e-08
1.45157e-05
4.39789e-08
1.45139e-05
3.71175e-08
1.45142e-05
3.81953e-08
1.45166e-05
4.62049e-08
1.45186e-05
5.12571e-08
1.45192e-05
5.06512e-08
4.63401e-08
1.45194e-05
1.52353e-05
-3.69188e-08
1.52266e-05
-9.11073e-08
1.523e-05
-5.84555e-08
1.52328e-05
-3.85415e-08
1.52267e-05
-7.36457e-08
1.52179e-05
-9.5515e-08
1.52121e-05
-8.10148e-08
1.52112e-05
-3.3948e-08
1.52113e-05
7.54082e-09
1.52095e-05
1.60134e-08
1.52077e-05
1.42909e-08
1.52089e-05
2.58813e-08
1.52111e-05
4.16347e-08
1.52109e-05
4.42065e-08
1.52094e-05
3.86077e-08
1.52096e-05
3.80211e-08
1.52115e-05
4.4245e-08
1.52139e-05
4.88528e-08
1.52151e-05
4.94761e-08
4.60454e-08
1.52154e-05
1.59643e-05
-3.38672e-08
1.59558e-05
-8.26292e-08
1.59579e-05
-6.05684e-08
1.59606e-05
-4.12323e-08
1.59547e-05
-6.76946e-08
1.59456e-05
-8.64805e-08
1.59394e-05
-7.48133e-08
1.59387e-05
-3.32232e-08
1.59395e-05
6.74294e-09
1.59381e-05
1.74227e-08
1.59363e-05
1.60759e-08
1.5937e-05
2.52156e-08
1.5939e-05
3.95951e-08
1.59393e-05
4.38654e-08
1.59382e-05
3.97224e-08
1.59383e-05
3.79376e-08
1.594e-05
4.26021e-08
1.59423e-05
4.64676e-08
1.59442e-05
4.76207e-08
4.55374e-08
1.59447e-05
1.6728e-05
-3.12434e-08
1.672e-05
-7.46053e-08
1.67206e-05
-6.12605e-08
1.67231e-05
-4.36446e-08
1.67175e-05
-6.21632e-08
1.67086e-05
-7.75159e-08
1.67021e-05
-6.83039e-08
1.67011e-05
-3.22528e-08
1.67023e-05
5.55512e-09
1.67014e-05
1.83303e-08
1.66997e-05
1.77633e-08
1.67e-05
2.4883e-08
1.67019e-05
3.77373e-08
1.67026e-05
4.30997e-08
1.67019e-05
4.04397e-08
1.6702e-05
3.78612e-08
1.67035e-05
4.11344e-08
1.67056e-05
4.43475e-08
1.67079e-05
4.52982e-08
4.45512e-08
1.67089e-05
1.75281e-05
-2.89456e-08
1.75206e-05
-6.7145e-08
1.752e-05
-6.06428e-08
1.75219e-05
-4.55191e-08
1.75169e-05
-5.72121e-08
1.75083e-05
-6.88876e-08
1.75016e-05
-6.16061e-08
1.75002e-05
-3.08521e-08
1.75015e-05
4.27511e-09
1.7501e-05
1.87483e-08
1.74995e-05
1.92795e-08
1.74996e-05
2.47792e-08
1.75013e-05
3.60222e-08
1.75024e-05
4.20004e-08
1.75021e-05
4.077e-08
1.75022e-05
3.77779e-08
1.75036e-05
3.97139e-08
1.75055e-05
4.2474e-08
1.75079e-05
4.29115e-08
4.29187e-08
1.75095e-05
1.83663e-05
-2.68824e-08
1.83594e-05
-6.02865e-08
1.83577e-05
-5.89159e-08
1.83588e-05
-4.66686e-08
1.83545e-05
-5.28465e-08
1.83464e-05
-6.08272e-08
1.83397e-05
-5.48628e-08
1.83378e-05
-2.89606e-08
1.83389e-05
3.11912e-09
1.83389e-05
1.87957e-08
1.83376e-05
2.05582e-08
1.83375e-05
2.48498e-08
1.83391e-05
3.44673e-08
1.83405e-05
4.0584e-08
1.83406e-05
4.07052e-08
1.83407e-05
3.76895e-08
1.83421e-05
3.83219e-08
1.83438e-05