/*--------------------------------*- C++ -*----------------------------------*\
| =========                 |                                                 |
| \\      /  F ield         | OpenFOAM: The Open Source CFD Toolbox           |
|  \\    /   O peration     | Version:  v1912                                 |
|   \\  /    A nd           | Website:  www.openfoam.com                      |
|    \\/     M anipulation  |                                                 |
\*---------------------------------------------------------------------------*/
FoamFile
{
    version     2.0;
    format      ascii;
    class       surfaceScalarField;
    location    "6.85";
    object      phi;
}
// * * * * * * * * * * * * * * * * * * * * * * * * * * * * * * * * * * * * * //

dimensions      [0 3 -1 0 0 0 0];
oriented        oriented;


internalField   nonuniform List<scalar> 
19000
(
1.22214e-06
-6.86356e-07
1.26135e-06
1.3342e-06
1.11585e-06
-2.17574e-07
1.05219e-06
-1.06333e-06
1.25259e-06
7.97232e-07
1.14625e-06
1.91466e-06
1.12975e-06
4.06426e-07
1.19278e-06
8.30321e-07
1.15133e-06
-4.99673e-07
1.20438e-06
1.88061e-07
1.18994e-06
6.63236e-08
1.17548e-06
7.02805e-07
1.17401e-06
5.38193e-07
1.15253e-06
2.7595e-07
1.18021e-06
3.24611e-07
1.16056e-06
1.99453e-09
1.17878e-06
2.02885e-07
1.16911e-06
3.8043e-07
1.15472e-06
3.06002e-07
4.42982e-07
1.15687e-06
1.28219e-06
-7.44283e-07
1.33214e-06
1.28425e-06
1.18855e-06
-7.39828e-08
1.11166e-06
-9.86443e-07
1.31821e-06
5.90688e-07
1.20977e-06
2.0231e-06
1.19182e-06
4.2437e-07
1.26847e-06
7.53668e-07
1.22962e-06
-4.60824e-07
1.27348e-06
1.44209e-07
1.25546e-06
8.43383e-08
1.24383e-06
7.14439e-07
1.23484e-06
5.47177e-07
1.22071e-06
2.90087e-07
1.23965e-06
3.05664e-07
1.23052e-06
1.11236e-08
1.22699e-06
2.06419e-07
1.24748e-06
3.59941e-07
1.19516e-06
3.58323e-07
3.98466e-07
1.23967e-06
1.34287e-06
-8.0437e-07
1.40902e-06
1.2181e-06
1.27042e-06
6.46172e-08
1.17363e-06
-8.89655e-07
1.37898e-06
3.85338e-07
1.29954e-06
2.10254e-06
1.26499e-06
4.58924e-07
1.35834e-06
6.60317e-07
1.31769e-06
-4.20176e-07
1.35592e-06
1.05981e-07
1.32881e-06
1.11447e-07
1.32591e-06
7.17345e-07
1.30409e-06
5.68997e-07
1.30046e-06
2.93718e-07
1.30722e-06
2.98899e-07
1.31021e-06
8.13578e-09
1.29218e-06
2.24449e-07
1.31064e-06
3.41481e-07
1.27132e-06
3.97645e-07
3.95974e-07
1.27381e-06
1.40452e-06
-8.64785e-07
1.48899e-06
1.13363e-06
1.35739e-06
1.96215e-07
1.2395e-06
-7.71768e-07
1.44036e-06
1.84475e-07
1.40974e-06
2.13317e-06
1.3498e-06
5.18868e-07
1.44917e-06
5.60938e-07
1.40624e-06
-3.77241e-07
1.43646e-06
7.57604e-08
1.40529e-06
1.42616e-07
1.40701e-06
7.15628e-07
1.37994e-06
5.96064e-07
1.37737e-06
2.96292e-07
1.37847e-06
2.97796e-07
1.38356e-06
3.04958e-09
1.36875e-06
2.39252e-07
1.37432e-06
3.35911e-07
1.3546e-06
4.17364e-07
4.09775e-07
1.3408e-06
1.46589e-06
-9.22321e-07
1.56766e-06
1.03186e-06
1.44445e-06
3.1943e-07
1.31113e-06
-6.38454e-07
1.50261e-06
-7.00369e-09
1.52878e-06
2.10699e-06
1.44265e-06
6.05006e-07
1.52895e-06
4.74637e-07
1.4868e-06
-3.35094e-07
1.50484e-06
5.77206e-08
1.47885e-06
1.68609e-07
1.48169e-06
7.12784e-07
1.45759e-06
6.20164e-07
1.45038e-06
3.03506e-07
1.44773e-06
3.0044e-07
1.44981e-06
9.75317e-10
1.44313e-06
2.45926e-07
1.44274e-06
3.36307e-07
1.43353e-06
4.26566e-07
4.24569e-07
1.41874e-06
1.52605e-06
-9.72695e-07
1.63942e-06
9.18484e-07
1.52703e-06
4.31824e-07
1.39067e-06
-5.02095e-07
1.56584e-06
-1.82175e-07
1.63905e-06
2.03379e-06
1.53839e-06
7.05662e-07
1.59517e-06
4.17853e-07
1.55634e-06
-2.96262e-07
1.56135e-06
5.27128e-08
1.54596e-06
1.84001e-07
1.55154e-06
7.07206e-07
1.53399e-06
6.37708e-07
1.52228e-06
3.15224e-07
1.51481e-06
3.07903e-07
1.5122e-06
3.58765e-09
1.51079e-06
2.47341e-07
1.51018e-06
3.36915e-07
1.50738e-06
4.29366e-07
4.36904e-07
1.49504e-06
1.58514e-06
-1.01161e-06
1.70037e-06
8.03255e-07
1.60318e-06
5.29006e-07
1.47765e-06
-3.76561e-07
1.6287e-06
-3.33225e-07
1.72791e-06
1.93458e-06
1.63124e-06
8.02331e-07
1.65334e-06
3.95752e-07
1.61674e-06
-2.5966e-07
1.61229e-06
5.71607e-08
1.60737e-06
1.88927e-07
1.61901e-06
6.95558e-07
1.60858e-06
6.48137e-07
1.59461e-06
3.29198e-07
1.58196e-06
3.20548e-07
1.574e-06
1.15492e-08
1.57414e-06
2.47199e-07
1.57472e-06
3.36336e-07
1.57742e-06
4.26665e-07
4.45674e-07
1.56865e-06
1.64479e-06
-1.03628e-06
1.75093e-06
6.97112e-07
1.67454e-06
6.05399e-07
1.56936e-06
-2.71385e-07
1.68915e-06
-4.53015e-07
1.79396e-06
1.82977e-06
1.71673e-06
8.79556e-07
1.71017e-06
4.02316e-07
1.67296e-06
-2.22455e-07
1.66414e-06
6.59815e-08
1.66695e-06
1.8612e-07
1.68587e-06
6.76641e-07
1.68166e-06
6.52341e-07
1.66747e-06
3.43385e-07
1.65075e-06
3.37278e-07
1.63752e-06
2.47718e-08
1.63717e-06
2.47553e-07
1.63834e-06
3.35161e-07
1.64605e-06
4.18961e-07
4.50053e-07
1.64167e-06
1.70774e-06
-1.04645e-06
1.79604e-06
6.0882e-07
1.74469e-06
6.56744e-07
1.66307e-06
-1.89766e-07
1.74693e-06
-5.36873e-07
1.84456e-06
1.73214e-06
1.79357e-06
9.30546e-07
1.77044e-06
4.25448e-07
1.73152e-06
-1.83537e-07
1.72164e-06
7.58678e-08
1.72863e-06
1.79124e-07
1.75302e-06
6.52253e-07
1.75338e-06
6.51978e-07
1.74054e-06
3.56233e-07
1.72193e-06
3.5588e-07
1.70449e-06
4.22181e-08
1.70323e-06
2.48807e-07
1.70404e-06
3.3435e-07
1.71561e-06
4.074e-07
4.49957e-07
1.7157e-06
1.7767e-06
-1.04443e-06
1.84283e-06
5.42694e-07
1.8168e-06
6.82775e-07
1.75731e-06
-1.30273e-07
1.80509e-06
-5.84661e-07
1.89056e-06
1.64668e-06
1.86423e-06
9.56878e-07
1.83687e-06
4.52801e-07
1.79801e-06
-1.44669e-07
1.78778e-06
8.6098e-08
1.79483e-06
1.72069e-07
1.821e-06
6.26085e-07
1.82433e-06
6.48648e-07
1.81421e-06
3.66353e-07
1.79653e-06
3.73555e-07
1.7766e-06
6.21494e-08
1.77469e-06
2.50725e-07
1.77418e-06
3.34852e-07
1.78765e-06
3.93936e-07
4.46311e-07
1.79129e-06
1.85324e-06
-1.03392e-06
1.89771e-06
4.98228e-07
1.89268e-06
6.87809e-07
1.85184e-06
-8.94334e-08
1.86872e-06
-6.01549e-07
1.94186e-06
1.57354e-06
1.93372e-06
9.65014e-07
1.91059e-06
4.75931e-07
1.87474e-06
-1.08817e-07
1.8637e-06
9.71429e-08
1.86703e-06
1.68738e-07
1.89117e-06
6.01939e-07
1.89646e-06
6.43363e-07
1.89019e-06
3.72617e-07
1.87599e-06
3.87758e-07
1.85539e-06
8.27477e-08
1.85294e-06
2.53182e-07
1.85031e-06
3.37482e-07
1.86351e-06
3.80731e-07
4.4053e-07
1.86929e-06
1.93748e-06
-1.01856e-06
1.96432e-06
4.71391e-07
1.97329e-06
6.78837e-07
1.94722e-06
-6.33687e-08
1.94195e-06
-5.96281e-07
2.00477e-06
1.51072e-06
2.00734e-06
9.62448e-07
1.99172e-06
4.9155e-07
1.9608e-06
-7.78978e-08
1.94878e-06
1.09165e-07
1.94652e-06
1.70998e-07
1.96637e-06
5.82084e-07
1.97306e-06
6.36678e-07
1.97101e-06
3.74669e-07
1.96165e-06
3.97118e-07
1.94168e-06
1.02716e-07
1.93874e-06
2.56124e-07
1.93365e-06
3.42572e-07
1.94507e-06
3.6931e-07
4.33682e-07
1.95192e-06
2.02857e-06
-1.00094e-06
2.04325e-06
4.56711e-07
2.05932e-06
6.62773e-07
2.04437e-06
-4.84237e-08
2.02611e-06
-5.78023e-07
2.08124e-06
1.45559e-06
2.08857e-06
9.55117e-07
2.07988e-06
5.00248e-07
2.05392e-06
-5.19449e-08
2.04144e-06
1.2165e-07
2.03417e-06
1.78265e-07
2.04966e-06
5.66598e-07
2.05735e-06
6.28987e-07
2.05885e-06
3.73164e-07
2.05423e-06
4.01738e-07
2.03541e-06
1.21545e-07
2.0323e-06
2.59226e-07
2.02521e-06
3.49668e-07
2.03434e-06
3.60176e-07
4.26082e-07
2.04194e-06
2.12551e-06
-9.82456e-07
2.13319e-06
4.49034e-07
2.15132e-06
6.4464e-07
2.14422e-06
-4.13182e-08
2.12001e-06
-5.53819e-07
2.16998e-06
1.40562e-06
2.17855e-06
9.46553e-07
2.17456e-06
5.04235e-07
2.15237e-06
-2.97537e-08
2.14016e-06
1.33857e-07
2.12995e-06
1.88477e-07
2.14255e-06
5.53996e-07
2.15094e-06
6.20601e-07
2.15472e-06
3.69377e-07
2.15377e-06
4.02691e-07
2.13596e-06
1.39358e-07
2.13331e-06
2.61873e-07
2.1253e-06
3.57683e-07
2.13236e-06
3.53115e-07
4.17503e-07
2.14094e-06
2.22762e-06
-9.63591e-07
2.23227e-06
4.44391e-07
2.24971e-06
6.27198e-07
2.24758e-06
-3.91891e-08
2.22147e-06
-5.27711e-07
2.26836e-06
1.35873e-06
2.27671e-06
9.38202e-07
2.27535e-06
5.05596e-07
2.25553e-06
-9.92688e-09
2.24407e-06
1.4531e-07
2.233e-06
1.9955e-07
2.24454e-06
5.42454e-07
2.25341e-06
6.11729e-07
2.25822e-06
3.64573e-07
2.25971e-06
4.01204e-07
2.24254e-06
1.56522e-07
2.24094e-06
2.63475e-07
2.23327e-06
3.65355e-07
2.23866e-06
3.47724e-07
4.07647e-07
2.24851e-06
2.33466e-06
-9.44375e-07
2.33894e-06
4.40107e-07
2.35468e-06
6.11465e-07
2.35517e-06
-3.96862e-08
2.32865e-06
-5.01191e-07
2.37392e-06
1.31346e-06
2.38196e-06
9.30169e-07
2.38198e-06
5.05569e-07
2.36354e-06
8.51687e-09
2.35291e-06
1.55942e-07
2.34226e-06
2.10199e-07
2.35399e-06
5.30722e-07
2.36322e-06
6.02504e-07
2.36815e-06
3.59637e-07
2.3712e-06
3.98159e-07
2.35439e-06
1.73324e-07
2.3541e-06
2.63766e-07
2.34779e-06
3.71665e-07
2.3518e-06
3.4372e-07
3.9646e-07
2.36298e-06
2.44668e-06
-9.24663e-07
2.45221e-06
4.34582e-07
2.46622e-06
5.97457e-07
2.46762e-06
-4.10927e-08
2.44066e-06
-4.74229e-07
2.48508e-06
1.26904e-06
2.49332e-06
9.2193e-07
2.49431e-06
5.04576e-07
2.4768e-06
2.60248e-08
2.46679e-06
1.65955e-07
2.45699e-06
2.19992e-07
2.46935e-06
5.18364e-07
2.47878e-06
5.93073e-07
2.48335e-06
3.55073e-07
2.48746e-06
3.94045e-07
2.47091e-06
1.89872e-07
2.47179e-06
2.62893e-07
2.46744e-06
3.76015e-07
2.47023e-06
3.40931e-07
3.84149e-07
2.48254e-06
2.5639e-06
-9.04265e-07
2.57147e-06
4.27013e-07
2.58418e-06
5.84746e-07
2.58544e-06
-4.23507e-08
2.55743e-06
-4.46229e-07
2.60119e-06
1.22529e-06
2.61023e-06
9.12887e-07
2.61224e-06
5.02565e-07
2.59567e-06
4.25959e-08
2.58605e-06
1.75576e-07
2.57701e-06
2.2903e-07
2.58982e-06
5.05549e-07
2.59925e-06
5.83651e-07
2.60316e-06
3.51155e-07
2.60807e-06
3.89136e-07
2.59183e-06
2.06119e-07
2.5934e-06
2.61322e-07
2.59123e-06
3.78185e-07
2.59295e-06
3.39209e-07
3.71049e-07
2.60605e-06
2.68655e-06
-8.82987e-07
2.69646e-06
4.17106e-07
2.70843e-06
5.72776e-07
2.70899e-06
-4.29148e-08
2.67941e-06
-4.16649e-07
2.72236e-06
1.18234e-06
2.73258e-06
9.0267e-07
2.73576e-06
4.99383e-07
2.72042e-06
5.79322e-08
2.7111e-06
1.84901e-07
2.70249e-06
2.37638e-07
2.71532e-06
4.92722e-07
2.72446e-06
5.74507e-07
2.72756e-06
3.48061e-07
2.73306e-06
3.83631e-07
2.71724e-06
2.21939e-07
2.71895e-06
2.5961e-07
2.71893e-06
3.78206e-07
2.71981e-06
3.38334e-07
3.57552e-07
2.73331e-06
2.81492e-06
-8.6064e-07
2.82721e-06
4.04815e-07
2.83895e-06
5.61036e-07
2.83855e-06
-4.25107e-08
2.80716e-06
-3.85263e-07
2.84913e-06
1.14038e-06
2.86065e-06
8.91154e-07
2.865e-06
4.95024e-07
2.85128e-06
7.16547e-08
2.8423e-06
1.93885e-07
2.83374e-06
2.46196e-07
2.84615e-06
4.80315e-07
2.85478e-06
5.65877e-07
2.85691e-06
3.45925e-07
2.86284e-06
3.77703e-07
2.84762e-06
2.37163e-07
2.84902e-06
2.58206e-07
2.85101e-06
3.76217e-07
2.85132e-06
3.38026e-07
3.4405e-07
2.86482e-06
2.94933e-06
-8.37079e-07
2.96396e-06
3.90186e-07
2.97586e-06
5.49142e-07
2.97429e-06
-4.09477e-08
2.9412e-06
-3.52164e-07
2.98213e-06
1.09944e-06
2.99496e-06
8.78321e-07
3.00028e-06
4.89704e-07
2.98842e-06
8.3521e-08
2.97986e-06
2.02439e-07
2.97099e-06
2.55069e-07
2.98272e-06
4.68585e-07
2.99072e-06
5.57876e-07
2.99182e-06
3.44824e-07
2.99802e-06
3.71503e-07
2.98357e-06
2.5162e-07
2.9844e-06
2.57369e-07
2.98822e-06
3.72401e-07
2.98824e-06
3.38011e-07
3.30929e-07
3.00136e-06
3.09018e-06
-8.12248e-07
3.10704e-06
3.73323e-07
3.11931e-06
5.36874e-07
3.11642e-06
-3.80596e-08
3.08195e-06
-3.17693e-07
3.12191e-06
1.05948e-06
3.13609e-06
8.64143e-07
3.14201e-06
4.83779e-07
3.13199e-06
9.35366e-08
3.12392e-06
2.10511e-07
3.11443e-06
2.64565e-07
3.12545e-06
4.57559e-07
3.13288e-06
5.50447e-07
3.13292e-06
3.44788e-07
3.1393e-06
3.65121e-07
3.12573e-06
2.65183e-07
3.12589e-06
2.57212e-07
3.13136e-06
3.66933e-07
3.1313e-06
3.38065e-07
3.18605e-07
3.14363e-06
3.23786e-06
-7.86201e-07
3.25678e-06
3.54407e-07
3.26948e-06
5.24175e-07
3.26514e-06
-3.37254e-08
3.22982e-06
-2.8237e-07
3.26892e-06
1.02039e-06
3.28448e-06
8.48583e-07
3.29063e-06
4.77631e-07
3.28221e-06
1.01951e-07
3.27463e-06
2.18089e-07
3.2643e-06
2.74898e-07
3.27477e-06
4.47093e-07
3.2818e-06
5.4341e-07
3.28077e-06
3.45824e-07
3.28728e-06
3.58606e-07
3.27471e-06
2.77755e-07
3.27413e-06
2.57798e-07
3.28107e-06
3.59992e-07
3.28117e-06
3.37963e-07
3.07545e-07
3.29223e-06
3.39281e-06
-7.5908e-07
3.41353e-06
3.3369e-07
3.4266e-06
5.11098e-07
3.42076e-06
-2.78857e-08
3.38523e-06
-2.4684e-07
3.42355e-06
9.82074e-07
3.44049e-06
8.31635e-07
3.44654e-06
4.71586e-07
3.4393e-06
1.09191e-07
3.43222e-06
2.25169e-07
3.42099e-06
2.86132e-07
3.43113e-06
4.36948e-07
3.43803e-06
5.36507e-07
3.4359e-06
3.47963e-07
3.44253e-06
3.51976e-07
3.43105e-06
2.89233e-07
3.42962e-06
2.59229e-07
3.4379e-06
3.51712e-07
3.43841e-06
3.37454e-07
2.98186e-07
3.44776e-06
3.5554e-06
-7.31071e-07
3.57761e-06
3.11486e-07
3.591e-06
4.97707e-07
3.58364e-06
-2.05327e-08
3.54857e-06
-2.11769e-07
3.58615e-06
9.445e-07
3.60442e-06
8.13361e-07
3.61013e-06
4.65876e-07
3.60354e-06
1.15783e-07
3.59696e-06
2.31746e-07
3.58492e-06
2.98171e-07
3.59499e-06
4.26875e-07
3.60207e-06
5.29431e-07
3.59878e-06
3.51252e-07
3.60548e-06
3.45279e-07
3.59526e-06
2.9945e-07
3.59282e-06
2.61671e-07
3.60229e-06
3.42242e-07
3.60356e-06
3.36189e-07
2.9086e-07
3.61088e-06
3.72601e-06
-7.0237e-07
3.74932e-06
2.88173e-07
3.76304e-06
4.8399e-07
3.75421e-06
-1.17043e-08
3.72017e-06
-1.77729e-07
3.75705e-06
9.0762e-07
3.77651e-06
7.93902e-07
3.78174e-06
4.60645e-07
3.77526e-06
1.22262e-07
3.76918e-06
2.37829e-07
3.75655e-06
3.10794e-07
3.76674e-06
4.16683e-07
3.77435e-06
5.21825e-07
3.76989e-06
3.55717e-07
3.77657e-06
3.38593e-07
3.76783e-06
3.0819e-07
3.76423e-06
2.65275e-07
3.77458e-06
3.31889e-07
3.77705e-06
3.33716e-07
2.85653e-07
3.78226e-06
3.90499e-06
-6.73173e-07
3.92895e-06
2.6421e-07
3.94314e-06
4.69807e-07
3.93294e-06
-1.5059e-09
3.90032e-06
-1.45114e-07
3.93658e-06
8.71365e-07
3.957e-06
7.7348e-07
3.96167e-06
4.55975e-07
3.95486e-06
1.29072e-07
3.94924e-06
2.43449e-07
3.93632e-06
3.23717e-07
3.9467e-06
4.06305e-07
3.95524e-06
5.13281e-07
3.94966e-06
3.61292e-07
3.95619e-06
3.32065e-07
3.94919e-06
3.1519e-07
3.94439e-06
2.70081e-07
3.95507e-06
3.21204e-07
3.9592e-06
3.2959e-07
2.82297e-07
3.96255e-06
4.09275e-06
-6.4367e-07
4.11681e-06
2.40145e-07
4.13169e-06
4.54925e-07
4.12033e-06
9.85362e-09
4.08934e-06
-1.14122e-07
4.12506e-06
8.35642e-07
4.14616e-06
7.52384e-07
4.15021e-06
4.51925e-07
4.14279e-06
1.36494e-07
4.1376e-06
2.48639e-07
4.12467e-06
3.36646e-07
4.13514e-06
3.95834e-07
4.14502e-06
5.03403e-07
4.13853e-06
3.67779e-07
4.14468e-06
3.25922e-07
4.13969e-06
3.20175e-07
4.13386e-06
2.75913e-07
4.14409e-06
3.10977e-07
4.15018e-06
3.23497e-07
2.8017e-07
4.15231e-06
4.28969e-06
-6.1406e-07
4.31325e-06
2.16591e-07
4.32909e-06
4.39083e-07
4.3169e-06
2.20439e-08
4.28756e-06
-8.47878e-08
4.32284e-06
8.00367e-07
4.34429e-06
7.30931e-07
4.34766e-06
4.48558e-07
4.33954e-06
1.44614e-07
4.33477e-06
2.53409e-07
4.3221e-06
3.49317e-07
4.33242e-06
3.85509e-07
4.34395e-06
4.91879e-07
4.33688e-06
3.74846e-07
4.34233e-06
3.20469e-07
4.3396e-06
3.22913e-07
4.33314e-06
2.82369e-07
4.34202e-06
3.02092e-07
4.3501e-06
3.15421e-07
2.7838e-07
4.35189e-06
4.49626e-06
-5.84548e-07
4.51871e-06
1.94142e-07
4.5357e-06
4.22094e-07
4.52311e-06
3.46376e-08
4.49537e-06
-5.70485e-08
4.53024e-06
7.65491e-07
4.55177e-06
7.09408e-07
4.55438e-06
4.45945e-07
4.54563e-06
1.53363e-07
4.54132e-06
2.5772e-07
4.52914e-06
3.61493e-07
4.53897e-06
3.75679e-07
4.55228e-06
4.78567e-07
4.54508e-06
3.82053e-07
4.54945e-06
3.16093e-07
4.54911e-06
3.23251e-07
4.5426e-06
2.88879e-07
4.54952e-06
2.95174e-07
4.55909e-06
3.05858e-07
2.75937e-07
4.56153e-06
4.7129e-06
-5.55334e-07
4.73375e-06
1.73288e-07
4.75195e-06
4.03903e-07
4.73941e-06
4.71784e-08
4.71315e-06
-3.07914e-08
4.74761e-06
7.31027e-07
4.76901e-06
6.88013e-07
4.77081e-06
4.44139e-07
4.76159e-06
1.62582e-07
4.75782e-06
2.61492e-07
4.74636e-06
3.72959e-07
4.75529e-06
3.66745e-07
4.77033e-06
4.63525e-07
4.76349e-06
3.88895e-07
4.76633e-06
3.13251e-07
4.76844e-06
3.2114e-07
4.76251e-06
2.94811e-07
4.76725e-06
2.90438e-07
4.77745e-06
2.95658e-07
2.7209e-07
4.7813e-06
4.94006e-06
-5.26595e-07
4.95901e-06
1.54341e-07
4.9783e-06
3.84605e-07
4.96623e-06
5.92564e-08
4.94132e-06
-5.88815e-09
4.97531e-06
6.9704e-07
4.99649e-06
6.66831e-07
4.99749e-06
4.43138e-07
4.98797e-06
1.72105e-07
4.98485e-06
2.64611e-07
4.9743e-06
3.83511e-07
4.98194e-06
3.59109e-07
4.99846e-06
4.47005e-07
4.99252e-06
3.94834e-07
4.99348e-06
3.12283e-07
4.99779e-06
3.16835e-07
4.99309e-06
2.99513e-07
4.99578e-06
2.87746e-07
5.00566e-06
2.85773e-07
2.66561e-07
5.01119e-06
5.17819e-06
-4.98469e-07
5.19512e-06
1.37408e-07
5.2153e-06
3.64431e-07
5.20399e-06
7.05604e-08
5.18033e-06
1.7773e-08
5.21373e-06
6.63641e-07
5.23473e-06
6.45838e-07
5.235e-06
4.42861e-07
5.2253e-06
1.81809e-07
5.22294e-06
2.66967e-07
5.21352e-06
3.92934e-07
5.2195e-06
3.53131e-07
5.2371e-06
4.29399e-07
5.23258e-06
3.99361e-07
5.23149e-06
3.13369e-07
5.23745e-06
3.10878e-07
5.23455e-06
3.02408e-07
5.23559e-06
2.86702e-07
5.24435e-06
2.77021e-07
2.59613e-07
5.25129e-06
5.42777e-06
-4.71047e-07
5.44276e-06
1.22412e-07
5.46349e-06
3.43703e-07
5.45316e-06
8.08877e-08
5.43065e-06
4.02909e-08
5.46334e-06
6.30943e-07
5.48423e-06
6.24947e-07
5.48395e-06
4.43143e-07
5.47412e-06
1.91641e-07
5.4726e-06
2.68484e-07
5.46453e-06
4.01006e-07
5.46859e-06
3.49068e-07
5.48679e-06
4.11205e-07
5.48415e-06
4.01995e-07
5.48102e-06
3.16506e-07
5.48781e-06
3.04087e-07
5.4872e-06
3.03017e-07
5.48712e-06
2.86783e-07
5.49428e-06
2.69855e-07
2.51947e-07
5.50195e-06
5.68929e-06
-4.44378e-07
5.70255e-06
1.09155e-07
5.72346e-06
3.22793e-07
5.71424e-06
9.0107e-08
5.69279e-06
6.17355e-08
5.72467e-06
5.99064e-07
5.74557e-06
6.0405e-07
5.74495e-06
4.43763e-07
5.73499e-06
2.01603e-07
5.73433e-06
2.69137e-07
5.72784e-06
4.07501e-07
5.72986e-06
3.47046e-07
5.74809e-06
3.92976e-07
5.74776e-06
4.02325e-07
5.74275e-06
3.21514e-07
5.74951e-06
2.97333e-07
5.75141e-06
3.0111e-07
5.75081e-06
2.87385e-07
5.75628e-06
2.64389e-07
2.44345e-07
5.76388e-06
5.96329e-06
-4.18475e-07
5.97508e-06
9.73668e-08
5.99579e-06
3.02076e-07
5.98777e-06
9.81306e-08
5.96735e-06
8.21571e-08
5.99829e-06
5.6812e-07
6.0193e-06
5.83042e-07
6.01859e-06
4.44477e-07
6.00847e-06
2.11726e-07
6.00863e-06
2.6897e-07
6.00392e-06
4.12217e-07
6.00395e-06
3.47012e-07
6.0216e-06
3.75324e-07
6.02389e-06
4.00033e-07
6.01743e-06
3.27977e-07
6.02328e-06
2.91484e-07
6.0277e-06
2.96694e-07
6.0272e-06
2.87877e-07
6.03101e-06
2.60588e-07
2.37372e-07
6.03798e-06
6.25035e-06
-3.93333e-07
6.26096e-06
8.67537e-08
6.28111e-06
2.81929e-07
6.27436e-06
1.04875e-07
6.25495e-06
1.01565e-07
6.28482e-06
5.38251e-07
6.30601e-06
5.6185e-07
6.30546e-06
4.45032e-07
6.29516e-06
2.22028e-07
6.29602e-06
2.68105e-07
6.29325e-06
4.14993e-07
6.29152e-06
3.48739e-07
6.30797e-06
3.58877e-07
6.31302e-06
3.94975e-07
6.30578e-06
3.3522e-07
6.30995e-06
2.87316e-07
6.31657e-06
2.90076e-07
6.31685e-06
2.87589e-07
6.31914e-06
2.58299e-07
2.31422e-07
6.32509e-06
6.55107e-06
-3.6893e-07
6.56079e-06
7.70315e-08
6.58003e-06
2.62692e-07
6.57463e-06
1.10275e-07
6.55628e-06
1.19912e-07
6.5849e-06
5.09626e-07
6.60631e-06
5.40447e-07
6.60614e-06
4.45197e-07
6.59568e-06
2.32492e-07
6.59708e-06
2.66701e-07
6.59634e-06
4.15736e-07
6.59319e-06
3.51887e-07
6.6079e-06
3.44171e-07
6.6156e-06
3.87271e-07
6.60846e-06
3.42364e-07
6.6104e-06
2.85372e-07
6.61855e-06
2.81932e-07
6.62032e-06
2.85814e-07
6.62137e-06
2.5725e-07
2.2676e-07
6.62603e-06
6.8661e-06
-3.45241e-07
6.8752e-06
6.79361e-08
6.89321e-06
2.44674e-07
6.88921e-06
1.14282e-07
6.87207e-06
1.37054e-07
6.89921e-06
4.82485e-07
6.9208e-06
5.18853e-07
6.92124e-06
4.44756e-07
6.91067e-06
2.43064e-07
6.91242e-06
2.64949e-07
6.91375e-06
4.14407e-07
6.9096e-06
3.56039e-07
6.92218e-06
3.31593e-07
6.93223e-06
3.77219e-07
6.92608e-06
3.48514e-07
6.92561e-06
2.85843e-07
6.93422e-06
2.73324e-07
6.93805e-06
2.81977e-07
6.93839e-06
2.56909e-07
2.23569e-07
6.94158e-06
7.19613e-06
-3.22238e-07
7.20483e-06
5.92391e-08
7.22138e-06
2.28126e-07
7.21875e-06
1.16907e-07
7.20305e-06
1.52753e-07
7.22843e-06
4.57104e-07
7.25016e-06
4.97131e-07
7.25141e-06
4.43505e-07
7.2408e-06
2.53673e-07
7.24271e-06
2.6304e-07
7.24609e-06
4.11025e-07
7.24142e-06
3.60708e-07
7.25161e-06
3.21406e-07
7.26353e-06
3.65296e-07
7.25924e-06
3.52806e-07
7.25645e-06
2.88627e-07
7.26424e-06
2.65542e-07
7.27028e-06
2.75928e-07
7.27074e-06
2.5645e-07
2.21695e-07
7.27262e-06
7.54189e-06
-2.99899e-07
7.55036e-06
5.07611e-08
7.56527e-06
2.13217e-07
7.56395e-06
1.18227e-07
7.55002e-06
1.66689e-07
7.57336e-06
4.33764e-07
7.59504e-06
4.7545e-07
7.5973e-06
4.41249e-07
7.58681e-06
2.6416e-07
7.58863e-06
2.61218e-07
7.59397e-06
4.05684e-07
7.58931e-06
3.65368e-07
7.59706e-06
3.13653e-07
7.6104e-06
3.51964e-07
7.60867e-06
3.54534e-07
7.60397e-06
2.93322e-07
7.60948e-06
2.60033e-07
7.61705e-06
2.68358e-07
7.61839e-06
2.55114e-07
2.20365e-07
7.61972e-06
7.90412e-06
-2.78203e-07
7.91253e-06
4.23507e-08
7.9257e-06
2.00043e-07
7.92549e-06
1.18436e-07
7.91368e-06
1.78497e-07
7.93478e-06
4.12668e-07
7.95627e-06
4.53954e-07
7.95963e-06
4.3789e-07
7.94942e-06
2.7437e-07
7.95098e-06
2.59661e-07
7.95808e-06
3.98582e-07
7.95397e-06
3.69479e-07
7.95936e-06
3.08262e-07
7.97366e-06
3.37671e-07
7.9754e-06
3.52785e-07
7.96943e-06
2.99299e-07
7.97162e-06
2.57839e-07
7.97822e-06
2.61762e-07
7.98064e-06
2.52688e-07
2.17942e-07
7.98307e-06
8.28361e-06
-2.57128e-07
8.29205e-06
3.39102e-08
8.30351e-06
1.88576e-07
8.30412e-06
1.17831e-07
8.29486e-06
1.87756e-07
8.31351e-06
3.94019e-07
8.33453e-06
4.32932e-07
8.33916e-06
4.33262e-07
8.3295e-06
2.84031e-07
8.33057e-06
2.58589e-07
8.33916e-06
3.89993e-07
8.33607e-06
3.72572e-07
8.33935e-06
3.04981e-07
8.35376e-06
3.23262e-07
8.36024e-06
3.46305e-07
8.35875e-06
3.00786e-07
8.36707e-06
2.49521e-07
8.38211e-06
2.46717e-07
8.38984e-06
2.44962e-07
2.20672e-07
8.38711e-06
8.6812e-06
-2.36662e-07
8.68972e-06
2.53832e-08
8.69959e-06
1.78711e-07
8.7006e-06
1.16819e-07
8.6942e-06
1.94159e-07
8.71052e-06
3.77699e-07
8.73075e-06
4.12697e-07
8.73668e-06
4.27331e-07
8.72774e-06
2.92972e-07
8.72824e-06
2.58086e-07
8.73809e-06
3.80149e-07
8.7363e-06
3.74362e-07
8.73809e-06
3.03191e-07
8.75278e-06
3.08566e-07
8.76279e-06
3.36298e-07
8.76245e-06
3.01126e-07
8.76704e-06
2.44936e-07
8.77981e-06
2.33948e-07
8.78745e-06
2.37316e-07
2.21039e-07
8.78708e-06
9.09774e-06
-2.16779e-07
9.10637e-06
1.67495e-08
9.11486e-06
1.70219e-07
9.11587e-06
1.15813e-07
9.11248e-06
1.97545e-07
9.1267e-06
3.63485e-07
9.14565e-06
3.93741e-07
9.15298e-06
4.20005e-07
9.14506e-06
3.00894e-07
9.14493e-06
2.58207e-07
9.15578e-06
3.69307e-07
9.15571e-06
3.74427e-07
9.15634e-06
3.02563e-07
9.1697e-06
2.95204e-07
9.18204e-06
3.23958e-07
9.18378e-06
2.99387e-07
9.18644e-06
2.42275e-07
9.19893e-06
2.21454e-07
9.20902e-06
2.27233e-07
2.2155e-07
9.20851e-06
9.53417e-06
-1.97484e-07
9.54291e-06
8.00493e-09
9.55028e-06
1.62848e-07
9.55076e-06
1.15336e-07
9.5504e-06
1.97904e-07
9.56304e-06
3.50843e-07
9.58048e-06
3.76306e-07
9.58891e-06
4.11573e-07
9.58222e-06
3.07587e-07
9.58154e-06
2.58885e-07
9.59295e-06
3.57891e-07
9.59508e-06
3.72303e-07
9.59554e-06
3.02106e-07
9.60631e-06
2.84433e-07
9.616e-06
3.14267e-07
9.61341e-06
3.0198e-07
9.60696e-06
2.48725e-07
9.60696e-06
2.21452e-07
9.61432e-06
2.1987e-07
2.11447e-07
9.62443e-06
9.99142e-06
-1.78774e-07
1.00002e-05
-7.89722e-10
1.00068e-05
1.56217e-07
1.00064e-05
1.15776e-07
1.00088e-05
1.95488e-07
1.00204e-05
3.39245e-07
1.00361e-05
3.60673e-07
1.00453e-05
4.02286e-07
1.00402e-05
3.12756e-07
1.0039e-05
2.60038e-07
1.00508e-05
3.46101e-07
1.00545e-05
3.68657e-07
1.00535e-05
3.03039e-07
1.00643e-05
2.73646e-07
1.00806e-05
2.98004e-07
1.00894e-05
2.93121e-07
1.00916e-05
2.46532e-07
1.01013e-05
2.11726e-07
1.01115e-05
2.09746e-07
2.12876e-07
1.011e-05
1.04705e-05
-1.60681e-07
1.04793e-05
-9.54547e-09
1.04855e-05
1.50011e-07
1.04838e-05
1.1744e-07
1.04885e-05
1.90828e-07
1.04999e-05
3.27823e-07
1.05136e-05
3.46952e-07
1.05234e-05
3.92511e-07
1.05197e-05
3.16453e-07
1.05183e-05
2.61492e-07
1.053e-05
3.3439e-07
1.05355e-05
3.63095e-07
1.05345e-05
3.04051e-07
1.05413e-05
2.66904e-07
1.05522e-05
2.87057e-07
1.0555e-05
2.90342e-07
1.05505e-05
2.51064e-07
1.05492e-05
2.1298e-07
1.05552e-05
2.03762e-07
2.02469e-07
1.05656e-05
1.09726e-05
-1.43242e-07
1.09811e-05
-1.80724e-08
1.09873e-05
1.43784e-07
1.09843e-05
1.2044e-07
1.09906e-05
1.84593e-07
1.10023e-05
3.16066e-07
1.10142e-05
3.35043e-07
1.10242e-05
3.8257e-07
1.10218e-05
3.18783e-07
1.10202e-05
2.63157e-07
1.10315e-05
3.23025e-07
1.10381e-05
3.56556e-07
1.10364e-05
3.05782e-07
1.10407e-05
2.62584e-07
1.10524e-05
2.75303e-07
1.10579e-05
2.84861e-07
1.1056e-05
2.53016e-07
1.10555e-05
2.1343e-07
1.10623e-05
1.96978e-07
1.94106e-07
1.10707e-05
1.14987e-05
-1.26557e-07
1.15067e-05
-2.60963e-08
1.15133e-05
1.37186e-07
1.1509e-05
1.24757e-07
1.15161e-05
1.77515e-07
1.15286e-05
3.03487e-07
1.15392e-05
3.24445e-07
1.15488e-05
3.72967e-07
1.15478e-05
3.19833e-07
1.15459e-05
2.65081e-07
1.15563e-05
3.12545e-07
1.15638e-05
3.49102e-07
1.15628e-05
3.06785e-07
1.15654e-05
2.59953e-07
1.15765e-05
2.64215e-07
1.15845e-05
2.76884e-07
1.15849e-05
2.5261e-07
1.15847e-05
2.13656e-07
1.15898e-05
1.91846e-07
1.86587e-07
1.15973e-05
1.205e-05
-1.10735e-07
1.20572e-05
-3.32922e-08
1.20645e-05
1.29835e-07
1.20592e-05
1.30116e-07
1.20663e-05
1.70436e-07
1.20799e-05
2.89883e-07
1.20895e-05
3.14771e-07
1.20986e-05
3.63882e-07
1.20988e-05
3.19693e-07
1.20967e-05
2.67145e-07
1.21064e-05
3.02852e-07
1.2115e-05
3.40455e-07
1.21151e-05
3.06702e-07
1.21164e-05
2.58668e-07
1.21264e-05
2.54188e-07
1.21361e-05
2.67266e-07
1.21385e-05
2.50139e-07
1.21385e-05
2.13691e-07
1.21424e-05
1.87956e-07
1.80037e-07
1.21489e-05
1.26278e-05
-9.59419e-08
1.26338e-05
-3.92883e-08
1.26421e-05
1.21482e-07
1.26361e-05
1.36172e-07
1.26425e-05
1.6406e-07
1.26571e-05
2.75266e-07
1.26666e-05
3.05281e-07
1.2675e-05
3.55471e-07
1.2676e-05
3.18724e-07
1.26742e-05
2.68877e-07
1.26831e-05
2.93934e-07
1.26924e-05
3.31149e-07
1.26938e-05
3.05344e-07
1.26945e-05
2.57942e-07
1.27033e-05
2.45455e-07
1.27138e-05
2.56681e-07
1.27182e-05
2.45816e-07
1.27185e-05
2.13396e-07
1.27216e-05
1.84848e-07
1.74205e-07
1.27274e-05
1.32333e-05
-8.23531e-08
1.32377e-05
-4.3668e-08
1.32473e-05
1.11945e-07
1.3241e-05
1.42386e-07
1.32461e-05
1.58974e-07
1.32615e-05
2.59925e-07
1.32713e-05
2.95445e-07
1.32791e-05
3.47704e-07
1.32807e-05
3.17074e-07
1.32795e-05
2.70083e-07
1.32877e-05
2.85729e-07
1.32974e-05
3.21431e-07
1.33003e-05
3.02537e-07
1.33008e-05
2.57384e-07
1.33079e-05
2.38325e-07
1.33188e-05
2.45782e-07
1.33251e-05
2.39538e-07
1.33262e-05
2.12341e-07
1.33285e-05
1.82545e-07
1.6872e-07
1.3334e-05
1.3868e-05
-7.01491e-08
1.38704e-05
-4.60853e-08
1.38811e-05
1.01258e-07
1.38753e-05
1.48187e-07
1.38787e-05
1.55524e-07
1.38943e-05
2.44359e-07
1.3905e-05
2.84728e-07
1.39126e-05
3.40136e-07
1.39145e-05
3.15138e-07
1.39137e-05
2.70836e-07
1.39215e-05
2.77995e-07
1.39314e-05
3.11474e-07
1.39355e-05
2.98522e-07
1.39362e-05
2.56633e-07
1.39421e-05
2.32447e-07
1.39527e-05
2.35121e-07
1.39606e-05
2.31696e-07
1.3963e-05
2.0995e-07
1.39646e-05
1.80882e-07
1.6384e-07
1.39695e-05
1.4533e-05
-5.94685e-08
1.45332e-05
-4.63208e-08
1.45448e-05
8.96919e-08
1.45401e-05
1.52871e-07
1.45418e-05
1.53812e-07
1.45569e-05
2.29262e-07
1.45688e-05
2.7286e-07
1.45765e-05
3.3238e-07
1.45786e-05
3.13063e-07
1.45783e-05
2.71112e-07
1.45857e-05
2.7067e-07
1.45957e-05
3.01448e-07
1.46009e-05
2.93345e-07
1.46023e-05
2.55152e-07
1.46072e-05
2.27554e-07
1.46171e-05
2.25223e-07
1.46259e-05
2.22965e-07
1.46298e-05
2.05997e-07
1.46315e-05
1.79219e-07
1.59777e-07
1.46355e-05
1.52298e-05
-5.03958e-08
1.52278e-05
-4.43402e-08
1.52398e-05
7.77267e-08
1.52368e-05
1.55823e-07
1.52369e-05
1.53799e-07
1.52507e-05
2.1541e-07
1.52638e-05
2.59779e-07
1.52723e-05
3.23833e-07
1.52746e-05
3.10756e-07
1.52746e-05
2.71106e-07
1.52816e-05
2.63756e-07
1.52918e-05
2.91223e-07
1.5298e-05
2.87089e-07
1.53003e-05
2.52883e-07
1.53044e-05
2.23436e-07
1.53134e-05
2.1626e-07
1.53226e-05
2.13731e-07
1.53281e-05
2.005e-07
1.53304e-05
1.76906e-07
1.56675e-07
1.53335e-05
1.59599e-05
-4.2949e-08
1.59558e-05
-4.02857e-08
1.59676e-05
6.59852e-08
1.59668e-05
1.56613e-07
1.59654e-05
1.55171e-07
1.59771e-05
2.03722e-07
1.59912e-05
2.45683e-07
1.60009e-05
3.14168e-07
1.60038e-05
3.07817e-07
1.60041e-05
2.70822e-07
1.60108e-05
2.57082e-07
1.60212e-05
2.80738e-07
1.60284e-05
2.79957e-07
1.60315e-05
2.49794e-07
1.60353e-05
2.19618e-07
1.60434e-05
2.08167e-07
1.60527e-05
2.04375e-07
1.60592e-05
1.9405e-07
1.60625e-05
1.73607e-07
1.53941e-07
1.60652e-05
1.67247e-05
-3.70621e-08
1.67189e-05
-3.44502e-08
1.67298e-05
5.50973e-08
1.67312e-05
1.5514e-07
1.6729e-05
1.57445e-07
1.67377e-05
1.95026e-07
1.67521e-05
2.31274e-07
1.67632e-05
3.03009e-07
1.67675e-05
3.03592e-07
1.67683e-05
2.70017e-07
1.67746e-05
2.50724e-07
1.67855e-05
2.69896e-07
1.67935e-05
2.71886e-07
1.67976e-05
2.45774e-07
1.68013e-05
2.15832e-07
1.68084e-05
2.01086e-07
1.68176e-05
1.95206e-07
1.68247e-05
1.86922e-07
1.6829e-05
1.69273e-07
1.50873e-07
1.68321e-05
1.75259e-05
-3.25866e-08
1.75187e-05
-2.72925e-08
1.75282e-05
4.5663e-08
1.75317e-05
1.51637e-07
1.75292e-05
1.5986e-07
1.75349e-05
1.89401e-07
1.75487e-05
2.17411e-07
1.75613e-05
2.90452e-07
1.75671e-05
2.97751e-07
1.75687e-05
2.68435e-07
1.75748e-05
2.4465e-07
1.75861e-05
2.58624e-07
1.75952e-05
2.62754e-07
1.76001e-05
2.40891e-07
1.76041e-05
2.11858e-07
1.76102e-05
1.94888e-07
1.7619e-05
1.86425e-07
1.76268e-05
1.79158e-07
1.76318e-05
1.64274e-07
1.47153e-07
1.76355e-05
1.83651e-05
-2.93097e-08
1.83571e-05
-1.93014e-08
1.83646e-05
3.81267e-08
1.83699e-05
1.4639e-07
1.83681e-05
1.61594e-07
1.83712e-05
1.86288e-07
1.83835e-05
2.05184e-07
1.83975e-05
2.76426e-07
1.84051e-05
2.90191e-07
1.84075e-05
2.6594e-07
1.84132e-05
2.39011e-07
1.84246e-05
2.47223e-07
1.84349e-05
2.52437e-07
1.84407e-05
2.35091e-07
1.84452e-05
2.07375e-07
1.84508e-05
1.89229e-07
1.84589e-05
1.78385e-07
1.84671e-05
1.70995e-07
1.84725e-05
1.58859e-07
1.42845e-07
1.84768e-05
1.92441e-05
-2.69729e-08
1.92357e-05
-1.09925e-08
1.92411e-05
3.2797e-08
1.92477e-05
1.39751e-07
1.92474e-05
1.61903e-07
1.9249e-05
1.84735e-07
1.92587e-05
1.95412e-07
1.92738e-05
2.61376e-07
1.92832e-05
2.80787e-07
1.92868e-05
2.62367e-07
1.92919e-05
2.33895e-07
1.9303e-05
2.36127e-07
1.93145e-05
2.40945e-07
1.93213e-05
2.28202e-07
1.93264e-05
2.02369e-07
1.93319e-05
1.83685e-07