/*--------------------------------*- C++ -*----------------------------------*\
| =========                 |                                                 |
| \\      /  F ield         | OpenFOAM: The Open Source CFD Toolbox           |
|  \\    /   O peration     | Version:  v1912                                 |
|   \\  /    A nd           | Website:  www.openfoam.com                      |
|    \\/     M anipulation  |                                                 |
\*---------------------------------------------------------------------------*/
FoamFile
{
    version     2.0;
    format      ascii;
    class       volVectorField;
    location    "6.85";
    object      U;
}
// * * * * * * * * * * * * * * * * * * * * * * * * * * * * * * * * * * * * * //

dimensions      [0 1 -1 0 0 0 0];


internalField   nonuniform List<vector> 
9600
(
(0.68925 -0.00646983 0)
(1.37739 0.0149374 0)
(0.808251 -0.00394819 0)
(1.09115 -0.0143223 0)
(0.721972 0.0132457 0)
(1.41201 0.0284882 0)
(0.576418 0.00652123 0)
(1.32699 0.0158549 0)
(0.739682 -0.010489 0)
(1.21555 0.00485986 0)
(0.856542 0.00134039 0)
(1.1687 0.0176237 0)
(0.854142 0.014885 0)
(1.14617 0.00788121 0)
(0.834944 0.0113184 0)
(1.17575 -0.000431431 0)
(0.819776 0.00813634 0)
(1.18337 0.0162426 0)
(0.826462 0.0130753 0)
(1.14086 0.0230369 0)
(0.697547 -0.00719059 0)
(1.37021 0.0142384 0)
(0.831412 -0.00163769 0)
(1.09905 -0.0133707 0)
(0.725097 0.0101818 0)
(1.40763 0.0297572 0)
(0.600141 0.00683808 0)
(1.31457 0.0144818 0)
(0.781989 -0.00955063 0)
(1.21084 0.00369976 0)
(0.881138 0.00162831 0)
(1.15832 0.018104 0)
(0.885032 0.0149959 0)
(1.1233 0.00863732 0)
(0.879663 0.0103379 0)
(1.13654 0.000505174 0)
(0.882186 0.00807909 0)
(1.11333 0.0154826 0)
(0.931437 0.0156218 0)
(1.01772 0.0205058 0)
(0.714734 -0.00781976 0)
(1.35369 0.0137045 0)
(0.866257 5.61024e-06 0)
(1.10452 -0.0122124 0)
(0.73318 0.00671822 0)
(1.39714 0.0316033 0)
(0.657245 0.00733794 0)
(1.28655 0.0129054 0)
(0.851301 -0.00869023 0)
(1.19122 0.00266088 0)
(0.931193 0.00223147 0)
(1.1324 0.0184064 0)
(0.942608 0.0154747 0)
(1.08576 0.00890664 0)
(0.946118 0.00984035 0)
(1.08776 0.000378356 0)
(0.958531 0.00831771 0)
(1.05244 0.0146819 0)
(0.993491 0.017828 0)
(0.988353 0.0194218 0)
(0.741586 -0.00842094 0)
(1.32559 0.0129422 0)
(0.909963 0.00159624 0)
(1.10184 -0.0108236 0)
(0.749485 0.00380705 0)
(1.37598 0.0327012 0)
(0.744973 0.00811274 0)
(1.24092 0.011156 0)
(0.930017 -0.0078498 0)
(1.15559 0.00185148 0)
(0.986156 0.00301084 0)
(1.10055 0.0183225 0)
(0.997076 0.0161851 0)
(1.05509 0.0088653 0)
(0.99531 0.00975009 0)
(1.05487 0.000180222 0)
(1.00442 0.00904253 0)
(1.0309 0.0143465 0)
(1.0155 0.0188789 0)
(0.999646 0.020143 0)
(0.777818 -0.00902229 0)
(1.28467 0.0119137 0)
(0.957617 0.00312676 0)
(1.08831 -0.00917212 0)
(0.778718 0.00111454 0)
(1.34043 0.0328157 0)
(0.847624 0.00939193 0)
(1.18545 0.0093651 0)
(0.995092 -0.00700266 0)
(1.11415 0.00129715 0)
(1.02366 0.00368996 0)
(1.07494 0.0181773 0)
(1.03062 0.0169033 0)
(1.04028 0.00899503 0)
(1.01868 0.00979739 0)
(1.03772 3.06606e-05 0)
(1.02079 0.00955639 0)
(1.02752 0.0142197 0)
(1.02301 0.0194847 0)
(1.01159 0.0211442 0)
(0.820935 -0.00957002 0)
(1.2324 0.0107245 0)
(1.0013 0.00453341 0)
(1.06581 -0.00738965 0)
(0.821264 -0.00146525 0)
(1.29047 0.0320655 0)
(0.941473 0.0110284 0)
(1.13431 0.00797089 0)
(1.03298 -0.00622048 0)
(1.07746 0.00105791 0)
(1.03716 0.00415771 0)
(1.05804 0.0180919 0)
(1.04476 0.0175034 0)
(1.03612 0.00932378 0)
(1.02585 0.00995347 0)
(1.02805 3.48955e-05 0)
(1.02123 0.00966752 0)
(1.02483 0.0142365 0)
(1.02418 0.0198348 0)
(1.01712 0.0218085 0)
(0.866198 -0.0100111 0)
(1.17385 0.00944266 0)
(1.03323 0.00577963 0)
(1.04045 -0.00566409 0)
(0.870003 -0.00377594 0)
(1.23113 0.0306655 0)
(1.00865 0.0127121 0)
(1.09681 0.00723722 0)
(1.04483 -0.00550672 0)
(1.04928 0.00109755 0)
(1.03351 0.00439891 0)
(1.04604 0.0179249 0)
(1.04736 0.0179088 0)
(1.03537 0.00974218 0)
(1.02602 0.0103079 0)
(1.02102 0.000231933 0)
(1.01524 0.00966016 0)
(1.01876 0.0142865 0)
(1.02091 0.0198301 0)
(1.01746 0.0222699 0)
(0.908046 -0.0103147 0)
(1.11655 0.0081866 0)
(1.04922 0.00680837 0)
(1.01955 -0.00414646 0)
(0.914207 -0.00568632 0)
(1.17019 0.0289724 0)
(1.04465 0.0141543 0)
(1.0729 0.00714184 0)
(1.04037 -0.00478826 0)
(1.02849 0.00129239 0)
(1.02264 0.0044268 0)
(1.03576 0.0175507 0)
(1.04421 0.0181097 0)
(1.03383 0.0101904 0)
(1.02351 0.0108276 0)
(1.01487 0.000629068 0)
(1.00762 0.00967463 0)
(1.01074 0.0142579 0)
(1.01502 0.0195379 0)
(1.01482 0.0226043 0)
(0.942186 -0.0104737 0)
(1.06771 0.00708637 0)
(1.05018 0.00757013 0)
(1.00753 -0.00292639 0)
(0.946454 -0.00709995 0)
(1.11485 0.0273191 0)
(1.05541 0.015198 0)
(1.05737 0.00747529 0)
(1.03024 -0.00402061 0)
(1.01361 0.00153354 0)
(1.01128 0.00429939 0)
(1.02601 0.0169796 0)
(1.03787 0.018151 0)
(1.02991 0.0106101 0)
(1.01967 0.0114291 0)
(1.00928 0.00118915 0)
(1.00058 0.00970108 0)
(1.00291 0.0141946 0)
(1.00838 0.0190557 0)
(1.01075 0.0227288 0)
(0.966891 -0.0105031 0)
(1.03157 0.00622621 0)
(1.04095 0.00802714 0)
(1.00389 -0.00200986 0)
(0.965825 -0.0079998 0)
(1.06991 0.0258721 0)
(1.05086 0.0158087 0)
(1.04554 0.0079842 0)
(1.02137 -0.00322687 0)
(1.00417 0.00176206 0)
(1.00244 0.00411133 0)
(1.01656 0.0163039 0)
(1.02939 0.0180808 0)
(1.02385 0.0109555 0)
(1.01506 0.0120368 0)
(1.00478 0.00187061 0)
(0.995229 0.00974738 0)
(0.996635 0.0141747 0)
(1.00223 0.0184485 0)
(1.00598 0.0226201 0)
(0.98286 -0.0104344 0)
(1.00847 0.00562568 0)
(1.02766 0.00819607 0)
(1.00486 -0.00136459 0)
(0.975941 -0.00842155 0)
(1.03744 0.0246491 0)
(1.04015 0.0160634 0)
(1.03543 0.00846954 0)
(1.01609 -0.00246997 0)
(0.999485 0.00198555 0)
(0.996855 0.00397182 0)
(1.00783 0.0156366 0)
(1.01996 0.0179456 0)
(1.01699 0.0111955 0)
(1.01045 0.0125694 0)
(1.00198 0.00261307 0)
(0.992072 0.0098183 0)
(0.992409 0.0142384 0)
(0.997305 0.0178083 0)
(1.00113 0.0223553 0)
(0.992144 -0.0103035 0)
(0.995865 0.00525025 0)
(1.01524 0.0081541 0)
(1.00665 -0.000942166 0)
(0.981252 -0.00847571 0)
(1.01687 0.0236123 0)
(1.02937 0.0160899 0)
(1.02707 0.00882519 0)
(1.0137 -0.0018058 0)
(0.99808 0.00222944 0)
(0.994172 0.0039562 0)
(1.00084 0.0150664 0)
(1.01139 0.0177758 0)
(1.01101 0.0113105 0)
(1.00676 0.012959 0)
(1.00099 0.00335216 0)
(0.991144 0.00991443 0)
(0.990308 0.0144124 0)
(0.994194 0.0172281 0)
(0.997259 0.0220192 0)
(0.997013 -0.0101396 0)
(0.990153 0.00504032 0)
(1.00616 0.00798926 0)
(1.00728 -0.000691869 0)
(0.984715 -0.00829297 0)
(1.00565 0.0227172 0)
(1.02126 0.0160012 0)
(1.02092 0.00903722 0)
(1.01275 -0.00125025 0)
(0.998241 0.00249193 0)
(0.993552 0.00407597 0)
(0.996457 0.0146231 0)
(1.00535 0.0175781 0)
(1.00707 0.0113071 0)
(1.00464 0.013183 0)
(1.00142 0.00404963 0)
(0.992061 0.0100259 0)
(0.990218 0.0146926 0)
(0.993279 0.0167562 0)
(0.995429 0.0216491 0)
(0.999276 -0.00996074 0)
(0.98822 0.00493243 0)
(1.00071 0.00777655 0)
(1.00659 -0.000563427 0)
(0.987503 -0.00798528 0)
(1.0005 0.0219199 0)
(1.01613 0.0158721 0)
(1.01696 0.009141 0)
(1.0122 -0.000784093 0)
(0.998789 0.0027588 0)
(0.994088 0.00429284 0)
(0.994744 0.0142774 0)
(1.00239 0.0173575 0)
(1.00539 0.0112193 0)
(1.00418 0.0132605 0)
(1.00267 0.00469987 0)
(0.994184 0.0101362 0)
(0.991794 0.0150357 0)
(0.994438 0.0163907 0)
(0.995956 0.0212356 0)
(1.00012 -0.00977539 0)
(0.988033 0.00487581 0)
(0.99813 0.00756099 0)
(1.00522 -0.000514349 0)
(0.989773 -0.00762776 0)
(0.998538 0.0211856 0)
(1.01317 0.0157376 0)
(1.0147 0.00918068 0)
(1.0117 -0.000377672 0)
(0.999246 0.00301396 0)
(0.995075 0.004552 0)
(0.994956 0.0139762 0)
(1.00189 0.0171208 0)
(1.00537 0.0110869 0)
(1.00491 0.0132326 0)
(1.00422 0.00532061 0)
(0.996828 0.0102203 0)
(0.994427 0.0153788 0)
(0.99701 0.0161149 0)
(0.998247 0.0207618 0)
(1.00025 -0.00958577 0)
(0.988502 0.00483393 0)
(0.997409 0.00736466 0)
(1.00383 -0.000510817 0)
(0.991464 -0.00725588 0)
(0.997776 0.0204856 0)
(1.01138 0.0156076 0)
(1.01348 0.00918828 0)
(1.01125 -5.19908e-06 0)
(0.999557 0.00325251 0)
(0.996105 0.00480997 0)
(0.996104 0.0136826 0)
(1.00269 0.0168688 0)
(1.00612 0.0109387 0)
(1.00614 0.0131446 0)
(1.00568 0.00592863 0)
(0.999398 0.0102567 0)
(0.997375 0.0156696 0)
(1.00009 0.0159108 0)
(1.00126 0.0202231 0)
(1.00007 -0.00939125 0)
(0.989117 0.00478413 0)
(0.997734 0.00719055 0)
(1.00276 -0.000525987 0)
(0.992637 -0.00687726 0)
(0.997175 0.0198018 0)
(1.01003 0.0154771 0)
(1.01279 0.00917852 0)
(1.01093 0.000348349 0)
(0.999796 0.00347605 0)
(0.997018 0.00504888 0)
(0.997443 0.0133749 0)
(1.00379 0.0166057 0)
(1.00689 0.0107981 0)
(1.00724 0.0130197 0)
(1.00678 0.00652467 0)
(1.00148 0.0102468 0)
(0.999974 0.0158844 0)
(1.00286 0.0157644 0)
(1.00405 0.0196265 0)
(0.999807 -0.00919037 0)
(0.989656 0.00471424 0)
(0.99853 0.00703462 0)
(1.00209 -0.000544152 0)
(0.993461 -0.00648853 0)
(0.996387 0.0191265 0)
(1.00871 0.0153348 0)
(1.01228 0.00915163 0)
(1.01074 0.000687435 0)
(1.00004 0.00368738 0)
(0.997813 0.00526836 0)
(0.998625 0.0130512 0)
(1.00465 0.0163367 0)
(1.00733 0.0106762 0)
(1.00788 0.0128691 0)
(1.00741 0.00710626 0)
(1.00289 0.0102016 0)
(1.00182 0.0160154 0)
(1.00489 0.015669 0)
(1.00609 0.0189883 0)
(0.999545 -0.00898124 0)
(0.990045 0.00461891 0)
(0.999444 0.00689071 0)
(1.00175 -0.000556425 0)
(0.994084 -0.0060815 0)
(0.99546 0.0184603 0)
(1.00731 0.0151729 0)
(1.01174 0.00910567 0)
(1.01064 0.0010046 0)
(1.00036 0.00389355 0)
(0.998542 0.00547126 0)
(0.999584 0.0127255 0)
(1.00512 0.016071 0)
(1.00737 0.0105731 0)
(1.00797 0.0126997 0)
(1.00757 0.00767315 0)
(1.00365 0.0101403 0)
(1.00285 0.0160618 0)
(1.00609 0.0156133 0)
(1.00732 0.0183196 0)
(0.999304 -0.00876216 0)
(0.990291 0.00449746 0)
(1.00031 0.00675131 0)
(1.00164 -0.000557764 0)
(0.994581 -0.00565085 0)
(0.994563 0.0178077 0)
(1.00591 0.0149896 0)
(1.01115 0.00903766 0)
(1.01056 0.00129333 0)
(1.00078 0.0040927 0)
(0.999225 0.00566648 0)
(1.00036 0.0124089 0)
(1.00526 0.0158186 0)
(1.00711 0.0104937 0)
(1.00761 0.0125178 0)
(1.00739 0.00821862 0)
(1.00396 0.0100831 0)
(1.00323 0.016029 0)
(1.00663 0.0155854 0)
(1.00792 0.0176309 0)
(0.999074 -0.00853141 0)
(0.990445 0.00434999 0)
(1.00106 0.00661185 0)
(1.00165 -0.000545435 0)
(0.994972 -0.0051951 0)
(0.993834 0.0171716 0)
(1.00461 0.0147844 0)
(1.01057 0.00895115 0)
(1.01043 0.00154487 0)
(1.00126 0.00428124 0)
(0.999822 0.00586711 0)
(1.00097 0.0121045 0)
(1.00517 0.0155855 0)
(1.00671 0.0104409 0)
(1.00698 0.0123307 0)
(1.00699 0.00874151 0)
(1.00402 0.0100348 0)
(1.00324 0.0159169 0)
(1.00676 0.0155772 0)
(1.00815 0.0169437 0)
(0.998852 -0.0082878 0)
(0.990575 0.00417683 0)
(1.00169 0.00646893 0)
(1.00172 -0.000517242 0)
(0.995262 -0.00471645 0)
(0.993345 0.0165516 0)
(1.00348 0.014558 0)
(1.01009 0.00885025 0)
(1.01025 0.00175737 0)
(1.00175 0.00446067 0)
(1.00027 0.00608042 0)
(1.00144 0.0118174 0)
(1.00496 0.0153705 0)
(1.00628 0.0104177 0)
(1.00627 0.0121356 0)
(1.0065 0.00924108 0)
(1.00399 0.0100011 0)
(1.00311 0.0157313 0)
(1.00665 0.0155856 0)
(1.0082 0.0162753 0)
(0.998646 -0.00803158 0)
(0.990738 0.00398001 0)
(1.00219 0.00631989 0)
(1.00178 -0.000470478 0)
(0.99547 -0.00422255 0)
(0.993127 0.0159466 0)
(1.00255 0.0143091 0)
(1.00976 0.0087408 0)
(1.01001 0.00193619 0)
(1.0022 0.00463172 0)
(1.00054 0.00630927 0)
(1.0018 0.0115475 0)
(1.00471 0.0151725 0)
(1.00587 0.0104265 0)
(1.00559 0.0119287 0)
(1.00599 0.00971393 0)
(1.00398 0.00999035 0)
(1.003 0.015478 0)
(1.00644 0.0156093 0)
(1.00817 0.0156489 0)
(0.998466 -0.00776383 0)
(0.990967 0.00376187 0)
(1.00254 0.00616588 0)
(1.00179 -0.000404141 0)
(0.995622 -0.00372203 0)
(0.993182 0.0153547 0)
(1.0018 0.0140364 0)
(1.00958 0.00863108 0)
(1.00975 0.00208607 0)
(1.00256 0.00479303 0)
(1.00064 0.00656058 0)
(1.00208 0.0112839 0)
(1.00451 0.0149899 0)
(1.00554 0.0104655 0)
(1.00505 0.0117151 0)
(1.00554 0.0101601 0)
(1.00403 0.0100091 0)
(1.003 0.0151502 0)
(1.00619 0.0156385 0)
(1.00812 0.0151074 0)
(0.998321 -0.00748608 0)
(0.991262 0.00352534 0)
(1.00274 0.00600825 0)
(1.00175 -0.000318468 0)
(0.995744 -0.00322348 0)
(0.993487 0.0147739 0)
(1.00119 0.0137412 0)
(1.00949 0.00852455 0)
(1.00948 0.00221953 0)
(1.00278 0.0049407 0)
(1.00061 0.00683488 0)
(1.00232 0.0110281 0)
(1.00438 0.0148036 0)
(1.0053 0.0105383 0)
(1.00469 0.0114954 0)
(1.00517 0.0105724 0)
(1.00414 0.010073 0)
(1.00314 0.0147511 0)
(1.00597 0.0156454 0)
(1.0081 0.0146843 0)
(0.998224 -0.00720047 0)
(0.991602 0.00327469 0)
(1.00282 0.00584651 0)
(1.00169 -0.000212362 0)
(0.995853 -0.00273702 0)
(0.993987 0.0142043 0)
(1.00074 0.0134238 0)
(1.00943 0.00842724 0)
(1.00925 0.00234525 0)
(1.00285 0.00507692 0)
(1.00048 0.00712881 0)
(1.00254 0.0107709 0)
(1.00435 0.0146059 0)
(1.00514 0.0106516 0)
(1.0045 0.0112646 0)
(1.00493 0.0109357 0)
(1.0043 0.0101921 0)
(1.00344 0.0142911 0)
(1.00583 0.0155923 0)
(1.0081 0.0143963 0)
(0.99819 -0.00690909 0)
(0.991958 0.00301427 0)
(1.00276 0.00568083 0)
(1.00165 -8.79478e-05 0)
(0.995965 -0.00226738 0)
(0.99461 0.0136446 0)
(1.00042 0.0130876 0)
(1.00934 0.00833919 0)
(1.00906 0.00247344 0)
(1.00278 0.00520333 0)
(1.00027 0.00743301 0)
(1.00276 0.0105024 0)
(1.0044 0.0143936 0)
(1.00507 0.0108059 0)
(1.00448 0.011028 0)
(1.00483 0.0112335 0)
(1.0045 0.0103692 0)
(1.00387 0.0137959 0)
(1.00579 0.0154471 0)
(1.00812 0.0142458 0)
(0.998227 -0.0066137 0)
(0.992305 0.00275008 0)
(1.00256 0.00550801 0)
(1.00165 5.31808e-05 0)
(0.996101 -0.00181846 0)
(0.995281 0.013094 0)
(1.00025 0.0127376 0)
(1.00914 0.00826202 0)
(1.00892 0.00261386 0)
(1.00262 0.00531733 0)
(1.00002 0.00774007 0)
(1.00295 0.0102304 0)
(1.00448 0.0141482 0)
(1.00506 0.0109931 0)
(1.00458 0.0108005 0)
(1.00488 0.0114546 0)
(1.00474 0.0106027 0)
(1.00438 0.013313 0)
(1.00586 0.0151879 0)
(1.00815 0.014196 0)
(0.998336 -0.00631579 0)
(0.992637 0.00248793 0)
(1.00223 0.00532439 0)
(1.00169 0.000208592 0)
(0.996283 -0.00139563 0)
(0.99594 0.012553 0)
(1.00021 0.0123805 0)
(1.0088 0.00819561 0)
(1.00882 0.00276874 0)
(1.00243 0.0054222 0)
(0.999742 0.00804582 0)
(1.00313 0.0099616 0)
(1.00456 0.0138557 0)
(1.00508 0.011206 0)
(1.00475 0.010595 0)
(1.00506 0.0115919 0)
(1.005 0.0108784 0)
(1.00494 0.0128869 0)
(1.00604 0.0148113 0)
(1.00819 0.0141674 0)
(0.998504 -0.00601832 0)
(0.992958 0.00223494 0)
(1.00178 0.0051287 0)
(1.00176 0.000370753 0)
(0.996531 -0.000994841 0)
(0.996548 0.012017 0)
(1.00028 0.0120206 0)
(1.00833 0.00814046 0)
(1.00873 0.00293831 0)
(1.00226 0.00551702 0)
(0.999477 0.00834158 0)
(1.0033 0.00969938 0)
(1.00463 0.0135113 0)
(1.00511 0.0114334 0)
(1.00493 0.0104234 0)
(1.00533 0.0116385 0)
(1.00527 0.0111699 0)
(1.0055 0.0125499 0)
(1.00632 0.0143391 0)
(1.00826 0.0140885 0)
(0.998704 -0.00572264 0)
(0.993283 0.00199721 0)
(1.00128 0.00491851 0)
(1.00181 0.000535789 0)
(0.996845 -0.000611982 0)
(0.997082 0.0114861 0)
(1.00042 0.0116603 0)
(1.00778 0.00810019 0)
(1.00863 0.00312103 0)
(1.00215 0.00560166 0)
(0.999248 0.00862589 0)
(1.00347 0.00945344 0)
(1.0047 0.013114 0)
(1.00512 0.0116573 0)
(1.00509 0.010296 0)
(1.00565 0.0115891 0)
(1.00553 0.0114457 0)
(1.006 0.0123226 0)
(1.00665 0.0138201 0)
(1.00836 0.0139111 0)
(0.998909 -0.0054312 0)
(0.993621 0.00178019 0)
(1.00076 0.00469544 0)
(1.00182 0.000695772 0)
(0.997213 -0.000254222 0)
(0.997538 0.0109631 0)
(1.00058 0.0113068 0)
(1.00718 0.0080735 0)
(1.00851 0.00331092 0)
(1.00214 0.00567398 0)
(0.999072 0.00888808 0)
(1.00365 0.00923751 0)
(1.00477 0.0126715 0)
(1.00509 0.0118624 0)
(1.00519 0.010229 0)
(1.00597 0.0114508 0)
(1.00578 0.0116738 0)
(1.00641 0.0122007 0)
(1.007 0.0133123 0)
(1.00851 0.0136167 0)
(0.999096 -0.00514545 0)
(0.993976 0.00158636 0)
(1.0003 0.00445822 0)
(1.00179 0.000849451 0)
(0.997607 8.5092e-05 0)
(0.997929 0.0104448 0)
(1.00072 0.0109599 0)
(1.00658 0.0080576 0)
(1.00837 0.00350301 0)
(1.00221 0.00573251 0)
(0.998963 0.00912303 0)
(1.00381 0.00905666 0)
(1.00486 0.0121914 0)
(1.00503 0.0120349 0)
(1.00522 0.0102353 0)
(1.00626 0.0112426 0)
(1.00601 0.0118268 0)
(1.00671 0.0121655 0)
(1.00731 0.012873 0)
(1.00869 0.0132315 0)
(0.999252 -0.00486659 0)
(0.994341 0.00141347 0)
(0.999913 0.00421468 0)
(1.0017 0.000988023 0)
(0.997995 0.000409043 0)
(0.998272 0.00993283 0)
(1.00082 0.0106149 0)
(1.00603 0.00805684 0)
(1.00821 0.00369416 0)
(1.00237 0.00577153 0)
(0.998919 0.00933133 0)
(1.00395 0.00892784 0)
(1.00498 0.0116852 0)
(1.00496 0.0121553 0)
(1.00517 0.0103125 0)
(1.00651 0.0109922 0)
(1.00622 0.0118882 0)
(1.00692 0.0121805 0)
(1.00755 0.0125214 0)
(1.00888 0.0128009 0)
(0.999376 -0.00459531 0)
(0.994708 0.00126227 0)
(0.999628 0.00396518 0)
(1.00157 0.00111494 0)
(0.99835 0.000718844 0)
(0.998589 0.00943373 0)
(1.00086 0.0102688 0)
(1.00552 0.00806397 0)
(1.00804 0.00388976 0)
(1.00258 0.00579071 0)
(0.998937 0.0094963 0)
(1.00406 0.00885484 0)
(1.00515 0.0111723 0)
(1.00488 0.0122088 0)
(1.00505 0.0104532 0)
(1.0067 0.0107319 0)
(1.00641 0.0118584 0)
(1.00705 0.0122194 0)
(1.00769 0.0122482 0)
(1.00904 0.0123755 0)
(0.999473 -0.00433114 0)
(0.995065 0.00112742 0)
(0.999438 0.00371391 0)
(1.00141 0.00123342 0)
(0.998653 0.00101658 0)
(0.998895 0.00894753 0)
(1.00085 0.00992436 0)
(1.00507 0.00806789 0)
(1.00788 0.00408916 0)
(1.00284 0.00580366 0)
(0.999005 0.00962464 0)
(1.00412 0.00882444 0)
(1.00535 0.0106619 0)
(1.00483 0.0121889 0)
(1.00489 0.0106493 0)
(1.00684 0.0104788 0)
(1.00661 0.0117281 0)
(1.00711 0.0122728 0)
(1.00773 0.0120573 0)
(1.00915 0.0119972 0)
(0.999548 -0.00407599 0)
(0.995408 0.00100738 0)
(0.999325 0.00346982 0)
(1.00124 0.00132919 0)
(0.998902 0.00130253 0)
(0.999196 0.00847233 0)
(1.0008 0.00957264 0)
(1.00465 0.00808241 0)
(1.00771 0.00428823 0)
(1.00311 0.00579337 0)
(0.999108 0.00972241 0)
(1.00412 0.0088511 0)
(1.00558 0.0101704 0)
(1.00483 0.0120878 0)
(1.00468 0.0109082 0)
(1.00692 0.0102718 0)
(1.00683 0.0114811 0)
(1.00716 0.0123029 0)
(1.00768 0.01194 0)
(1.00919 0.0116745 0)
(0.999608 -0.00382611 0)
(0.995732 0.000897702 0)
(0.999266 0.00323263 0)
(1.00107 0.00140564 0)
(0.999103 0.00157211 0)
(0.99949 0.00802102 0)
(1.00074 0.00921387 0)
(1.00426 0.00809747 0)
(1.00754 0.00449191 0)
(1.0034 0.00576262 0)
(0.999244 0.00976538 0)
(1.00407 0.00892158 0)
(1.00581 0.00971921 0)
(1.0049 0.0118763 0)
(1.00445 0.0111874 0)
(1.00694 0.0101674 0)
(1.00707 0.0111504 0)
(1.00722 0.0122748 0)
(1.00756 0.0118998 0)
(1.00914 0.0114142 0)
(0.99966 -0.00358742 0)
(0.996038 0.000799632 0)
(0.999239 0.00300723 0)
(1.00092 0.00147071 0)
(0.99927 0.00182575 0)
(0.999772 0.00758752 0)
(1.00068 0.008852 0)
(1.00389 0.00809381 0)
(1.00735 0.00470288 0)
(1.00368 0.0057291 0)
(0.999404 0.00975448 0)
(1.00396 0.00901724 0)
(1.00603 0.00933859 0)
(1.00504 0.0115956 0)
(1.00425 0.0114241 0)
(1.00689 0.0101598 0)
(1.00731 0.0107794 0)
(1.00733 0.012142 0)
(1.00739 0.0119075 0)
(1.00902 0.0112156 0)
(0.999706 -0.00335053 0)
(0.996327 0.000700189 0)
(0.999225 0.00280174 0)
(1.00078 0.00150576 0)
(0.999415 0.00206453 0)
(1.00003 0.00718262 0)
(1.00063 0.00849501 0)
(1.00353 0.00808595 0)
(1.00714 0.00489462 0)
(1.00396 0.00569133 0)
(0.999589 0.00970339 0)
(1.00381 0.0091337 0)
(1.00621 0.00901203 0)
(1.00525 0.0112554 0)
(1.00406 0.0116177 0)
(1.00676 0.0102422 0)
(1.00755 0.0104444 0)
(1.0075 0.0119161 0)
(1.00722 0.0119362 0)
(1.00881 0.0111082 0)
(0.99975 -0.00312525 0)
(0.996601 0.000607948 0)
(0.99921 0.00261785 0)
(1.00066 0.00152692 0)
(0.999552 0.00227257 0)
(1.00027 0.00681289 0)
(1.00059 0.00811069 0)
(1.00317 0.00807304 0)
(1.00691 0.0051217 0)
(1.00423 0.0056283 0)
(0.999793 0.00961181 0)
(1.00362 0.00926449 0)
(1.00634 0.00875227 0)
(1.00552 0.0108409 0)
(1.00394 0.0117105 0)
(1.00657 0.0104029 0)
(1.00775 0.0101666 0)
(1.00774 0.0116125 0)
(1.00707 0.0119376 0)
(1.00851 0.0110855 0)
(0.999792 -0.00290414 0)
(0.996863 0.000517137 0)
(0.999186 0.0024462 0)
(1.00056 0.00153423 0)
(0.999684 0.00245997 0)
(1.00048 0.006479 0)
(1.00056 0.00775164 0)
(1.00285 0.00800592 0)
(1.00664 0.00532655 0)
(1.00448 0.00559499 0)
(1.00003 0.00944545 0)
(1.00342 0.00940131 0)
(1.00641 0.0085785 0)
(1.00583 0.0103967 0)
(1.00388 0.0117055 0)
(1.00633 0.0105738 0)
(1.00789 0.00999399 0)
(1.00804 0.0112359 0)
(1.00699 0.0119163 0)
(1.00816 0.0111765 0)
(0.999832 -0.00268803 0)
(0.997113 0.000421334 0)
(0.99915 0.00230686 0)
(1.00046 0.00152258 0)
(0.999818 0.00261183 0)
(1.00067 0.00616941 0)
(1.00054 0.00739345 0)
(1.00254 0.00794157 0)
(1.00635 0.00552753 0)
(1.00471 0.00556127 0)
(1.00028 0.00926528 0)
(1.00321 0.00949394 0)
(1.00642 0.00845917 0)
(1.00616 0.00993774 0)
(1.0039 0.0115477 0)
(1.00606 0.0107607 0)
(1.00794 0.0098059 0)
(1.00837 0.0107065 0)
(1.00701 0.0116404 0)
(1.00775 0.0112349 0)
(0.99987 -0.00248217 0)
(0.997356 0.000333428 0)
(0.999106 0.00217731 0)
(1.00037 0.00151301 0)
(0.999947 0.00271829 0)
(1.00082 0.00592316 0)
(1.00054 0.00702953 0)
(1.00226 0.00785208 0)
(1.00603 0.00570981 0)
(1.00492 0.00553245 0)
(1.00055 0.00904811 0)
(1.003 0.00955531 0)
(1.00636 0.00842248 0)
(1.00648 0.00948849 0)
(1.00401 0.0112487 0)
(1.00577 0.0109117 0)
(1.00786 0.00961846 0)
(1.00867 0.0101106 0)
(1.00716 0.0111182 0)
(1.00749 0.0111374 0)
(0.999906 -0.00227684 0)
(0.997586 0.000234282 0)
(0.999055 0.00207676 0)
(1.00029 0.00149517 0)
(1.00008 0.00278288 0)
(1.00095 0.0056955 0)
(1.00053 0.00671045 0)
(1.00199 0.00771978 0)
(1.00571 0.00588322 0)
(1.00509 0.0055423 0)
(1.00085 0.00877894 0)
(1.00282 0.00958536 0)
(1.00623 0.00838841 0)
(1.00677 0.00908367 0)
(1.0042 0.0109363 0)
(1.00549 0.0108517 0)
(1.00766 0.00955979 0)
(1.0089 0.00960858 0)
(1.00739 0.0106025 0)
(1.00737 0.0109882 0)
(0.999937 -0.00208233 0)
(0.99781 0.000139436 0)
(0.999003 0.00198998 0)
(1.00021 0.00148407 0)
(1.00019 0.0028089 0)
(1.00106 0.00549313 0)
(1.00054 0.00640311 0)
(1.00176 0.00756673 0)
(1.00537 0.00605489 0)
(1.00522 0.00554264 0)
(1.00116 0.00849625 0)
(1.00264 0.00957445 0)
(1.00605 0.00840374 0)
(1.00704 0.00872075 0)
(1.00441 0.0105071 0)
(1.00523 0.0108125 0)
(1.00739 0.00954484 0)
(1.00906 0.00933628 0)
(1.00771 0.0102404 0)
(1.00741 0.0109083 0)
(0.999964 -0.00188969 0)
(0.998023 4.25411e-05 0)
(0.998952 0.00190647 0)
(1.00013 0.00148273 0)
(1.00031 0.0027819 0)
(1.00115 0.00532386 0)
(1.00054 0.00612642 0)
(1.00154 0.00740182 0)
(1.00503 0.00615752 0)
(1.00532 0.0055688 0)
(1.00149 0.00824593 0)
(1.00252 0.00948609 0)
(1.00581 0.0084076 0)
(1.00722 0.00842151 0)
(1.00471 0.0100707 0)
(1.00505 0.0106928 0)
(1.00706 0.0096507 0)
(1.00915 0.00912802 0)
(1.00806 0.00984172 0)
(1.00751 0.010703 0)
(0.999986 -0.00170614 0)
(0.998229 -5.71082e-05 0)
(0.998907 0.00183627 0)
(1.00004 0.00149726 0)
(1.00041 0.00272269 0)
(1.00122 0.00513903 0)
(1.00055 0.00589869 0)
(1.00136 0.00721809 0)
(1.00468 0.00624828 0)
(1.00538 0.00562832 0)
(1.00181 0.00795564 0)
(1.0024 0.00934082 0)
(1.00554 0.00846625 0)
(1.00737 0.0081754 0)
(1.005 0.00961476 0)
(1.00495 0.0104899 0)
(1.00672 0.00979295 0)
(1.0091 0.00893887 0)
(1.00842 0.00940551 0)
(1.00776 0.010341 0)
(1 -0.00152572 0)
(0.998425 -0.000152268 0)
(0.99887 0.00175906 0)
(0.999964 0.00153135 0)
(1.0005 0.00263465 0)
(1.00128 0.0049667 0)
(1.00054 0.00570041 0)
(1.00119 0.00702105 0)
(1.00435 0.00631385 0)
(1.00538 0.00565765 0)
(1.00212 0.00766939 0)
(1.00237 0.00922229 0)
(1.00525 0.0085119 0)
(1.0074 0.00794122 0)
(1.00536 0.00918108 0)
(1.00497 0.0103498 0)
(1.00635 0.00987096 0)
(1.00894 0.00899694 0)
(1.0087 0.00913674 0)
(1.00808 0.00994664 0)
(1.00002 -0.00135493 0)
(0.998615 -0.000244328 0)
(0.998846 0.00168925 0)
(0.999873 0.0015798 0)
(1.00059 0.00253294 0)
(1.00134 0.00476909 0)
(1.00054 0.00551871 0)
(1.00105 0.00686509 0)
(1.00402 0.00633076 0)
(1.00536 0.0056954 0)
(1.00243 0.0074654 0)
(1.00234 0.0090142 0)
(1.00492 0.00848285 0)
(1.00741 0.00784945 0)
(1.00571 0.00884685 0)
(1.00505 0.0100666 0)
(1.00603 0.00989601 0)
(1.00869 0.00907767 0)
(1.00885 0.0089062 0)
(1.00841 0.00950757 0)
(1.00003 -0.00119011 0)
(0.998794 -0.000329267 0)
(0.998836 0.00160033 0)
(0.999786 0.00165235 0)
(1.00066 0.0024341 0)
(1.0014 0.00456613 0)
(1.00055 0.00536467 0)
(1.00091 0.00668935 0)
(1.0037 0.00632561 0)
(1.00531 0.00575303 0)
(1.0027 0.00720093 0)
(1.00236 0.00878217 0)
(1.00464 0.00853671 0)
(1.00733 0.00781639 0)
(1.00602 0.00847213 0)
(1.00522 0.00975307 0)
(1.00578 0.00987263 0)
(1.00837 0.00911503 0)
(1.00888 0.00875166 0)
(1.00868 0.00914584 0)
(1.00003 -0.00103523 0)
(0.998967 -0.000404526 0)
(0.998848 0.00151083 0)
(0.999694 0.00173397 0)
(1.00071 0.0023299 0)
(1.00147 0.00433811 0)
(1.00056 0.00519864 0)
(1.00079 0.00654647 0)
(1.0034 0.00633165 0)
(1.00522 0.00577431 0)
(1.00297 0.00698381 0)
(1.00242 0.00858291 0)
(1.00434 0.00850761 0)
(1.00717 0.00776615 0)
(1.00631 0.00816683 0)
(1.00547 0.00940344 0)
(1.00559 0.00974119 0)
(1.00801 0.00910808 0)
(1.0088 0.00859473 0)
(1.00884 0.00884025 0)
(1.00004 -0.000892106 0)
(0.999128 -0.000460142 0)
(0.998879 0.00139871 0)
(0.999608 0.00181816 0)
(1.00074 0.00225946 0)
(1.00153 0.00409793 0)
(1.0006 0.00503915 0)
(1.00069 0.00640805 0)
(1.0031 0.00629353 0)
(1.00511 0.00580762 0)
(1.00321 0.00679074 0)
(1.00252 0.00831995 0)
(1.00409 0.00845126 0)
(1.00698 0.00778534 0)
(1.00653 0.00792631 0)
(1.00574 0.00899146 0)
(1.00548 0.00951574 0)
(1.00763 0.00909184 0)
(1.00864 0.00846308 0)
(1.00894 0.00856633 0)
(1.00004 -0.000761528 0)
(0.999279 -0.00049866 0)
(0.998934 0.00127756 0)
(0.999529 0.0019041 0)
(1.00076 0.00219788 0)
(1.0016 0.00384661 0)
(1.00065 0.00485908 0)
(1.00062 0.00626592 0)
(1.00283 0.00627001 0)
(1.00497 0.00584269 0)
(1.00342 0.00659992 0)
(1.00265 0.00807128 0)
(1.00388 0.00837592 0)
(1.00673 0.0077706 0)
(1.00665 0.00768999 0)
(1.00603 0.00857412 0)
(1.00548 0.00923072 0)
(1.00727 0.00903772 0)
(1.00839 0.00837868 0)
(1.00897 0.0082959 0)
(1.00004 -0.000646154 0)
(0.999416 -0.000512534 0)
(0.999009 0.00113888 0)
(0.999461 0.00197083 0)
(1.00075 0.00216735 0)
(1.00167 0.00361049 0)
(1.00073 0.0046688 0)
(1.00057 0.0061269 0)
(1.00256 0.00622272 0)
(1.00481 0.00584583 0)
(1.00361 0.00643457 0)
(1.0028 0.00782565 0)
(1.0037 0.00823341 0)
(1.00645 0.00773684 0)
(1.00671 0.0075314 0)
(1.00631 0.00821122 0)
(1.00556 0.00888565 0)
(1.00696 0.00889432 0)
(1.00807 0.00833682 0)
(1.00893 0.00807658 0)
(1.00005 -0.000546807 0)
(0.999539 -0.000501715 0)
(0.999104 0.000992843 0)
(0.99941 0.00202332 0)
(1.00072 0.00216377 0)
(1.00172 0.00338147 0)
(1.00084 0.00444871 0)
(1.00055 0.00597972 0)
(1.00232 0.00617253 0)
(1.00463 0.005847 0)
(1.00376 0.00627707 0)
(1.00297 0.00757058 0)
(1.00356 0.00807685 0)
(1.00617 0.00769699 0)
(1.00668 0.00740106 0)
(1.00653 0.00785477 0)
(1.00569 0.00849148 0)
(1.00676 0.00867049 0)
(1.00773 0.0082877 0)
(1.00879 0.00792765 0)
(1.00005 -0.000463703 0)
(0.999644 -0.000467543 0)
(0.999215 0.000845924 0)
(0.999381 0.00204723 0)
(1.00067 0.00218056 0)
(1.00177 0.00318405 0)
(1.00097 0.00421332 0)
(1.00056 0.00581951 0)
(1.0021 0.00612201 0)
(1.00444 0.00582722 0)
(1.00389 0.00610599 0)
(1.00316 0.00731471 0)
(1.00347 0.00790176 0)
(1.00588 0.00761361 0)
(1.00659 0.00726926 0)
(1.0067 0.00755183 0)
(1.00587 0.00812574 0)
(1.00665 0.00840183 0)
(1.00741 0.00816263 0)
(1.00855 0.00781941 0)
(1.00005 -0.000397617 0)
(0.999733 -0.000411612 0)
(0.999338 0.000707138 0)
(0.999377 0.00203845 0)
(1.00061 0.00222018 0)
(1.00179 0.00303043 0)
(1.00111 0.00396037 0)
(1.00062 0.00562595 0)
(1.00191 0.00606145 0)
(1.00422 0.00581027 0)
(1.00399 0.00593893 0)
(1.00336 0.00704368 0)
(1.00341 0.00769773 0)
(1.0056 0.00751498 0)
(1.00645 0.00715375 0)
(1.00681 0.00729468 0)
(1.00604 0.00776355 0)
(1.0066 0.00808757 0)
(1.00715 0.00795751 0)
(1.00827 0.00770201 0)
(1.00006 -0.000345658 0)
(0.999803 -0.000339792 0)
(0.999465 0.000585573 0)
(0.999401 0.00200036 0)
(1.00055 0.00225875 0)
(1.00179 0.0029269 0)
(1.00127 0.00371483 0)
(1.00072 0.00540762 0)
(1.00174 0.00597536 0)
(1.00399 0.00579216 0)
(1.00405 0.00577888 0)
(1.00358 0.0067461 0)
(1.0034 0.00746159 0)
(1.00534 0.00739508 0)
(1.00626 0.00703548 0)
(1.00686 0.00704754 0)
(1.0062 0.00740127 0)
(1.00659 0.00776999 0)
(1.00695 0.00773018 0)
(1.008 0.00754237 0)
(1.00006 -0.000308559 0)
(0.999857 -0.000254289 0)
(0.999591 0.000485022 0)
(0.999451 0.00193676 0)
(1.00048 0.00228943 0)
(1.00176 0.00287403 0)
(1.00142 0.00349467 0)
(1.00087 0.0051517 0)
(1.00162 0.00584872 0)
(1.00374 0.00576317 0)
(1.00406 0.00563862 0)
(1.00379 0.00643565 0)
(1.00344 0.00718133 0)
(1.00511 0.0072359 0)
(1.00603 0.00691484 0)
(1.00683 0.00684366 0)
(1.00634 0.00706452 0)
(1.00664 0.00743489 0)
(1.0068 0.00748881 0)
(1.00776 0.00732758 0)
(1.00007 -0.000280759 0)
(0.999897 -0.000163614 0)
(0.99971 0.000408155 0)
(0.999524 0.00185187 0)
(1.00043 0.00230255 0)
(1.0017 0.00285357 0)
(1.00156 0.00331548 0)
(1.00104 0.00487193 0)
(1.00155 0.00567806 0)
(1.0035 0.00571431 0)
(1.00402 0.00552038 0)
(1.00398 0.00612998 0)
(1.00352 0.00686111 0)
(1.00492 0.00704037 0)
(1.0058 0.00677385 0)
(1.00673 0.00667206 0)
(1.00643 0.00676432 0)
(1.00671 0.00705821 0)
(1.00668 0.0072197 0)
(1.00753 0.00709075 0)
(1.00007 -0.000262091 0)
(0.999922 -7.33375e-05 0)
(0.999818 0.000361608 0)
(0.999614 0.00175419 0)
(1.0004 0.0022898 0)
(1.00163 0.00284206 0)
(1.00166 0.00318317 0)
(1.00122 0.00459199 0)
(1.00153 0.0054603 0)
(1.00328 0.00562987 0)
(1.00393 0.00542044 0)
(1.00413 0.00585372 0)
(1.00364 0.00651113 0)
(1.00478 0.00680579 0)
(1.00558 0.00660029 0)
(1.0066 0.00648841 0)
(1.00643 0.00652452 0)
(1.0068 0.00668874 0)
(1.00663 0.00691637 0)
(1.00734 0.00685684 0)
(1.00008 -0.000248165 0)
(0.999938 1.26616e-05 0)
(0.999911 0.000341152 0)
(0.999715 0.00164994 0)
(1.00038 0.00225261 0)
(1.00154 0.00282785 0)
(1.00173 0.00308369 0)
(1.00141 0.00432533 0)
(1.00155 0.00521301 0)
(1.00308 0.0055055 0)
(1.00381 0.00532191 0)
(1.00422 0.00561484 0)
(1.00378 0.00615055 0)
(1.0047 0.0065268 0)
(1.00536 0.00641204 0)
(1.00645 0.006274 0)
(1.00638 0.00631227 0)
(1.00683 0.00637287 0)
(1.00663 0.00656715 0)
(1.00717 0.00661086 0)
(1.00009 -0.000237103 0)
(0.999946 9.01163e-05 0)
(0.999987 0.000342926 0)
(0.99982 0.0015477 0)
(1.00039 0.00218968 0)
(1.00146 0.00280366 0)
(1.00177 0.00301017 0)
(1.00158 0.00407906 0)
(1.00161 0.00494757 0)
(1.00293 0.00534167 0)
(1.00367 0.00520614 0)