/*--------------------------------*- C++ -*----------------------------------*\
| =========                 |                                                 |
| \\      /  F ield         | OpenFOAM: The Open Source CFD Toolbox           |
|  \\    /   O peration     | Version:  v1912                                 |
|   \\  /    A nd           | Website:  www.openfoam.com                      |
|    \\/     M anipulation  |                                                 |
\*---------------------------------------------------------------------------*/
FoamFile
{
    version     2.0;
    format      ascii;
    class       volVectorField;
    location    "1.05";
    object      U;
}
// * * * * * * * * * * * * * * * * * * * * * * * * * * * * * * * * * * * * * //

dimensions      [0 1 -1 0 0 0 0];


internalField   nonuniform List<vector> 
9600
(
(0.934502 0.00330351 0)
(1.07075 -0.00728042 0)
(0.896831 0.00230228 0)
(1.10683 0.00710782 0)
(0.920859 0.0012821 0)
(1.00887 -0.0127084 0)
(0.959837 0.00685017 0)
(1.10813 -0.0177794 0)
(0.841024 0.0156075 0)
(1.17029 0.00846458 0)
(0.784463 0.00332458 0)
(1.13747 0.0175644 0)
(0.841797 0.00158398 0)
(1.07819 0.00561102 0)
(0.9002 -0.0105542 0)
(1.06545 -0.00761039 0)
(0.899989 -0.0145441 0)
(1.07928 -0.0154182 0)
(0.884212 -0.0075128 0)
(1.108 -0.020704 0)
(0.939712 0.00322733 0)
(1.06283 -0.00689511 0)
(0.903685 0.00190859 0)
(1.09583 0.00699582 0)
(0.933222 0.00228829 0)
(1.00308 -0.0129761 0)
(0.963977 0.00548187 0)
(1.09572 -0.0159664 0)
(0.851634 0.0146851 0)
(1.14634 0.00982893 0)
(0.819034 0.00366184 0)
(1.09828 0.0169776 0)
(0.900482 0.00277311 0)
(1.03248 0.00447048 0)
(0.959747 -0.0102307 0)
(1.01303 -0.00768482 0)
(0.971599 -0.0145318 0)
(1.0015 -0.0156136 0)
(0.98138 -0.00742027 0)
(0.994517 -0.0220882 0)
(0.949582 0.00318266 0)
(1.05028 -0.00656543 0)
(0.918286 0.00153276 0)
(1.07532 0.00689553 0)
(0.951907 0.00289456 0)
(0.995712 -0.0131999 0)
(0.971256 0.00445208 0)
(1.0773 -0.0146074 0)
(0.876835 0.0137587 0)
(1.10533 0.0103587 0)
(0.876002 0.00410627 0)
(1.04105 0.0158615 0)
(0.951618 0.00362979 0)
(0.998643 0.0035056 0)
(0.982651 -0.00985475 0)
(0.991772 -0.00809004 0)
(0.982875 -0.014189 0)
(0.983408 -0.015785 0)
(0.98599 -0.00816803 0)
(0.988229 -0.0187226 0)
(0.962182 0.00316675 0)
(1.03596 -0.00631135 0)
(0.937721 0.00129456 0)
(1.05106 0.00670525 0)
(0.971064 0.00343788 0)
(0.990166 -0.0132539 0)
(0.979215 0.00362376 0)
(1.05666 -0.0135677 0)
(0.909688 0.0133037 0)
(1.06366 0.0103329 0)
(0.928992 0.00496581 0)
(0.99941 0.0147807 0)
(0.977783 0.00408334 0)
(0.989035 0.00308487 0)
(0.987426 -0.00975211 0)
(0.988997 -0.00819205 0)
(0.983845 -0.0138163 0)
(0.980843 -0.016083 0)
(0.982925 -0.00790003 0)
(0.984479 -0.0181665 0)
(0.975019 0.00316452 0)
(1.02268 -0.00611543 0)
(0.957457 0.00116178 0)
(1.02915 0.00648932 0)
(0.986333 0.0038589 0)
(0.988363 -0.0132146 0)
(0.985559 0.00291582 0)
(1.03764 -0.0128321 0)
(0.940078 0.0132231 0)
(1.0332 0.0101138 0)
(0.964594 0.0058423 0)
(0.983359 0.0141347 0)
(0.989464 0.00414572 0)
(0.991872 0.00287915 0)
(0.99159 -0.00957758 0)
(0.990272 -0.0082929 0)
(0.987502 -0.013367 0)
(0.980857 -0.0161224 0)
(0.98255 -0.00790961 0)
(0.981728 -0.0174557 0)
(0.985974 0.00316826 0)
(1.01234 -0.00597401 0)
(0.973854 0.00110267 0)
(1.01331 0.00629642 0)
(0.996132 0.00411964 0)
(0.989828 -0.0131074 0)
(0.989674 0.00239202 0)
(1.02241 -0.0123397 0)
(0.961716 0.0132847 0)
(1.01603 0.00982982 0)
(0.984016 0.006483 0)
(0.983657 0.0138014 0)
(0.996462 0.0040192 0)
(0.997523 0.00271114 0)
(0.996948 -0.0093008 0)
(0.99305 -0.00837139 0)
(0.990975 -0.0128926 0)
(0.982724 -0.0159886 0)
(0.982405 -0.00793865 0)
(0.980701 -0.0165748 0)
(0.993976 0.0031709 0)
(1.00539 -0.00587581 0)
(0.985419 0.00109054 0)
(1.00406 0.00614235 0)
(1.00131 0.00424105 0)
(0.992788 -0.01295 0)
(0.992384 0.00205336 0)
(1.01119 -0.0120156 0)
(0.973911 0.0133329 0)
(1.00791 0.00955722 0)
(0.99333 0.00688462 0)
(0.989108 0.0135778 0)
(1.00192 0.00387101 0)
(1.00254 0.00254481 0)
(1.00155 -0.00896205 0)
(0.996444 -0.00839567 0)
(0.993712 -0.0123767 0)
(0.98517 -0.0157357 0)
(0.982599 -0.00792665 0)
(0.980348 -0.0155459 0)
(0.999055 0.0031688 0)
(1.00118 -0.00580478 0)
(0.992529 0.00109742 0)
(0.999732 0.0060286 0)
(1.00364 0.00426709 0)
(0.995663 -0.0127716 0)
(0.994692 0.00186334 0)
(1.00319 -0.0117688 0)
(0.979409 0.0133165 0)
(1.00404 0.0093035 0)
(0.997375 0.00710409 0)
(0.994138 0.0133617 0)
(1.00599 0.00374182 0)
(1.00625 0.00237876 0)
(1.00481 -0.00859259 0)
(0.99947 -0.00836255 0)
(0.996167 -0.0118464 0)
(0.987656 -0.0153707 0)
(0.98342 -0.00783969 0)
(0.98053 -0.014404 0)
(1.00188 0.00316284 0)
(0.99881 -0.00574838 0)
(0.996401 0.00110361 0)
(0.998242 0.00594606 0)
(1.00463 0.00423662 0)
(0.997712 -0.0125961 0)
(0.996956 0.00179051 0)
(0.997562 -0.0115305 0)
(0.981529 0.0132292 0)
(1.00169 0.00905639 0)
(0.998863 0.00718673 0)
(0.997522 0.0131219 0)
(1.00868 0.00363296 0)
(1.00872 0.00221888 0)
(1.00691 -0.0081966 0)
(1.00171 -0.00830301 0)
(0.998282 -0.0113287 0)
(0.990103 -0.0148896 0)
(0.984769 -0.00768755 0)
(0.981313 -0.0132018 0)
(1.00322 0.00315522 0)
(0.99763 -0.0056982 0)
(0.998204 0.00110078 0)
(0.998048 0.00588069 0)
(1.00516 0.00417765 0)
(0.99887 -0.012432 0)
(0.998938 0.00180473 0)
(0.993809 -0.0112689 0)
(0.982539 0.0130803 0)
(1.00004 0.00881652 0)
(0.999245 0.00716651 0)
(0.999622 0.0128522 0)
(1.01024 0.00353455 0)
(1.01019 0.0020706 0)
(1.00812 -0.00779503 0)
(1.00315 -0.00822977 0)
(0.999843 -0.0108285 0)
(0.992301 -0.0143225 0)
(0.986367 -0.00749951 0)
(0.982548 -0.0119821 0)
(1.00364 0.00314666 0)
(0.997326 -0.00564816 0)
(0.998723 0.00108844 0)
(0.998311 0.00581895 0)
(1.00564 0.00410752 0)
(0.999367 -0.0122749 0)
(1.00024 0.00187425 0)
(0.991679 -0.0109801 0)
(0.983419 0.0128827 0)
(0.999068 0.00859342 0)
(0.999326 0.00707022 0)
(1.00094 0.0125526 0)
(1.011 0.00344306 0)
(1.01086 0.00193289 0)
(1.00863 -0.00740198 0)
(1.00388 -0.00812747 0)
(1.00076 -0.0103642 0)
(0.994003 -0.0137137 0)
(0.987885 -0.00730002 0)
(0.983961 -0.010765 0)
(1.00352 0.00313584 0)
(0.997697 -0.00559358 0)
(0.998433 0.00107064 0)
(0.998646 0.0057491 0)
(1.00619 0.00403546 0)
(0.999481 -0.0121123 0)
(1.00067 0.0019689 0)
(0.990933 -0.0106722 0)
(0.984326 0.0126474 0)
(0.998805 0.00839598 0)
(0.999468 0.00691618 0)
(1.00171 0.0122388 0)
(1.01121 0.0033583 0)
(1.01094 0.00180715 0)
(1.00863 -0.0070164 0)
(1.00408 -0.00799483 0)
(1.0011 -0.00995154 0)
(0.995102 -0.0130929 0)
(0.989073 -0.00708927 0)
(0.985283 -0.00957873 0)
(1.00309 0.00312045 0)
(0.998511 -0.00553084 0)
(0.997681 0.00105303 0)
(0.998894 0.00566195 0)
(1.00678 0.00396501 0)
(0.99943 -0.0119297 0)
(1.00032 0.00206356 0)
(0.991208 -0.0103547 0)
(0.985132 0.0123822 0)
(0.999062 0.00822252 0)
(0.999742 0.00672553 0)
(1.00204 0.0119301 0)
(1.01107 0.00327307 0)
(1.0106 0.00170089 0)
(1.00829 -0.00664482 0)
(1.00395 -0.00784072 0)
(1.00102 -0.00957516 0)
(0.995664 -0.0124738 0)
(0.98985 -0.00685664 0)
(0.986347 -0.00846816 0)
(1.00254 0.00309867 0)
(0.999488 -0.00545786 0)
(0.99677 0.00104042 0)
(0.999005 0.00555223 0)
(1.00733 0.00389519 0)
(0.999347 -0.011715 0)
(0.999492 0.00214088 0)
(0.992042 -0.0100342 0)
(0.985754 0.0120927 0)
(0.999526 0.0080674 0)
(1.00008 0.00651822 0)
(1.00198 0.0116362 0)
(1.01073 0.00318464 0)
(1.01006 0.00161845 0)
(1.0078 -0.00629158 0)
(1.00368 -0.00766319 0)
(1.00071 -0.00921501 0)
(0.995858 -0.011863 0)
(0.990289 -0.00659928 0)
(0.987117 -0.00746435 0)
(1.00203 0.00306995 0)
(1.00039 -0.00537426 0)
(0.995947 0.00103559 0)
(0.998993 0.00541899 0)
(1.00773 0.00382323 0)
(0.99929 -0.011462 0)
(0.998549 0.00219157 0)
(0.993008 -0.00971198 0)
(0.986224 0.0117822 0)
(0.999935 0.00792888 0)
(1.00041 0.00630364 0)
(1.00168 0.011362 0)
(1.0103 0.00309096 0)
(1.00948 0.00155169 0)
(1.00726 -0.00595542 0)
(1.0034 -0.00746036 0)
(1.00034 -0.00884717 0)
(0.995872 -0.0112807 0)
(0.990531 -0.00632178 0)
(0.987656 -0.00656196 0)
(1.00162 0.00303495 0)
(1.00106 -0.00528087 0)
(0.995362 0.00103861 0)
(0.998912 0.00526565 0)
(1.00795 0.00374652 0)
(0.99927 -0.0111714 0)
(0.997747 0.00221464 0)
(0.993839 -0.00938562 0)
(0.986624 0.0114524 0)
(1.00017 0.00780712 0)
(1.00068 0.00608277 0)
(1.00128 0.0111098 0)
(1.00985 0.00298451 0)
(1.00896 0.0015007 0)
(1.00676 -0.00563169 0)
(1.00316 -0.00724439 0)
(1.00001 -0.00844578 0)
(0.995845 -0.0107395 0)
(0.990714 -0.00602641 0)
(0.988063 -0.00573982 0)
(1.00134 0.00299497 0)
(1.00148 -0.00517948 0)
(0.995047 0.00104748 0)
(0.998822 0.00509865 0)
(1.00796 0.00366309 0)
(0.999275 -0.0108486 0)
(0.997199 0.00221354 0)
(0.994448 -0.00904973 0)
(0.987008 0.0111017 0)
(1.00023 0.00770334 0)
(1.00087 0.005853 0)
(1.0009 0.0108769 0)
(1.00943 0.00286335 0)
(1.00854 0.00146041 0)
(1.00632 -0.00530666 0)
(1.00299 -0.00703007 0)
(0.999758 -0.00800775 0)
(0.995852 -0.0102205 0)
(0.99092 -0.00572496 0)
(0.98842 -0.00498309 0)
(1.00117 0.00295139 0)
(1.00169 -0.00507181 0)
(0.994957 0.00105918 0)
(0.998762 0.00492478 0)
(1.00781 0.00357189 0)
(0.999287 -0.0104994 0)
(0.996898 0.00219112 0)
(0.994868 -0.00869832 0)
(0.987396 0.0107268 0)
(1.00017 0.00762068 0)
(1.00101 0.00560875 0)
(1.0006 0.0106609 0)
(1.00903 0.00273296 0)
(1.00819 0.0014192 0)
(1.00594 -0.00496827 0)
(1.00286 -0.00682838 0)
(0.999569 -0.00753275 0)
(0.995913 -0.00970706 0)
(0.991186 -0.0054417 0)
(0.988776 -0.004275 0)
(1.00108 0.00290521 0)
(1.00176 -0.00495921 0)
(0.995011 0.00107118 0)
(0.998746 0.00474903 0)
(1.00756 0.00347325 0)
(0.999292 -0.0101299 0)
(0.996777 0.00215225 0)
(0.995171 -0.00833033 0)
(0.987785 0.0103281 0)
(1.00004 0.00755549 0)
(1.00112 0.00534946 0)
(1.00037 0.0104538 0)
(1.00865 0.00260231 0)
(1.00788 0.00137292 0)
(1.0056 -0.0046119 0)
(1.00276 -0.00665098 0)
(0.999429 -0.00701838 0)
(0.996016 -0.00918838 0)
(0.991515 -0.00519025 0)
(0.989145 -0.00359723 0)
(1.00102 0.00285708 0)
(1.00177 -0.00484267 0)
(0.995141 0.00108161 0)
(0.998763 0.00457527 0)
(1.00727 0.00336632 0)
(0.999286 -0.00974336 0)
(0.996761 0.0020969 0)
(0.995417 -0.00793927 0)
(0.988176 0.00990251 0)
(0.999895 0.00750762 0)
(1.00122 0.00507634 0)
(1.00019 0.0102485 0)
(1.00827 0.00247103 0)
(1.00759 0.0013128 0)
(1.00526 -0.00422789 0)
(1.00267 -0.00649649 0)
(0.999328 -0.00648782 0)
(0.99614 -0.00864358 0)
(0.991903 -0.00498698 0)
(0.989529 -0.00295169 0)
(1.00098 0.0028072 0)
(1.00174 -0.00472233 0)
(0.9953 0.00108876 0)
(0.998799 0.00440578 0)
(1.00696 0.00325226 0)
(0.999274 -0.00934134 0)
(0.996791 0.00202365 0)
(0.995642 -0.00752337 0)
(0.988571 0.00945115 0)
(0.999743 0.00747849 0)
(1.00133 0.00478771 0)
(1.00005 0.0100445 0)
(1.00789 0.00235023 0)
(1.00731 0.00123273 0)
(1.00491 -0.00380486 0)
(1.0026 -0.0063578 0)
(0.999261 -0.00597351 0)
(0.996265 -0.00804869 0)
(0.992337 -0.00483625 0)
(0.989928 -0.00235903 0)
(1.00095 0.00275554 0)
(1.00171 -0.00459841 0)
(0.995467 0.00109227 0)
(0.998842 0.00424112 0)
(1.00666 0.00313156 0)
(0.99926 -0.0089252 0)
(0.996836 0.00193524 0)
(0.995858 -0.00708777 0)
(0.988972 0.00898089 0)
(0.999593 0.00746049 0)
(1.00146 0.00448849 0)
(0.999924 0.00983153 0)
(1.00749 0.00226145 0)
(1.00704 0.00112069 0)
(1.00455 -0.0033435 0)
(1.00253 -0.00622233 0)
(0.999229 -0.00549968 0)
(0.996379 -0.00738922 0)
(0.992803 -0.00472364 0)
(0.990345 -0.00184169 0)
(1.00091 0.0027022 0)
(1.00168 -0.00447114 0)
(0.995634 0.00109121 0)
(0.998883 0.00408316 0)
(1.00637 0.00300108 0)
(0.99925 -0.00849403 0)
(0.99688 0.00182937 0)
(0.996068 -0.00662813 0)
(0.989381 0.00848935 0)
(0.999443 0.00745119 0)
(1.00161 0.00418937 0)
(0.99982 0.00960531 0)
(1.00708 0.00220186 0)
(1.00678 0.000974929 0)
(1.00418 -0.00286074 0)
(1.00244 -0.00606371 0)
(0.999233 -0.00508498 0)
(0.996476 -0.00666537 0)
(0.993284 -0.00462518 0)
(0.990789 -0.00142169 0)
(1.00088 0.00264692 0)
(1.00165 -0.00434008 0)
(0.995801 0.00108522 0)
(0.998922 0.00393154 0)
(1.00607 0.00286357 0)
(0.999245 -0.00804924 0)
(0.996923 0.00170681 0)
(0.996274 -0.00615022 0)
(0.989801 0.00798192 0)
(0.999293 0.00744704 0)
(1.00175 0.00388955 0)
(0.999735 0.00936296 0)
(1.00665 0.00217202 0)
(1.00654 0.000795599 0)
(1.00381 -0.00236434 0)
(1.00235 -0.00585591 0)
(0.999274 -0.00474715 0)
(0.996556 -0.00588895 0)
(0.993759 -0.00449762 0)
(0.991268 -0.00112386 0)
(1.00084 0.0025897 0)
(1.00162 -0.00420547 0)
(0.995968 0.00107422 0)
(0.998957 0.00378829 0)
(1.00579 0.00271741 0)
(0.999244 -0.00759122 0)
(0.996967 0.00157013 0)
(0.996475 -0.0056602 0)
(0.990232 0.00746596 0)
(0.999142 0.00744192 0)
(1.00189 0.00359761 0)
(0.999671 0.00909382 0)
(1.00622 0.00219299 0)
(1.00631 0.000580974 0)
(1.00345 -0.00186602 0)
(1.00223 -0.00559074 0)
(0.999352 -0.0044957 0)
(0.996626 -0.00509918 0)
(0.994209 -0.00429954 0)
(0.991784 -0.000959555 0)
(1.0008 0.00253033 0)
(1.0016 -0.00406674 0)
(0.996137 0.00105704 0)
(0.99899 0.00365524 0)
(1.0055 0.00256095 0)
(0.999245 -0.0071198 0)
(0.997014 0.00142147 0)
(0.996672 -0.00516023 0)
(0.990674 0.00694543 0)
(0.998992 0.00742786 0)
(1.00201 0.00333096 0)
(0.999624 0.00879289 0)
(1.00579 0.00226145 0)
(1.0061 0.000346827 0)
(1.0031 -0.00139741 0)
(1.00209 -0.00525422 0)
(0.999464 -0.00431894 0)
(0.996699 -0.00434473 0)
(0.994617 -0.00400557 0)
(0.992335 -0.000911625 0)
(1.00076 0.00246863 0)
(1.00157 -0.0039233 0)
(0.996308 0.00103252 0)
(0.999022 0.00353278 0)
(1.00522 0.00239592 0)
(0.999248 -0.00663633 0)
(0.997066 0.00126491 0)
(0.996866 -0.00465797 0)
(0.991126 0.00642943 0)
(0.998844 0.00739487 0)
(1.00211 0.00308761 0)
(0.999594 0.00845755 0)
(1.00535 0.00237289 0)
(1.00591 0.00010185 0)
(1.00278 -0.000969884 0)
(1.00192 -0.00483486 0)
(0.999601 -0.0041974 0)
(0.996788 -0.00365297 0)
(0.994971 -0.00359544 0)
(0.99291 -0.000944066 0)
(1.00072 0.00240459 0)
(1.00155 -0.00377587 0)
(0.996482 0.00100112 0)
(0.999051 0.00342145 0)
(1.00494 0.00222089 0)
(0.99925 -0.00614662 0)
(0.997126 0.00110456 0)
(0.997059 -0.00415698 0)
(0.991585 0.00592456 0)
(0.998701 0.00734307 0)
(1.00219 0.00287066 0)
(0.999578 0.00808981 0)
(1.00492 0.00252613 0)
(1.00573 -0.000138842 0)
(1.0025 -0.000596176 0)
(1.00172 -0.00433383 0)
(0.999756 -0.00410452 0)
(0.996909 -0.00305183 0)
(0.995268 -0.00307446 0)
(0.993488 -0.0010016 0)
(1.00067 0.00233799 0)
(1.00152 -0.00362344 0)
(0.99666 0.000961217 0)
(0.999079 0.00332185 0)
(1.00466 0.00203872 0)
(0.99925 -0.0056525 0)
(0.997193 0.000942972 0)
(0.997251 -0.00366511 0)
(0.992048 0.00544286 0)
(0.998565 0.00726204 0)
(1.00224 0.00268692 0)
(0.999578 0.00768934 0)
(1.00448 0.00270609 0)
(1.00556 -0.000357329 0)
(1.00225 -0.000291293 0)
(1.0015 -0.00376505 0)
(0.999917 -0.00400493 0)
(0.997073 -0.00256603 0)
(0.995511 -0.00248339 0)
(0.994044 -0.00101747 0)
(1.00063 0.00226858 0)
(1.0015 -0.00346505 0)
(0.996841 0.00091021 0)
(0.999107 0.00323844 0)
(1.00439 0.00185004 0)
(0.999247 -0.00515805 0)
(0.997267 0.000787483 0)
(0.997444 -0.00319637 0)
(0.992513 0.00499572 0)
(0.998439 0.00714555 0)
(1.00228 0.00253478 0)
(0.999593 0.00725829 0)
(1.00404 0.00290678 0)
(1.0054 -0.000536422 0)
(1.00206 -6.45185e-05 0)
(1.00125 -0.00314345 0)
(1.00007 -0.00386606 0)
(0.997288 -0.00220319 0)
(0.995717 -0.00187658 0)
(0.994551 -0.000937741 0)
(1.00059 0.00219592 0)
(1.00147 -0.00330071 0)
(0.997024 0.000850132 0)
(0.999135 0.00316715 0)
(1.00413 0.0016588 0)
(0.999242 -0.00466966 0)
(0.997346 0.000642212 0)
(0.997637 -0.00275561 0)
(0.992977 0.00458463 0)
(0.998324 0.00700492 0)
(1.0023 0.00241564 0)
(0.999627 0.00680784 0)
(1.00359 0.00311561 0)
(1.00524 -0.000665743 0)
(1.00191 8.21855e-05 0)
(1.00098 -0.002491 0)
(1.0002 -0.00366061 0)
(0.997553 -0.00195983 0)
(0.995908 -0.00130489 0)
(0.994988 -0.000731146 0)
(1.00055 0.00212043 0)
(1.00144 -0.00313035 0)
(0.997211 0.000779034 0)
(0.999161 0.00310912 0)
(1.00388 0.00146791 0)
(0.999236 -0.00419158 0)
(0.997428 0.000517115 0)
(0.997831 -0.00235392 0)
(0.993439 0.00421537 0)
(0.998222 0.00683565 0)
(1.00231 0.00232864 0)
(0.999681 0.00634197 0)
(1.00315 0.00331934 0)
(1.00507 -0.000736407 0)
(1.00182 0.000153385 0)
(1.00071 -0.00184473 0)
(1.00029 -0.00337629 0)
(0.997862 -0.00180636 0)
(0.996112 -0.000800706 0)
(0.995347 -0.000409298 0)
(1.00052 0.00204117 0)
(1.00141 -0.00295189 0)
(0.9974 0.000694461 0)
(0.999187 0.00306511 0)
(1.00363 0.00128161 0)
(0.999231 -0.00373163 0)
(0.997513 0.000419817 0)
(0.998024 -0.00200073 0)
(0.993897 0.00388499 0)
(0.998131 0.00664134 0)
(1.00231 0.00226465 0)
(0.999756 0.00586551 0)
(1.00271 0.00351354 0)
(1.00489 -0.000736872 0)
(1.00179 0.00015761 0)
(1.00045 -0.00122728 0)
(1.00034 -0.00300685 0)
(0.998203 -0.00169908 0)
(0.996349 -0.000386292 0)
(0.995638 -3.57751e-05 0)
(1.00048 0.0019583 0)
(1.00138 -0.00276655 0)
(0.997591 0.000600077 0)
(0.999211 0.00302844 0)
(1.0034 0.00110146 0)
(0.99923 -0.00329473 0)
(0.997598 0.000356112 0)
(0.998217 -0.00168876 0)
(0.994352 0.00358443 0)
(0.998053 0.0064317 0)
(1.00229 0.00222384 0)
(0.999855 0.00538587 0)
(1.00229 0.00368936 0)
(1.00468 -0.000663071 0)
(1.00182 0.000108625 0)
(1.00022 -0.000661831 0)
(1.00034 -0.00256069 0)
(0.998559 -0.00160555 0)
(0.99663 -8.92004e-05 0)
(0.995878 0.000376641 0)
(1.00044 0.00187175 0)
(1.00134 -0.00257369 0)
(0.997785 0.00049438 0)
(0.999234 0.00299977 0)
(1.00318 0.00093366 0)
(0.999235 -0.0028882 0)
(0.997683 0.000332757 0)
(0.998408 -0.00142023 0)
(0.994803 0.0033103 0)
(0.997989 0.00621359 0)
(1.00225 0.00220016 0)
(0.999977 0.00490978 0)
(1.00188 0.00383473 0)
(1.00445 -0.000516256 0)
(1.00189 1.39618e-05 0)
(1.00004 -0.000170642 0)
(1.00028 -0.0020501 0)
(0.998906 -0.00149487 0)
(0.996969 0.000107359 0)
(0.996108 0.000782263 0)
(1.00041 0.00178149 0)
(1.0013 -0.00237356 0)
(0.997981 0.000380457 0)
(0.999256 0.00297293 0)
(1.00296 0.000786743 0)
(0.999247 -0.00252027 0)
(0.997767 0.000345363 0)
(0.998594 -0.00118617 0)
(0.995253 0.00305338 0)
(0.997939 0.00599243 0)
(1.0022 0.0021936 0)
(1.00012 0.00444322 0)
(1.0015 0.00394374 0)
(1.00417 -0.000300775 0)
(1.00199 -9.98979e-05 0)
(0.999908 0.00023523 0)
(1.00019 -0.00149782 0)
(0.999227 -0.00134796 0)
(0.997358 0.00023706 0)
(0.996352 0.00110736 0)
(1.00038 0.00168707 0)
(1.00126 -0.00216666 0)
(0.998178 0.000261347 0)
(0.999278 0.00294256 0)
(1.00275 0.000662805 0)
(0.999267 -0.00219202 0)
(0.997851 0.000390079 0)
(0.998773 -0.000975912 0)
(0.9957 0.00280911 0)
(0.997906 0.00576757 0)
(1.00213 0.00220954 0)
(1.00028 0.00398952 0)
(1.00117 0.0040083 0)
(1.00387 -2.14581e-05 0)
(1.00211 -0.000207569 0)
(0.999847 0.000547831 0)
(1.00006 -0.000931291 0)
(0.999503 -0.00114928 0)
(0.997784 0.000307386 0)
(0.996633 0.00134411 0)
(1.00034 0.00158937 0)
(1.00122 -0.00195395 0)
(0.998377 0.000138293 0)
(0.999301 0.00290285 0)
(1.00255 0.000569808 0)
(0.999296 -0.00190539 0)
(0.997936 0.000460693 0)
(0.998944 -0.000779668 0)
(0.996143 0.00256911 0)
(0.997893 0.00554315 0)
(1.00204 0.00224323 0)
(1.00046 0.00355604 0)
(1.00088 0.00401834 0)
(1.00353 0.000306131 0)
(1.00224 -0.000285512 0)
(0.999859 0.000759833 0)
(0.999926 -0.000373531 0)
(0.99972 -0.000892881 0)
(0.998225 0.000348633 0)
(0.996962 0.00150166 0)
(1.00032 0.00148849 0)
(1.00117 -0.00173783 0)
(0.998575 1.80435e-05 0)
(0.999326 0.00284536 0)
(1.00235 0.000513201 0)
(0.999334 -0.00165815 0)
(0.998022 0.000550694 0)
(0.999104 -0.000588739 0)
(0.996582 0.00233423 0)
(0.997901 0.00531212 0)
(1.00193 0.00229881 0)
(1.00065 0.00315397 0)
(1.00065 0.00397631 0)
(1.00317 0.000667327 0)
(1.00236 -0.000312798 0)
(0.999945 0.000871398 0)
(0.999793 0.000139174 0)
(0.999875 -0.000577985 0)
(0.998665 0.000388084 0)
(0.997339 0.00159844 0)
(1.00029 0.00138427 0)
(1.00112 -0.00151819 0)
(0.99877 -9.91713e-05 0)
(0.999355 0.00276521 0)
(1.00216 0.000495343 0)
(0.999381 -0.00144248 0)
(0.99811 0.000649825 0)
(0.999251 -0.000397677 0)
(0.997015 0.00210677 0)
(0.997934 0.00506988 0)
(1.00181 0.00237512 0)
(1.00084 0.00279094 0)
(1.00048 0.00387935 0)
(1.00279 0.00104133 0)
(1.00245 -0.000270136 0)
(1.0001 0.000901723 0)
(0.999689 0.000595946 0)
(0.999968 -0.000212057 0)
(0.999081 0.00043963 0)
(0.997757 0.00163937 0)
(1.00026 0.00127897 0)
(1.00106 -0.0013002 0)
(0.998962 -0.000210367 0)
(0.999391 0.00265765 0)
(1.00197 0.000513196 0)
(0.999434 -0.00125466 0)
(0.998203 0.000751182 0)
(0.999382 -0.000200208 0)
(0.997438 0.00189163 0)
(0.997995 0.00481423 0)
(1.00167 0.00246711 0)
(1.00103 0.00247883 0)
(1.00038 0.00372825 0)
(1.00242 0.00140041 0)
(1.0025 -0.000152152 0)
(1.0003 0.000875925 0)
(0.999632 0.000979562 0)
(1 0.000180442 0)
(0.999455 0.000523705 0)
(0.998206 0.00163553 0)
(1.00024 0.00117152 0)
(1.001 -0.00108239 0)
(0.999146 -0.000312232 0)
(0.999433 0.00252245 0)
(1.00179 0.000561047 0)
(0.999492 -0.0010875 0)
(0.998303 0.000844872 0)
(0.999497 6.68483e-06 0)
(0.997848 0.00169875 0)
(0.998085 0.00454268 0)
(1.00152 0.00256793 0)
(1.0012 0.00222803 0)
(1.00034 0.00353574 0)
(1.00205 0.00172573 0)
(1.0025 3.4573e-05 0)
(1.00055 0.000821858 0)
(0.999636 0.00126503 0)
(1 0.000583752 0)
(0.999769 0.000656644 0)
(0.998666 0.00161037 0)
(1.00022 0.00106393 0)
(1.00093 -0.00087016 0)
(0.999319 -0.000398841 0)
(0.999485 0.00236242 0)
(1.00161 0.00062964 0)
(0.999551 -0.000932241 0)
(0.99841 0.000923743 0)
(0.999597 0.000222506 0)
(0.998238 0.00153248 0)
(0.998205 0.00425863 0)
(1.00137 0.00266401 0)
(1.00135 0.00203853 0)
(1.00036 0.00331113 0)
(1.00172 0.00200079 0)
(1.00245 0.000278041 0)
(1.00081 0.00076981 0)
(0.999712 0.00145316 0)
(0.99998 0.000978705 0)
(1.00002 0.00083996 0)
(0.999116 0.00158602 0)
(1.0002 0.000957582 0)
(1.00086 -0.000667315 0)
(0.999481 -0.000465117 0)
(0.999546 0.00217954 0)
(1.00145 0.000710084 0)
(0.99961 -0.000784342 0)
(0.998526 0.00098423 0)
(0.999682 0.000443925 0)
(0.998605 0.0014068 0)
(0.998353 0.00396132 0)
(1.00121 0.00274304 0)
(1.00148 0.00191205 0)
(1.00044 0.00307474 0)
(1.00144 0.00221597 0)
(1.00235 0.000555696 0)
(1.00107 0.000749804 0)
(0.999859 0.00155072 0)
(0.999963 0.00133246 0)
(1.00019 0.00107421 0)
(0.999529 0.00159525 0)
(1.00018 0.000853627 0)
(1.00078 -0.000478396 0)
(0.999627 -0.000506286 0)
(0.999617 0.001977 0)
(1.00129 0.000796654 0)
(0.999665 -0.000635347 0)
(0.998652 0.00101754 0)
(0.999756 0.000661926 0)
(0.998943 0.00132938 0)
(0.998526 0.00366378 0)
(1.00107 0.0027986 0)
(1.00157 0.00184236 0)
(1.00055 0.00283709 0)
(1.0012 0.00236812 0)
(1.00221 0.000850242 0)
(1.0013 0.000775092 0)
(1.00007 0.00158198 0)
(0.999979 0.0016185 0)
(1.00031 0.00133234 0)
(0.999887 0.00164368 0)
(1.00017 0.000754413 0)
(1.0007 -0.000306063 0)
(0.999756 -0.000520524 0)
(0.999696 0.00176137 0)
(1.00114 0.000875854 0)
(0.999712 -0.000479437 0)
(0.998785 0.00102913 0)
(0.999824 0.000863919 0)
(0.999249 0.00130103 0)
(0.998717 0.00338092 0)
(1.00094 0.00282208 0)
(1.00163 0.00181256 0)
(1.00069 0.00261282 0)
(1.00103 0.00246115 0)
(1.00205 0.00114017 0)
(1.00149 0.000847066 0)
(1.00032 0.00157304 0)
(1.00004 0.00182669 0)
(1.00039 0.00158665 0)
(1.00018 0.00172907 0)
(1.00015 0.000661016 0)
(1.00062 -0.000153875 0)
(0.999865 -0.000502182 0)
(0.999782 0.00153715 0)
(1.00101 0.000939144 0)
(0.999752 -0.000313587 0)
(0.998924 0.00102619 0)
(0.999889 0.00104113 0)
(0.999521 0.00131421 0)
(0.998918 0.0031235 0)
(1.00083 0.00281398 0)
(1.00167 0.00181375 0)
(1.00084 0.00241202 0)
(1.00092 0.00249855 0)
(1.00188 0.00140974 0)
(1.00163 0.000966122 0)
(1.0006 0.0015481 0)
(1.00015 0.0019584 0)
(1.00046 0.00182092 0)
(1.0004 0.00185997 0)
(1.00014 0.000575167 0)
(1.00054 -2.57338e-05 0)
(0.999954 -0.000452691 0)
(0.999871 0.00131166 0)
(1.0009 0.000979454 0)
(0.999783 -0.000135445 0)
(0.999065 0.00101278 0)
(0.999957 0.00117933 0)
(0.999762 0.00135511 0)
(0.999121 0.00290229 0)
(1.00075 0.0027876 0)
(1.00168 0.00183419 0)
(1.00101 0.00223885 0)
(1.00086 0.00249354 0)
(1.00171 0.00165016 0)
(1.00172 0.00111989 0)
(1.00088 0.00152917 0)
(1.00032 0.00202334 0)
(1.00053 0.00200421 0)
(1.00057 0.00201503 0)
(1.00013 0.000498557 0)
(1.00046 7.87398e-05 0)
(1.00002 -0.000378166 0)
(0.99996 0.00109356 0)
(1.00081 0.000996236 0)
(0.999806 5.13472e-05 0)
(0.999203 0.000999147 0)
(1.00003 0.00126754 0)
(0.999976 0.00141137 0)
(0.999323 0.0027229 0)
(1.00068 0.0027447 0)
(1.00166 0.00186371 0)
(1.00117 0.00209365 0)
(1.00086 0.00245254 0)
(1.00156 0.0018534 0)
(1.00176 0.00129677 0)
(1.00114 0.00153212 0)
(1.00053 0.00204684 0)
(1.00063 0.00213121 0)
(1.00071 0.00215924 0)
(1.00012 0.000432537 0)
(1.00039 0.000158121 0)
(1.00007 -0.000283669 0)
(1.00005 0.000893439 0)
(1.00074 0.000985835 0)
(0.999823 0.000247233 0)
(0.999332 0.000999941 0)
(1.00011 0.00130583 0)
(1.00017 0.00146268 0)
(0.999517 0.0025865 0)
(1.00062 0.00270033 0)
(1.00163 0.00190595 0)
(1.00132 0.00197761 0)
(1.00091 0.00238037 0)
(1.00145 0.00200999 0)
(1.00176 0.00148435 0)
(1.00138 0.00156077 0)
(1.00077 0.0020486 0)
(1.00076 0.00221541 0)
(1.00084 0.00225594 0)
(1.00011 0.000376657 0)
(1.00032 0.000213956 0)
(1.00009 -0.00017925 0)
(1.00012 0.000726705 0)
(1.0007 0.00094083 0)
(0.999839 0.000441273 0)
(0.999444 0.00103406 0)
(1.00019 0.00131473 0)
(1.00035 0.00148183 0)
(0.999707 0.00247299 0)
(1.00059 0.00266198 0)
(1.00158 0.00195442 0)
(1.00145 0.00189337 0)
(1.001 0.00229119 0)
(1.00137 0.00211773 0)
(1.00174 0.00167182 0)
(1.00157 0.00161676 0)
(1.00102 0.00203307 0)
(1.00091 0.00227583 0)
(1.00099 0.00230408 0)
(1.0001 0.000332338 0)
(1.00026 0.000245164 0)
(1.00011 -6.98597e-05 0)
(1.00019 0.000599806 0)
(1.00068 0.000869831 0)
(0.999862 0.000609522 0)
(0.999539 0.0011063 0)
(1.00026 0.00131946 0)
(1.00052 0.00146437 0)
(0.999896 0.00236267 0)
(1.00056 0.00262676 0)
(1.00151 0.00201054 0)
(1.00156 0.00183923 0)
(1.00111 0.00219276 0)
(1.00134 0.00217342 0)
(1.0017 0.00183944 0)
(1.00171 0.00170549 0)
(1.00126 0.00200644 0)
(1.00108 0.00231632 0)
(1.00114 0.00233361 0)
(1.00009 0.000298529 0)
(1.00021 0.000255531 0)
(1.00011 4.08599e-05 0)
(1.00024 0.000516042 0)
(1.00068 0.000781101 0)
(0.999898 0.000738002 0)
(0.999618 0.00120025 0)
(1.00031 0.0013383 0)
(1.00068 0.00142511 0)
(1.00009 0.00223765 0)
(1.00056 0.00258819 0)
(1.00143 0.00207646 0)
(1.00164 0.00181909 0)
(1.00124 0.0021002 0)
(1.00135 0.00218545 0)
(1.00167 0.00196722 0)
(1.0018 0.00181749 0)
(1.0015 0.00198733 0)
(1.00126 0.0023236 0)
(1.00128 0.00237268 0)
(1.00008 0.000275095 0)
(1.00017 0.000248763 0)
(1.0001 0.000145022 0)
(1.00027 0.000477848 0)
(1.0007 0.000687139 0)
(0.999952 0.000818011 0)
(0.999689 0.00129542 0)
(1.00035 0.00138744 0)
(1.00082 0.00138935 0)
(1.00029 0.00209222 0)
(1.00058 0.00252857 0)
(1.00134 0.00214162 0)
(1.00168 0.00183039 0)
(1.00137 0.00202192 0)
(1.0014 0.00216955 0)
(1.00166 0.00205228 0)
(1.00186 0.00192818 0)
(1.0017 0.0019979 0)
(1.00146 0.00229629 0)
(1.00141 0.00241967 0)
(1.00008 0.000259225 0)
(1.00014 0.000234329 0)
(1.0001 0.00023016 0)
(1.00029 0.000478254 0)
(1.00072 0.000606991 0)
(1.00003 0.000849572 0)
(0.999763 0.00137741 0)
(1.00037 0.0014556 0)
(1.00093 0.00137517 0)
(1.00049 0.00194105 0)
(1.00063 0.00243907 0)
(1.00127 0.00219561 0)
(1.00169 0.00187002 0)
(1.00149 0.00196575 0)
(1.00147 0.00213546 0)
(1.00168 0.00210147 0)
(1.00191 0.00201427 0)
(1.00186 0.00203217 0)
(1.00166 0.00224783 0)
(1.00153 0.00244264 0)
(1.00007 0.00024822 0)
(1.00012 0.00021887 0)
(1.0001 0.000293132 0)
(1.00029 0.000504945 0)
(1.00074 0.000555182 0)
(1.00012 0.0008445 0)
(0.999844 0.0014336 0)
(1.00038 0.00152793 0)
(1.00101 0.00138735 0)
(1.00068 0.00180378 0)
(1.00072 0.00231556 0)
(1.00121 0.00222172 0)
(1.00168 0.00192294 0)
(1.00159 0.0019399 0)
(1.00157 0.00209423 0)
(1.00171 0.00212277 0)
(1.00195 0.00207573 0)
(1.00198 0.00207609 0)
(1.00187 0.00220308 0)
(1.00168 0.00242178 0)
(1.00006 0.000241435 0)
(1.0001 0.000204892 0)
(1.0001 0.000334977 0)
(1.00029 0.000545968 0)
(1.00075 0.000540598 0)
(1.00022 0.00081705 0)
(0.999941 0.00144967 0)
(1.00038 0.00159468 0)
(1.00106 0.00142631 0)
(1.00084 0.00169705 0)
(1.00083 0.00217562 0)
(1.00118 0.00221143 0)
(1.00166 0.00197113 0)
(1.00166 0.00193743 0)
(1.00166 0.00205826 0)
(1.00177 0.00211736 0)
(1.002 0.00210872 0)
(1.00206 0.002119 0)
(1.00204 0.00217825 0)
(1.00185 0.00236395 0)
(1.00006 0.000235932 0)
(1.00009 0.00019733 0)
(1.00011 0.000357013 0)
(1.00028 0.000588939 0)
(1.00076 0.000559844 0)
(1.00033 0.000785681 0)
(1.00005 0.0014271 0)
(1.00039 0.00164114 0)
(1.00108 0.0014771 0)
(1.00098 0.00162367 0)
(1.00096 0.00203912 0)
(1.00119 0.00216467 0)
(1.00164 0.00200454 0)
(1.00171 0.00194589 0)
(1.00175 0.00203542 0)
(1.00184 0.0021023 0)
(1.00206 0.00210925 0)
(1.00214 0.00214605 0)
(1.00217 0.00217787 0)
(1.00203 0.00229312 0)
(1.00005 0.000231075 0)
(1.00009 0.000196518 0)
(1.00013 0.000365519 0)
(1.00027 0.000625701 0)
(1.00076 0.000601053 0)
(1.00043 0.000764702 0)
(1.00018 0.00137827 0)
(1.00041 0.00166355 0)
(1.00109 0.00152951 0)
(1.00109 0.00158342 0)
(1.00109 0.00191679 0)
(1.00122 0.0020913 0)
(1.00163 0.0020135 0)
(1.00175 0.00195438 0)
(1.00183 0.00201358 0)
(1.00191 0.00209297 0)
(1.00213 0.00209684 0)
(1.00222 0.00213982 0)
(1.00226 0.00219051 0)
(1.00218 0.0022364 0)
(1.00005 0.000225837 0)
(1.00008 0.000201978 0)
(1.00015 0.000366774 0)
(1.00027 0.000651889 0)
(1.00075 0.000653758 0)
(1.00052 0.000763036 0)
(1.00031 0.0013139 0)
(1.00045 0.00165788 0)
(1.00109 0.00157467 0)
(1.00117 0.00156915 0)
(1.00121 0.00181791 0)
(1.00128 0.00200879 0)
(1.00163 0.00199607 0)
(1.00178 0.00195917 0)
(1.00191 0.0019875 0)
(1.00198 0.00207456 0)
(1.00218 0.00209407 0)
(1.00231 0.00210463 0)
(1.00235 0.00218377 0)
(1.0023 0.00220831 0)
(1.00005 0.000219835 0)
(1.00008 0.000213195 0)
(1.00018 0.000363795 0)
(1.00027 0.000664277 0)
(1.00074 0.00070809 0)
(1.00059 0.000781703 0)
(1.00045 0.00124778 0)
(1.00051 0.00162229 0)
(1.00109 0.00160454 0)
(1.00123 0.00156969 0)
(1.00132 0.00174365 0)
(1.00135 0.00192576 0)
(1.00166 0.00195727 0)
(1.00181 0.00195391 0)
(1.00197 0.00196807 0)
(1.00206 0.00203291 0)
(1.00223 0.00209099 0)
(1.00238 0.00207587 0)
(1.00245 0.00213743 0)
(1.00238 0.00219593 0)
(1.00004 0.000213455 0)
(1.00008 0.000226609 0)
(1.0002 0.000361306 0)
(1.00028 0.000665064 0)
(1.00073 0.00075571 0)
(1.00065 0.000814093 0)
(1.00058 0.00119212 0)
(1.00058 0.00156572 0)
(1.00109 0.00161369 0)
(1.00126 0.00157472 0)
(1.00141 0.0016918 0)