/*--------------------------------*- C++ -*----------------------------------*\
| =========                 |                                                 |
| \\      /  F ield         | OpenFOAM: The Open Source CFD Toolbox           |
|  \\    /   O peration     | Version:  v1912                                 |
|   \\  /    A nd           | Website:  www.openfoam.com                      |
|    \\/     M anipulation  |                                                 |
\*---------------------------------------------------------------------------*/
FoamFile
{
    version     2.0;
    format      ascii;
    class       surfaceScalarField;
    location    "4.95";
    object      phi;
}
// * * * * * * * * * * * * * * * * * * * * * * * * * * * * * * * * * * * * * //

dimensions      [0 3 -1 0 0 0 0];
oriented        oriented;


internalField   nonuniform List<scalar> 
19000
(
1.19867e-06
8.5019e-08
1.0203e-06
8.53683e-07
1.16959e-06
-2.63035e-06
1.27488e-06
8.11009e-07
1.15527e-06
2.29334e-08
1.17374e-06
3.06971e-07
1.16865e-06
-3.15813e-07
1.14451e-06
5.98917e-07
1.2169e-06
4.72563e-07
1.23224e-06
4.45344e-07
1.208e-06
1.63707e-07
1.19325e-06
5.27336e-07
1.20059e-06
8.77337e-08
1.17144e-06
1.78208e-07
1.17474e-06
1.00402e-08
1.17666e-06
5.80042e-08
1.17302e-06
-1.06357e-07
1.18883e-06
1.58865e-07
1.17995e-06
-1.24318e-09
1.27922e-07
1.17315e-06
1.2569e-06
5.23813e-08
1.08227e-06
1.02831e-06
1.23629e-06
-2.78437e-06
1.3549e-06
6.92399e-07
1.23699e-06
1.40837e-07
1.2475e-06
2.96469e-07
1.23887e-06
-3.07187e-07
1.20946e-06
6.28324e-07
1.28094e-06
4.01084e-07
1.30308e-06
4.23204e-07
1.27354e-06
1.93249e-07
1.26756e-06
5.3332e-07
1.26852e-06
8.67661e-08
1.2502e-06
1.96535e-07
1.23949e-06
2.07469e-08
1.25581e-06
4.16815e-08
1.23175e-06
-8.22949e-08
1.26818e-06
1.22432e-07
1.23193e-06
3.50103e-08
1.03225e-07
1.25663e-06
1.31696e-06
1.82034e-08
1.15667e-06
1.1886e-06
1.30513e-06
-2.93282e-06
1.44719e-06
5.50339e-07
1.3338e-06
2.5423e-07
1.33516e-06
2.95099e-07
1.31966e-06
-2.91685e-07
1.29295e-06
6.55041e-07
1.35212e-06
3.41907e-07
1.38952e-06
3.85809e-07
1.34882e-06
2.3395e-07
1.35335e-06
5.28789e-07
1.34237e-06
9.77425e-08
1.33638e-06
2.02529e-07
1.31129e-06
4.58332e-08
1.33057e-06
2.24071e-08
1.30235e-06
-5.40801e-08
1.32497e-06
9.98118e-08
1.30606e-06
5.39263e-08
1.08905e-07
1.30038e-06
1.37969e-06
-1.73807e-08
1.2431e-06
1.32519e-06
1.37652e-06
-3.06624e-06
1.5407e-06
3.86155e-07
1.43628e-06
3.58656e-07
1.42685e-06
3.04522e-07
1.40168e-06
-2.6651e-07
1.38549e-06
6.71232e-07
1.4289e-06
2.98495e-07
1.47555e-06
3.39161e-07
1.43178e-06
2.77721e-07
1.4372e-06
5.23367e-07
1.41884e-06
1.16103e-07
1.41333e-06
2.08039e-07
1.38552e-06
7.36378e-08
1.39484e-06
1.30911e-08
1.37615e-06
-3.53926e-08
1.38475e-06
9.1213e-08
1.37842e-06
6.02587e-08
1.20498e-07
1.36682e-06
1.44432e-06
-5.33496e-08
1.33757e-06
1.43194e-06
1.44643e-06
-3.1751e-06
1.62503e-06
2.07552e-07
1.53627e-06
4.47419e-07
1.51364e-06
3.2715e-07
1.47801e-06
-2.30877e-07
1.47573e-06
6.73506e-07
1.50583e-06
2.68396e-07
1.5503e-06
2.94698e-07
1.51586e-06
3.12156e-07
1.5159e-06
5.23329e-07
1.49389e-06
1.38112e-07
1.48314e-06
2.1879e-07
1.45684e-06
9.99416e-08
1.45644e-06
1.34833e-08
1.44477e-06
-2.37142e-08
1.44994e-06
8.60429e-08
1.44791e-06
6.22816e-08
1.29156e-07
1.43925e-06
1.51034e-06
-8.80091e-08
1.43383e-06
1.50845e-06
1.51154e-06
-3.25282e-06
1.69239e-06
2.67054e-08
1.62696e-06
5.12853e-07
1.59038e-06
3.6373e-07
1.54683e-06
-1.87327e-07
1.55695e-06
6.63383e-07
1.57845e-06
2.46892e-07
1.61281e-06
2.60341e-07
1.59377e-06
3.31198e-07
1.58962e-06
5.27482e-07
1.56464e-06
1.63091e-07
1.54962e-06
2.33806e-07
1.52414e-06
1.25423e-07
1.51756e-06
2.00617e-08
1.50827e-06
-1.44268e-08
1.51381e-06
8.05066e-08
1.51505e-06
6.10385e-08
1.33746e-07
1.51046e-06
1.57788e-06
-1.19675e-07
1.52774e-06
1.5586e-06
1.57225e-06
-3.29733e-06
1.74158e-06
-1.42623e-07
1.70418e-06
5.50258e-07
1.65712e-06
4.10793e-07
1.61048e-06
-1.40687e-07
1.62899e-06
6.44869e-07
1.64482e-06
2.3106e-07
1.66747e-06
2.37692e-07
1.66168e-06
3.36992e-07
1.65761e-06
5.31552e-07
1.63062e-06
1.90081e-07
1.61436e-06
2.50069e-07
1.58935e-06
1.50431e-07
1.57891e-06
3.05013e-08
1.56981e-06
-5.33175e-09
1.57496e-06
7.53607e-08
1.5789e-06
5.7096e-08
1.33842e-07
1.5788e-06
1.64775e-06
-1.47294e-07
1.61935e-06
1.58699e-06
1.63235e-06
-3.31033e-06
1.77768e-06
-2.87957e-07
1.76753e-06
5.60408e-07
1.71782e-06
4.60506e-07
1.67283e-06
-9.56995e-08
1.69505e-06
6.22647e-07
1.70584e-06
2.20276e-07
1.71919e-06
2.24335e-07
1.72113e-06
3.35055e-07
1.72025e-06
5.32435e-07
1.69372e-06
2.16608e-07
1.67894e-06
2.64852e-07
1.65523e-06
1.74132e-07
1.64235e-06
4.33835e-08
1.63273e-06
4.29413e-09
1.63596e-06
7.21269e-08
1.64084e-06
5.22143e-08
1.30191e-07
1.64449e-06
1.72087e-06
-1.70595e-07
1.71111e-06
1.59676e-06
1.69614e-06
-3.29536e-06
1.80892e-06
-4.00742e-07
1.82053e-06
5.48798e-07
1.7775e-06
5.0354e-07
1.73739e-06
-5.55902e-08
1.75912e-06
6.00917e-07
1.76482e-06
2.14574e-07
1.77236e-06
2.16796e-07
1.77725e-06
3.3016e-07
1.78045e-06
5.29237e-07
1.75697e-06
2.40085e-07
1.74547e-06
2.76361e-07
1.7243e-06
1.95295e-07
1.71019e-06
5.74938e-08
1.69991e-06
1.45783e-08
1.70031e-06
7.17295e-08
1.70418e-06
4.83439e-08
1.24737e-07
1.70963e-06
1.79795e-06
-1.89825e-07
1.80487e-06
1.58984e-06
1.7663e-06
-3.25679e-06
1.84387e-06
-4.78308e-07
1.86957e-06
5.231e-07
1.83997e-06
5.33139e-07
1.80643e-06
-2.20522e-08
1.82519e-06
5.8216e-07
1.82643e-06
2.13334e-07
1.83101e-06
2.12212e-07
1.83588e-06
3.2529e-07
1.84241e-06
5.22712e-07
1.8233e-06
2.59194e-07
1.81575e-06
2.83903e-07
1.79816e-06
2.12887e-07
1.78409e-06
7.15691e-08
1.77342e-06
2.52451e-08
1.77085e-06
7.43031e-08
1.77235e-06
4.6835e-08
1.19653e-07
1.77744e-06
1.87932e-06
-2.054e-07
1.9008e-06
1.56836e-06
1.84376e-06
-3.19975e-06
1.88943e-06
-5.2397e-07
1.92167e-06
4.90853e-07
1.90731e-06
5.47503e-07
1.88099e-06
4.26203e-09
1.89671e-06
5.66447e-07
1.89497e-06
2.15074e-07
1.89841e-06
2.08769e-07
1.90146e-06
3.22238e-07
1.90962e-06
5.14557e-07
1.89468e-06
2.74133e-07
1.89086e-06
2.87725e-07
1.87743e-06
2.26314e-07
1.86466e-06
8.43348e-08
1.85433e-06
3.55803e-08
1.84936e-06
7.92738e-08
1.848e-06
4.81901e-08
1.16475e-07
1.85118e-06
1.96513e-06
-2.17692e-07
1.99818e-06
1.53531e-06
1.92841e-06
-3.12998e-06
1.94944e-06
-5.45003e-07
1.98217e-06
4.58121e-07
1.98048e-06
5.49194e-07
1.96133e-06
2.3421e-08
1.9758e-06
5.51974e-07
1.97289e-06
2.17981e-07
1.9761e-06
2.05555e-07
1.97622e-06
3.22127e-07
1.98406e-06
5.06708e-07
1.97215e-06
2.86045e-07
1.97126e-06
2.88617e-07
1.96211e-06
2.35463e-07
1.95168e-06
9.47671e-08
1.9427e-06
4.45602e-08
1.93646e-06
8.55157e-08
1.93254e-06
5.21115e-08
1.15704e-07
1.93331e-06
2.05547e-06
-2.26977e-07
2.09654e-06
1.49425e-06
2.01965e-06
-3.0531e-06
2.02436e-06
-5.49706e-07
2.05356e-06
4.28916e-07
2.06009e-06
5.42668e-07
2.04737e-06
3.61431e-08
2.0629e-06
5.36435e-07
2.06029e-06
2.20595e-07
2.06363e-06
2.0222e-07
2.06037e-06
3.25381e-07
2.06649e-06
5.00593e-07
2.05627e-06
2.96258e-07
2.05732e-06
2.87572e-07
2.05211e-06
2.40675e-07
2.04445e-06
1.02419e-07
2.03775e-06
5.12654e-08
2.03159e-06
9.16754e-08
2.02596e-06
5.77368e-08
1.16812e-07
2.02486e-06
2.15053e-06
-2.33506e-07
2.19629e-06
1.44849e-06
2.11672e-06
-2.97353e-06
2.11218e-06
-5.45168e-07
2.13598e-06
4.05123e-07
2.14665e-06
5.31992e-07
2.13904e-06
4.37591e-08
2.15723e-06
5.18241e-07
2.15563e-06
2.22193e-07
2.15918e-06
1.98672e-07
2.15299e-06
3.31577e-07
2.15694e-06
4.96636e-07
2.14749e-06
3.05711e-07
2.14949e-06
2.85568e-07
2.14753e-06
2.42639e-07
2.1424e-06
1.07545e-07
2.13834e-06
5.53326e-08
2.13341e-06
9.66055e-08
2.12711e-06
6.40308e-08
1.18645e-07
2.12528e-06
2.25057e-06
-2.37589e-07
2.2985e-06
1.40056e-06
2.21887e-06
-2.8939e-06
2.21014e-06
-5.36434e-07
2.22842e-06
3.86842e-07
2.24062e-06
5.19789e-07
2.23638e-06
4.80071e-08
2.25762e-06
4.96999e-07
2.25705e-06
2.22765e-07
2.26081e-06
1.94908e-07
2.2528e-06
3.39592e-07
2.25512e-06
4.94308e-07
2.24613e-06
3.14708e-07
2.24829e-06
2.83403e-07
2.24872e-06
2.42207e-07
2.24537e-06
1.10897e-07
2.24358e-06
5.71217e-08
2.24051e-06
9.96783e-08
2.23435e-06
7.01948e-08
1.20035e-07
2.23296e-06
2.35593e-06
-2.3964e-07
2.40437e-06
1.35211e-06
2.32562e-06
-2.81515e-06
2.31586e-06
-5.26677e-07
2.32969e-06
3.7301e-07
2.34224e-06
5.0724e-07
2.33961e-06
5.06405e-08
2.36329e-06
4.7332e-07
2.36325e-06
2.22807e-07
2.36718e-06
1.90976e-07
2.35874e-06
3.48025e-07
2.36047e-06
4.92581e-07
2.35221e-06
3.22973e-07
2.35405e-06
2.81557e-07
2.35609e-06
2.40175e-07
2.35364e-06
1.13344e-07
2.35322e-06
5.75357e-08
2.35206e-06
1.00842e-07
2.34639e-06
7.5866e-08
1.20312e-07
2.34611e-06
2.46691e-06
-2.40158e-07
2.51489e-06
1.30413e-06
2.43679e-06
-2.73705e-06
2.42784e-06
-5.17724e-07
2.43879e-06
3.62054e-07
2.45154e-06
4.94492e-07
2.44915e-06
5.30261e-08
2.47412e-06
4.48355e-07
2.47381e-06
2.2312e-07
2.47773e-06
1.87052e-07
2.47017e-06
3.55584e-07
2.47237e-06
4.90383e-07
2.46548e-06
3.29866e-07
2.4669e-06
2.80132e-07
2.46991e-06
2.37164e-07
2.46768e-06
1.15574e-07
2.46753e-06
5.7689e-08
2.46789e-06
1.00487e-07
2.46269e-06
8.10588e-08
1.19458e-07
2.46355e-06
2.58381e-06
-2.39675e-07
2.63083e-06
1.25711e-06
2.55254e-06
-2.65875e-06
2.54532e-06
-5.10504e-07
2.55501e-06
3.52365e-07
2.56839e-06
4.8111e-07
2.56546e-06
5.59617e-08
2.59044e-06
4.23368e-07
2.58892e-06
2.24646e-07
2.5925e-06
1.83467e-07
2.58682e-06
3.61271e-07
2.59033e-06
4.86868e-07
2.58556e-06
3.34642e-07
2.58675e-06
2.78935e-07
2.59031e-06
2.3361e-07
2.5879e-06
1.17982e-07
2.587e-06
5.85913e-08
2.5882e-06
9.92789e-08
2.58327e-06
8.59902e-08
1.17949e-07
2.58478e-06
2.70685e-06
-2.38697e-07
2.75281e-06
1.21115e-06
2.67326e-06
-2.57921e-06
2.66815e-06
-5.05388e-07
2.67797e-06
3.42547e-07
2.69257e-06
4.66504e-07
2.68877e-06
5.97662e-08
2.71268e-06
3.99457e-07
2.7091e-06
2.28227e-07
2.71194e-06
1.80622e-07
2.70879e-06
3.64422e-07
2.71413e-06
4.81529e-07
2.71208e-06
3.36689e-07
2.71338e-06
2.77638e-07
2.71715e-06
2.2984e-07
2.71443e-06
1.20697e-07
2.71208e-06
6.09476e-08
2.71335e-06
9.80029e-08
2.70843e-06
9.0918e-08
1.16475e-07
2.7099e-06
2.83622e-06
-2.37652e-07
2.88133e-06
1.16605e-06
2.7995e-06
-2.49738e-06
2.79654e-06
-5.0243e-07
2.80754e-06
3.31551e-07
2.82375e-06
4.50291e-07
2.81903e-06
6.44856e-08
2.84112e-06
3.77371e-07
2.835e-06
2.3434e-07
2.83678e-06
1.78842e-07
2.83651e-06
3.64699e-07
2.84376e-06
4.7428e-07
2.84472e-06
3.35721e-07
2.84644e-06
2.75923e-07
2.85016e-06
2.26116e-07
2.84723e-06
1.23634e-07
2.84312e-06
6.50529e-08
2.84373e-06
9.73914e-08
2.83863e-06
9.60237e-08
1.15691e-07
2.83941e-06
2.97209e-06
-2.36842e-07
3.01671e-06
1.12142e-06
2.93182e-06
-2.41249e-06
2.93093e-06
-5.01536e-07
2.94372e-06
3.18758e-07
2.96157e-06
4.32446e-07
2.95602e-06
7.00354e-08
2.97596e-06
3.57426e-07
2.96737e-06
2.42928e-07
2.96793e-06
1.78281e-07
2.97054e-06
3.62092e-07
2.97937e-06
4.65455e-07
2.98323e-06
3.31857e-07
2.9856e-06
2.73552e-07
2.98906e-06
2.22655e-07
2.98613e-06
1.26569e-07
2.98041e-06
7.07747e-08
2.97984e-06
9.79537e-08
2.9745e-06
1.01371e-07
1.16013e-07
2.97417e-06
3.1146e-06
-2.36433e-07
3.15908e-06
1.07694e-06
3.07078e-06
-2.32419e-06
3.07178e-06
-5.02534e-07
3.08653e-06
3.04e-07
3.10573e-06
4.13244e-07
3.09953e-06
7.62354e-08
3.1174e-06
3.39563e-07
3.1069e-06
2.53428e-07
3.10623e-06
1.7895e-07
3.11143e-06
3.56888e-07
3.12122e-06
4.55667e-07
3.12752e-06
3.25555e-07
3.13072e-06
2.7035e-07
3.13376e-06
2.19622e-07
3.13108e-06
1.29242e-07
3.1242e-06
7.76635e-08
3.12228e-06
9.98688e-08
3.11671e-06
1.06937e-07
1.17511e-07
3.11522e-06
3.26396e-06
-2.36487e-07
3.30848e-06
1.03243e-06
3.21684e-06
-2.23255e-06
3.21952e-06
-5.05217e-07
3.23604e-06
2.87475e-07
3.2562e-06
3.93085e-07
3.24962e-06
8.28176e-08
3.26567e-06
3.23516e-07
3.25413e-06
2.64971e-07
3.25229e-06
1.80786e-07
3.25962e-06
3.49559e-07
3.2697e-06
4.45589e-07
3.27778e-06
3.17467e-07
3.28194e-06
2.66193e-07
3.28444e-06
2.17121e-07
3.28221e-06
1.31474e-07
3.27473e-06
8.51423e-08
3.27156e-06
1.03036e-07
3.26586e-06
1.12643e-07
1.19946e-07
3.26342e-06
3.42046e-06
-2.37015e-07
3.46505e-06
9.87844e-07
3.37042e-06
-2.13792e-06
3.37455e-06
-5.09352e-07
3.39245e-06
2.69582e-07
3.41318e-06
3.72355e-07
3.40653e-06
8.94667e-08
3.42105e-06
3.08993e-07
3.40941e-06
2.76606e-07
3.40649e-06
1.83709e-07
3.41542e-06
3.40632e-07
3.42526e-06
4.35744e-07
3.43443e-06
3.08296e-07
3.43962e-06
2.61007e-07
3.44154e-06
2.15204e-07
3.43978e-06
1.33232e-07
3.43225e-06
9.26722e-08
3.4281e-06
1.07183e-07
3.42232e-06
1.1843e-07
1.22895e-07
3.41937e-06
3.58439e-06
-2.37989e-07
3.62906e-06
9.43171e-07
3.53195e-06
-2.04081e-06
3.53726e-06
-5.14663e-07
3.55607e-06
2.50776e-07
3.57704e-06
3.51381e-07
3.57062e-06
9.5886e-08
3.58383e-06
2.95788e-07
3.57296e-06
2.87475e-07
3.56906e-06
1.8761e-07
3.57911e-06
3.30581e-07
3.58843e-06
4.26416e-07
3.59803e-06
2.98695e-07
3.60425e-06
2.54792e-07
3.60556e-06
2.13891e-07
3.60415e-06
1.34644e-07
3.59699e-06
9.98277e-08
3.59218e-06
1.11995e-07
3.58633e-06
1.24285e-07
1.25954e-07
3.58327e-06
3.75605e-06
-2.39332e-07
3.80088e-06
8.9834e-07
3.70189e-06
-1.94182e-06
3.70802e-06
-5.20793e-07
3.7273e-06
2.31489e-07
3.74825e-06
3.30435e-07
3.74229e-06
1.01842e-07
3.7543e-06
2.83778e-07
3.74487e-06
2.96908e-07
3.74016e-06
1.92316e-07
3.75097e-06
3.1977e-07
3.75972e-06
4.17674e-07
3.76917e-06
2.89237e-07
3.77632e-06
2.4765e-07
3.77702e-06
2.13183e-07
3.77571e-06
1.35955e-07
3.76921e-06
1.0633e-07
3.76406e-06
1.17151e-07
3.75812e-06
1.30225e-07
1.28865e-07
3.7552e-06
3.93573e-06
-2.40878e-07
3.9809e-06
8.53176e-07
3.88072e-06
-1.84164e-06
3.88719e-06
-5.27265e-07
3.90657e-06
2.12116e-07
3.92725e-06
3.09749e-07
3.92192e-06
1.07177e-07
3.93283e-06
2.72863e-07
3.92529e-06
3.04454e-07
3.92001e-06
1.9759e-07
3.93134e-06
3.08443e-07
3.93956e-06
4.09452e-07
3.94841e-06
2.80388e-07
3.95624e-06
2.39821e-07
3.9564e-06
2.13028e-07
3.95489e-06
1.37457e-07
3.94917e-06
1.12053e-07
3.94398e-06
1.22347e-07
3.93794e-06
1.36262e-07
1.31554e-07
3.93525e-06
4.12373e-06
-2.4236e-07
4.16947e-06
8.07439e-07
4.06893e-06
-1.74111e-06
4.07515e-06
-5.33478e-07
4.09425e-06
1.93015e-07
4.11447e-06
2.89531e-07
4.10986e-06
1.11786e-07
4.11983e-06
2.62886e-07
4.11441e-06
3.09882e-07
4.10884e-06
2.03156e-07
4.12054e-06
2.9674e-07
4.12839e-06
4.01602e-07
4.13626e-06
2.72519e-07
4.14441e-06
2.31673e-07
4.14415e-06
2.13291e-07
4.14215e-06
1.39455e-07
4.1372e-06
1.16999e-07
4.13225e-06
1.27295e-07
4.1262e-06
1.42316e-07
1.34183e-07
4.12357e-06
4.32037e-06
-2.43432e-07
4.36692e-06
7.60889e-07
4.26695e-06
-1.64114e-06
4.27223e-06
-5.38749e-07
4.29075e-06
1.74492e-07
4.31032e-06
2.69965e-07
4.30648e-06
1.15618e-07
4.31577e-06
2.53596e-07
4.31253e-06
3.13131e-07
4.30692e-06
2.08764e-07
4.3189e-06
2.84756e-07
4.32655e-06
3.93952e-07
4.33317e-06
2.65896e-07
4.34126e-06
2.23592e-07
4.34077e-06
2.13778e-07
4.33796e-06
1.4226e-07
4.33371e-06
1.21249e-07
4.32927e-06
1.31737e-07
4.32339e-06
1.48196e-07
1.37014e-07
4.32056e-06
4.52607e-06
-2.43732e-07
4.57359e-06
7.13375e-07
4.47512e-06
-1.54267e-06
4.47878e-06
-5.42405e-07
4.49651e-06
1.56765e-07
4.51528e-06
2.51191e-07
4.51222e-06
1.18674e-07
4.52116e-06
2.44659e-07
4.52003e-06
3.1426e-07
4.51455e-06
2.14241e-07
4.52672e-06
2.72591e-07
4.53437e-06
3.86299e-07
4.5395e-06
2.60766e-07
4.54728e-06
2.15811e-07
4.54674e-06
2.1432e-07
4.54293e-06
1.46075e-07
4.53927e-06
1.24905e-07
4.53548e-06
1.35523e-07
4.53008e-06
1.53602e-07
1.4026e-07
4.52683e-06
4.74134e-06
-2.42958e-07
4.78982e-06
6.64897e-07
4.6937e-06
-1.44655e-06
4.69518e-06
-5.43888e-07
4.71201e-06
1.39938e-07
4.72992e-06
2.3328e-07
4.72757e-06
1.21023e-07
4.73649e-06
2.35739e-07
4.73737e-06
3.13385e-07
4.73209e-06
2.19515e-07
4.74429e-06
2.60394e-07
4.75221e-06
3.78379e-07
4.7556e-06
2.57376e-07
4.76296e-06
2.08451e-07
4.76257e-06
2.14705e-07
4.7577e-06
1.50951e-07
4.75444e-06
1.2816e-07
4.75141e-06
1.38553e-07
4.74681e-06
1.58202e-07
1.43966e-07
4.74311e-06
4.96677e-06
-2.40929e-07
5.01603e-06
6.15634e-07
4.9229e-06
-1.35342e-06
4.92186e-06
-5.42845e-07
4.93779e-06
1.24006e-07
4.95486e-06
2.16217e-07
4.95311e-06
1.22773e-07
4.96226e-06
2.26581e-07
4.96501e-06
3.10643e-07
4.95993e-06
2.24594e-07
4.97194e-06
2.4838e-07
4.98045e-06
3.69868e-07
4.98191e-06
2.55915e-07
4.98878e-06
2.01586e-07
4.98883e-06
2.14658e-07
4.983e-06
1.56781e-07
4.97985e-06
1.31305e-07
4.97769e-06
1.40711e-07
4.97408e-06
1.61814e-07
1.47961e-07
4.97009e-06
5.203e-06
-2.37613e-07
5.2527e-06
5.65929e-07
5.16297e-06
-1.26369e-06
5.15931e-06
-5.3918e-07
5.17442e-06
1.08892e-07
5.19074e-06
1.99904e-07
5.18947e-06
1.24044e-07
5.19897e-06
2.17073e-07
5.20344e-06
3.06172e-07
5.19851e-06
2.29527e-07
5.21008e-06
2.3681e-07
5.21952e-06
3.60424e-07
5.21903e-06
2.56409e-07
5.22529e-06
1.95322e-07
5.22614e-06
2.13816e-07
5.21956e-06
1.63358e-07
5.21614e-06
1.34723e-07
5.21488e-06
1.4197e-07
5.21234e-06
1.64351e-07
1.51898e-07
5.20841e-06
5.45068e-06
-2.33108e-07
5.50039e-06
5.16225e-07
5.41422e-06
-1.17752e-06
5.40809e-06
-5.33052e-07
5.42246e-06
9.45168e-08
5.43817e-06
1.84201e-07
5.4373e-06
1.24908e-07
5.44711e-06
2.07263e-07
5.45318e-06
3.00107e-07
5.44836e-06
2.34351e-07
5.45919e-06
2.25975e-07
5.46984e-06
3.49773e-07
5.46772e-06
2.58535e-07
5.47305e-06
1.89984e-07
5.47506e-06
2.11813e-07
5.46796e-06
1.70452e-07
5.46394e-06
1.38744e-07
5.46348e-06
1.42436e-07
5.46213e-06
1.657e-07
1.55462e-07
5.45856e-06
5.71044e-06
-2.27594e-07
5.75968e-06
4.66987e-07
5.67703e-06
-1.09487e-06
5.66881e-06
-5.24832e-07
5.68249e-06
8.08408e-08
5.6977e-06
1.68988e-07
5.69725e-06
1.25361e-07
5.70717e-06
1.97346e-07
5.71472e-06
2.92549e-07
5.71005e-06
2.39028e-07
5.71984e-06
2.16178e-07
5.73184e-06
3.37779e-07
5.72869e-06
2.61684e-07
5.73251e-06
1.86162e-07
5.736e-06
2.08322e-07
5.72889e-06
1.77562e-07
5.7239e-06
1.43736e-07
5.72395e-06
1.42381e-07
5.72391e-06
1.65746e-07
1.58374e-07
5.721e-06
5.98287e-06
-2.21275e-07
6.03122e-06
4.18636e-07
5.95192e-06
-1.01557e-06
5.94215e-06
-5.15064e-07
5.95507e-06
6.792e-08
5.96986e-06
1.542e-07
5.9699e-06
1.25325e-07
5.97965e-06
1.87597e-07
5.98859e-06
2.8361e-07
5.98421e-06
2.43408e-07
5.9927e-06
2.07687e-07
6.00599e-06
3.24486e-07
6.00256e-06
2.65109e-07
6.0043e-06
1.84422e-07
6.00936e-06
2.03263e-07
6.00297e-06
1.83953e-07
5.99677e-06
1.49935e-07
5.99682e-06
1.42331e-07
5.9981e-06
1.64472e-07
1.60275e-07
5.9962e-06
6.26854e-06
-2.14328e-07
6.31569e-06
3.7149e-07
6.23947e-06
-9.39346e-07
6.22879e-06
-5.04387e-07
6.24079e-06
5.59155e-08
6.25515e-06
1.39842e-07
6.25589e-06
1.24589e-07
6.26512e-06
1.78364e-07
6.2753e-06
2.73425e-07
6.27146e-06
2.47256e-07
6.27847e-06
2.00676e-07
6.29286e-06
3.10095e-07
6.28995e-06
2.6802e-07
6.28938e-06
1.84993e-07
6.2956e-06
1.97043e-07
6.29063e-06
1.88917e-07
6.28339e-06
1.57176e-07
6.28272e-06
1.43002e-07
6.28506e-06
1.62137e-07
1.6081e-07
6.28452e-06
6.56803e-06
-2.06883e-07
6.61377e-06
3.25744e-07
6.54036e-06
-8.65933e-07
6.5294e-06
-4.93424e-07
6.54022e-06
4.50937e-08
6.55416e-06
1.25903e-07
6.5559e-06
1.22845e-07
6.56421e-06
1.70051e-07
6.57547e-06
2.62172e-07
6.57245e-06
2.50279e-07
6.57789e-06
1.95235e-07
6.59304e-06
2.94938e-07
6.59137e-06
2.69696e-07
6.58861e-06
1.87748e-07
6.59523e-06
1.90424e-07
6.59224e-06
1.91909e-07
6.58447e-06
1.64941e-07
6.58257e-06
1.44899e-07
6.58534e-06
1.59375e-07
1.59767e-07
6.58638e-06
6.88193e-06
-1.99021e-07
6.9262e-06
2.81476e-07
6.8554e-06
-7.95133e-07
6.84459e-06
-4.82614e-07
6.85401e-06
3.56721e-08
6.86753e-06
1.12378e-07
6.8705e-06
1.19874e-07
6.87766e-06
1.62895e-07
6.88969e-06
2.50143e-07
6.88779e-06
2.52179e-07
6.89173e-06
1.91291e-07
6.90725e-06
2.79422e-07
6.90732e-06
2.69621e-07
6.90277e-06
1.92298e-07
6.90881e-06
1.8439e-07
6.90816e-06
1.9256e-07
6.90054e-06
1.72562e-07
6.89731e-06
1.48129e-07
6.89976e-06
1.56926e-07
1.57358e-07
6.90216e-06
7.21089e-06
-1.90776e-07
7.25369e-06
2.38679e-07
7.1854e-06
-7.26847e-07
7.17489e-06
-4.72107e-07
7.18325e-06
2.73166e-08
7.19582e-06
9.98085e-08
7.20016e-06
1.15535e-07
7.20622e-06
1.56836e-07
7.21867e-06
2.37694e-07
7.2181e-06
2.52747e-07
7.22075e-06
1.8864e-07
7.2362e-06
2.63971e-07
7.23831e-06
2.67518e-07
7.23261e-06
1.97992e-07
7.23722e-06
1.79782e-07
7.23888e-06
1.909e-07
7.23206e-06
1.79382e-07
7.22756e-06
1.52628e-07
7.2293e-06
1.5519e-07
1.54255e-07
7.2324e-06
7.55561e-06
-1.8216e-07
7.59697e-06
1.97314e-07
7.53124e-06
-6.61114e-07
7.52076e-06
-4.6162e-07
7.52877e-06
1.9301e-08
7.53962e-06
8.89623e-08
7.54536e-06
1.09788e-07
7.55068e-06
1.51516e-07
7.56318e-06
2.25194e-07
7.56407e-06
2.51861e-07
7.5657e-06
1.87015e-07
7.58064e-06
2.49025e-07
7.58485e-06
2.63309e-07
7.57881e-06
2.04029e-07
7.58152e-06
1.77075e-07
7.58494e-06
1.87483e-07
7.57951e-06
1.84806e-07
7.5737e-06
1.58439e-07
7.57442e-06
1.54476e-07
1.50743e-07
7.57793e-06
7.91683e-06
-1.73175e-07
7.95679e-06
1.57349e-07
7.89379e-06
-5.9811e-07
7.88264e-06
-4.50469e-07
7.89132e-06
1.06176e-08
7.89988e-06
8.03979e-08
7.90679e-06
1.02882e-07
7.91184e-06
1.46467e-07
7.92403e-06
2.13002e-07
7.92637e-06
2.49523e-07
7.92729e-06
1.86093e-07
7.94142e-06
2.34891e-07
7.9476e-06
2.57129e-07
7.94201e-06
2.09625e-07
7.94297e-06
1.76107e-07
7.94727e-06
1.83186e-07
7.9437e-06
1.88374e-07
7.93611e-06
1.66028e-07
7.93448e-06
1.56106e-07
1.46355e-07
7.93887e-06
8.29535e-06
-1.63839e-07
8.33385e-06
1.18846e-07
8.27392e-06
-5.38181e-07
8.26118e-06
-4.37735e-07
8.27166e-06
1.43648e-10
8.27744e-06
7.46164e-08
8.28513e-06
9.51959e-08
8.29046e-06
1.41136e-07
8.30215e-06
2.01312e-07
8.30578e-06
2.45891e-07
8.30618e-06
1.85688e-07
8.31934e-06
2.21731e-07
8.32738e-06
2.49096e-07
8.32285e-06
2.14153e-07
8.32249e-06
1.76467e-07
8.32789e-06
1.77791e-07
8.32937e-06
1.86887e-07
8.32585e-06
1.69548e-07
8.32649e-06
1.5547e-07
1.43852e-07
8.32899e-06
8.69202e-06
-1.54193e-07
8.7288e-06
8.20656e-08
8.67253e-06
-4.81915e-07
8.65716e-06
-4.22364e-07
8.67065e-06
-1.33434e-08
8.6733e-06
7.19613e-08
8.6811e-06
8.74005e-08
8.68714e-06
1.35094e-07
8.69837e-06
1.90086e-07
8.70308e-06
2.41172e-07
8.70333e-06
1.8544e-07
8.71517e-06
2.09897e-07
8.72479e-06
2.39469e-07
8.7224e-06
2.1655e-07
8.72294e-06
1.75925e-07
8.73145e-06
1.69283e-07
8.7383e-06
1.80039e-07
8.73856e-06
1.69286e-07
8.7364e-06
1.57626e-07
1.45659e-07
8.73459e-06
9.10774e-06
-1.44318e-07
9.14244e-06
4.73744e-08
9.09046e-06
-4.29938e-07
9.07163e-06
-4.03534e-07
9.08859e-06
-3.03098e-08
9.08897e-06
7.15859e-08
9.09558e-06
8.07863e-08
9.10275e-06
1.27932e-07
9.11367e-06
1.79165e-07
9.11914e-06
2.35701e-07
9.1194e-06
1.85174e-07
9.13012e-06
1.9918e-07
9.141e-06
2.28586e-07
9.14048e-06
2.1707e-07
9.14046e-06
1.75946e-07
9.14799e-06
1.61759e-07
9.15621e-06
1.71813e-07
9.15856e-06
1.66935e-07
9.15681e-06
1.59381e-07
1.48924e-07
9.15354e-06
9.54346e-06
-1.34317e-07
9.57573e-06
1.51047e-08
9.52855e-06
-3.82758e-07
9.50593e-06
-3.80916e-07
9.5253e-06
-4.96827e-08
9.5257e-06
7.1185e-08
9.52966e-06
7.68324e-08
9.53775e-06
1.19839e-07
9.54884e-06
1.68074e-07
9.55507e-06
2.29476e-07
9.55533e-06
1.84908e-07
9.56501e-06
1.89507e-07
9.57746e-06
2.16132e-07
9.57816e-06
2.16372e-07
9.57319e-06
1.80911e-07
9.57215e-06
1.62808e-07
9.57375e-06
1.7021e-07
9.56861e-06
1.72071e-07
9.56466e-06
1.63334e-07
1.43173e-07
9.57041e-06
1.00001e-05
-1.24327e-07
1.00296e-05
-1.43326e-08
9.9877e-06
-3.40872e-07
9.96193e-06
-3.55154e-07
9.98166e-06
-6.94062e-08
9.98395e-06
6.88948e-08
9.98486e-06
7.59193e-08
9.99308e-06
1.11617e-07
1.00048e-05
1.56391e-07
1.00117e-05
2.22575e-07
1.0012e-05
1.84567e-07
1.00199e-05
1.81599e-07
1.00316e-05
2.04481e-07
1.00356e-05
2.12377e-07
1.00361e-05
1.80378e-07
1.00427e-05
1.56184e-07
1.00535e-05
1.59461e-07
1.00607e-05
1.64845e-07
1.00622e-05
1.61825e-07
1.52086e-07
1.00533e-05
1.04788e-05
-1.14494e-07
1.05052e-05
-4.07006e-08
1.04688e-05
-3.04456e-07
1.04406e-05
-3.27035e-07
1.04589e-05
-8.76559e-08
1.04648e-05
6.29687e-08
1.04625e-05
7.82658e-08
1.04694e-05
1.04699e-07
1.0482e-05
1.43771e-07
1.049e-05
2.14533e-07
1.04903e-05
1.84283e-07
1.04969e-05
1.75017e-07
1.05092e-05
1.92237e-07
1.05129e-05
2.08665e-07
1.05082e-05
1.85019e-07
1.05049e-05
1.59495e-07
1.05074e-05
1.56988e-07
1.0508e-05
1.64194e-07
1.05067e-05
1.63118e-07
1.49436e-07
1.05094e-05
1.09805e-05
-1.04992e-07
1.10035e-05
-6.36931e-08
1.09727e-05
-2.7368e-07
1.09431e-05
-2.97436e-07
1.09582e-05
-1.02733e-07
1.09681e-05
5.30966e-08
1.09641e-05
8.22222e-08
1.09683e-05
1.00514e-07
1.09815e-05
1.30572e-07
1.09907e-05
2.05391e-07
1.0991e-05
1.83939e-07
1.09954e-05
1.70592e-07
1.1006e-05
1.81674e-07
1.10099e-05
2.0473e-07
1.10077e-05
1.87209e-07
1.1005e-05
1.62218e-07
1.10074e-05
1.54594e-07
1.10114e-05
1.60235e-07
1.10132e-05
1.61295e-07
1.4856e-07
1.10141e-05
1.15064e-05
-9.59941e-08
1.15258e-05
-8.31419e-08
1.15007e-05
-2.4852e-07
1.14702e-05
-2.67009e-07
1.14811e-05
-1.13612e-07
1.14943e-05
3.98819e-08
1.14908e-05
8.57304e-08
1.14913e-05
1.0007e-07
1.15039e-05
1.17954e-07
1.15146e-05
1.94677e-07
1.15152e-05
1.83355e-07
1.15168e-05
1.68917e-07
1.15263e-05
1.72178e-07
1.15324e-05
1.98652e-07
1.15321e-05
1.87525e-07
1.15299e-05
1.64406e-07
1.15315e-05
1.52971e-07
1.1537e-05
1.54794e-07
1.15403e-05
1.57993e-07
1.47843e-07
1.1541e-05
1.20575e-05
-8.7679e-08
1.20733e-05
-9.88868e-08
1.20533e-05
-2.28604e-07
1.20231e-05
-2.36757e-07
1.20292e-05
-1.19729e-07
1.20445e-05
2.45863e-08
1.20433e-05
8.69391e-08
1.20406e-05
1.02795e-07
1.20508e-05
1.07682e-07
1.2063e-05
1.82482e-07
1.20647e-05
1.81671e-07
1.20648e-05
1.68858e-07
1.20724e-05
1.64524e-07
1.20801e-05
1.9101e-07
1.20816e-05
1.85956e-07
1.20807e-05
1.65375e-07
1.20819e-05
1.51783e-07
1.20866e-05
1.50062e-07
1.20911e-05
1.5353e-07
1.46232e-07
1.20927e-05
1.26351e-05
-8.01978e-08
1.26471e-05
-1.10871e-07
1.26317e-05
-2.13249e-07
1.26027e-05
-2.07709e-07
1.26041e-05
-1.21127e-07
1.26202e-05
8.51838e-09
1.26225e-05
8.4621e-08
1.26174e-05
1.07903e-07
1.26242e-05
1.00862e-07
1.26372e-05
1.69438e-07
1.26411e-05
1.77782e-07
1.26405e-05
1.6947e-07
1.26458e-05
1.59229e-07
1.26542e-05
1.82592e-07
1.26577e-05
1.8247e-07
1.26578e-05
1.65327e-07
1.26587e-05
1.50794e-07
1.26623e-05
1.46533e-07
1.26676e-05
1.48235e-07
1.43176e-07
1.26706e-05
1.32404e-05
-7.36966e-08
1.32486e-05
-1.19075e-07
1.32371e-05
-2.01671e-07
1.32102e-05
-1.809e-07
1.32073e-05
-1.182e-07
1.32225e-05
-6.69649e-09
1.32287e-05
7.84138e-08
1.32229e-05
1.13728e-07
1.32261e-05
9.76466e-08
1.32388e-05
1.56773e-07
1.32449e-05
1.7172e-07
1.32447e-05
1.6968e-07
1.32481e-05
1.55798e-07
1.32562e-05
1.74471e-07
1.32611e-05
1.77574e-07
1.32621e-05
1.64286e-07
1.32635e-05
1.49403e-07
1.32665e-05
1.4356e-07
1.32714e-05
1.43344e-07
1.38652e-07
1.32759e-05
1.38747e-05
-6.82637e-08
1.38793e-05
-1.23606e-07
1.38707e-05
-1.93085e-07
1.38469e-05
-1.5711e-07
1.38403e-05
-1.11657e-07
1.38533e-05
-1.9619e-08
1.3863e-05
6.86618e-08
1.38582e-05
1.18568e-07
1.38581e-05
9.76929e-08
1.38691e-05
1.45761e-07
1.38771e-05
1.6381e-07
1.38782e-05
1.6855e-07
1.38804e-05
1.5363e-07
1.38873e-05
1.67485e-07
1.38933e-05
1.71618e-07
1.38954e-05
1.62182e-07
1.38972e-05
1.47648e-07
1.39003e-05
1.4044e-07
1.39041e-05
1.39478e-07
1.33554e-07
1.39092e-05
1.45393e-05
-6.39459e-08
1.45404e-05
-1.24676e-07
1.4534e-05
-1.86667e-07
1.45139e-05
-1.36966e-07
1.45045e-05
-1.02307e-07
1.45139e-05
-2.90568e-08
1.45265e-05
5.611e-08
1.45242e-05
1.20899e-07
1.45216e-05
1.00269e-07
1.45301e-05
1.37209e-07
1.45391e-05
1.54817e-07
1.45419e-05
1.65746e-07
1.45435e-05
1.5202e-07
1.45493e-05
1.61704e-07
1.45557e-05
1.65231e-07
1.45589e-05
1.58988e-07
1.45607e-05
1.45816e-07
1.45643e-05
1.3685e-07
1.4568e-05
1.35811e-07
1.28983e-07
1.45726e-05
1.52356e-05
-6.07113e-08
1.52336e-05
-1.22627e-07
1.52285e-05
-1.81613e-07
1.52124e-05
-1.2078e-07
1.52011e-05
-9.10359e-08
1.52064e-05
-3.44157e-08
1.52207e-05
4.1871e-08
1.52218e-05
1.19792e-07
1.52176e-05
1.04458e-07
1.52233e-05
1.31488e-07
1.52325e-05
1.45633e-07
1.52371e-05
1.61138e-07
1.52389e-05
1.50191e-07
1.52437e-05
1.56926e-07
1.52498e-05
1.59155e-07
1.5254e-05
1.54741e-07
1.52563e-05
1.43597e-07
1.52599e-05
1.33246e-07
1.52643e-05
1.31411e-07
1.25536e-07
1.52677e-05
1.59651e-05
-5.84603e-08
1.59605e-05
-1.18012e-07
1.59559e-05
-1.77008e-07
1.59435e-05
-1.08468e-07
1.59315e-05
-7.89472e-08
1.59325e-05
-3.54461e-08
1.5947e-05
2.73758e-08
1.59516e-05
1.15206e-07
1.59473e-05
1.08753e-07
1.59505e-05
1.28255e-07
1.5959e-05
1.37117e-07
1.59651e-05
1.55058e-07
1.59677e-05
1.47615e-07
1.59718e-05
1.52801e-07
1.59774e-05
1.53598e-07
1.59823e-05
1.49813e-07
1.59854e-05
1.4053e-07
1.59884e-05
1.30224e-07
1.59935e-05
1.26289e-07
1.22361e-07
1.59967e-05
1.67292e-05
-5.70171e-08
1.67227e-05
-1.11544e-07
1.67177e-05
-1.71993e-07
1.67086e-05
-9.94306e-08
1.66967e-05
-6.70267e-08
1.66936e-05
-3.23136e-08
1.67066e-05
1.4326e-08
1.67144e-05
1.07432e-07
1.67118e-05
1.11392e-07
1.67132e-05
1.26777e-07
1.67204e-05
1.29937e-07
1.67274e-05
1.48074e-07
1.67311e-05
1.43908e-07
1.67351e-05
1.48799e-07
1.67402e-05
1.48486e-07
1.67452e-05
1.44876e-07
1.67492e-05
1.36507e-07
1.67519e-05
1.27535e-07
1.67569e-05
1.21239e-07
1.18254e-07
1.6761e-05
1.75295e-05
-5.61475e-08
1.75219e-05
-1.03955e-07
1.75158e-05
-1.65859e-07
1.75091e-05
-9.27937e-08
1.74982e-05
-5.61452e-08
1.74916e-05
-2.56564e-08
1.7501e-05
4.93461e-09
1.75119e-05
9.65015e-08
1.75122e-05
1.11066e-07
1.7513e-05
1.26036e-07
1.75187e-05
1.24192e-07
1.75259e-05
1.40855e-07
1.75308e-05
1.39066e-07
1.75351e-05
1.44507e-07
1.75399e-05
1.43629e-07
1.75445e-05
1.40292e-07
1.75492e-05
1.31832e-07
1.75524e-05
1.2432e-07
1.75567e-05
1.16925e-07
1.13186e-07
1.75618e-05
1.83678e-05
-5.55824e-08
1.83597e-05
-9.589e-08
1.8352e-05
-1.58106e-07
1.8347e-05
-8.78417e-08
1.8338e-05
-4.70865e-08
1.83294e-05
-1.71199e-08
1.83343e-05
8.03875e-11
1.83466e-05
8.41321e-08
1.83503e-05
1.07395e-07
1.83513e-05
1.25068e-07
1.83558e-05
1.19663e-07
1.83627e-05
1.33983e-07
1.83683e-05
1.33489e-07
1.83731e-05
1.39639e-07
1.83781e-05
1.38637e-07
1.83825e-05
1.35898e-07
1.83872e-05
1.27124e-07
1.83913e-05
1.20275e-07
1.83948e-05
1.13357e-07
1.08022e-07
1.84e-05
1.92459e-05
-5.5058e-08
1.92378e-05
-8.78582e-08
1.92284e-05
-1.48662e-07
1.92245e-05
-8.39275e-08
1.92176e-05
-4.02419e-08
1.92088e-05
-8.33843e-09
1.92098e-05
-9.08292e-10
1.92213e-05
7.26571e-08
1.92279e-05
1.0081e-07
1.92298e-05
1.23118e-07
1.92334e-05
1.16125e-07
1.92396e-05
1.27724e-07
1.92456e-05
1.27544e-07
1.9251e-05
1.34187e-07