/*--------------------------------*- C++ -*----------------------------------*\
| =========                 |                                                 |
| \\      /  F ield         | OpenFOAM: The Open Source CFD Toolbox           |
|  \\    /   O peration     | Version:  v1912                                 |
|   \\  /    A nd           | Website:  www.openfoam.com                      |
|    \\/     M anipulation  |                                                 |
\*---------------------------------------------------------------------------*/
FoamFile
{
    version     2.0;
    format      ascii;
    class       volVectorField;
    location    "4.95";
    object      U;
}
// * * * * * * * * * * * * * * * * * * * * * * * * * * * * * * * * * * * * * //

dimensions      [0 1 -1 0 0 0 0];


internalField   nonuniform List<vector> 
9600
(
(0.767633 0.00112339 0)
(1.26906 0.00778993 0)
(0.498796 -0.0298429 0)
(1.47431 0.0115527 0)
(0.73889 -0.0009358 0)
(1.21638 0.0049034 0)
(0.808963 -0.00530254 0)
(1.17845 0.0105137 0)
(0.790145 0.010359 0)
(1.27737 0.00985677 0)
(0.84713 0.00341098 0)
(1.20754 0.0131316 0)
(0.847025 0.00259149 0)
(1.1999 0.00471789 0)
(0.813105 0.000391158 0)
(1.18863 0.00220574 0)
(0.833879 -0.00443203 0)
(1.16663 0.0075445 0)
(0.870021 -0.0006432 0)
(1.14635 0.00690915 0)
(0.775771 0.000661579 0)
(1.26128 0.0103583 0)
(0.527293 -0.0324141 0)
(1.46174 0.00964736 0)
(0.781841 0.00145575 0)
(1.21735 0.00466992 0)
(0.836086 -0.00526529 0)
(1.17655 0.0112268 0)
(0.810704 0.00877613 0)
(1.26468 0.00934731 0)
(0.880084 0.0040848 0)
(1.18765 0.0135626 0)
(0.89418 0.0023162 0)
(1.17048 0.00577955 0)
(0.878807 0.000297407 0)
(1.13867 0.00184423 0)
(0.919844 -0.00374076 0)
(1.08802 0.00589608 0)
(0.98367 0.000693902 0)
(1.02909 0.00495269 0)
(0.792824 0.000346306 0)
(1.24576 0.0121819 0)
(0.574943 -0.0341508 0)
(1.43307 0.00808901 0)
(0.849165 0.00283212 0)
(1.21197 0.00446271 0)
(0.882866 -0.00506282 0)
(1.16589 0.0117591 0)
(0.858747 0.00720798 0)
(1.23557 0.00877326 0)
(0.942805 0.00501619 0)
(1.15167 0.013638 0)
(0.964836 0.00250405 0)
(1.12542 0.00612628 0)
(0.959566 0.00106304 0)
(1.08332 0.00108961 0)
(0.992828 -0.00251034 0)
(1.03821 0.0043813 0)
(1.02413 0.00226182 0)
(1.01446 0.00511629 0)
(0.818403 -5.76686e-07 0)
(1.22212 0.0137706 0)
(0.640615 -0.0358979 0)
(1.38612 0.00624744 0)
(0.926785 0.00438261 0)
(1.1961 0.00451878 0)
(0.937141 -0.00470912 0)
(1.1431 0.0120861 0)
(0.92341 0.00620189 0)
(1.19366 0.00785796 0)
(1.00916 0.00605632 0)
(1.11723 0.013452 0)
(1.02373 0.00295319 0)
(1.08894 0.00616176 0)
(1.01164 0.00198822 0)
(1.05199 0.000527967 0)
(1.02274 -0.00165901 0)
(1.02683 0.00391537 0)
(1.03003 0.00269982 0)
(1.02292 0.00570571 0)
(0.850818 -0.000367116 0)
(1.19072 0.0151347 0)
(0.716702 -0.0373265 0)
(1.32235 0.00395534 0)
(0.999606 0.00575181 0)
(1.17208 0.00477976 0)
(0.984434 -0.0041915 0)
(1.11238 0.0122527 0)
(0.984194 0.00554868 0)
(1.14974 0.00677719 0)
(1.0551 0.00699587 0)
(1.09648 0.0133521 0)
(1.05631 0.00351175 0)
(1.06888 0.00638332 0)
(1.0331 0.00287602 0)
(1.03915 0.000402477 0)
(1.02789 -0.00111262 0)
(1.02552 0.00374806 0)
(1.03044 0.00281279 0)
(1.02718 0.00628006 0)
(0.886583 -0.000726076 0)
(1.15409 0.0161647 0)
(0.79189 -0.0384166 0)
(1.24854 0.00151897 0)
(1.05364 0.00684453 0)
(1.14509 0.0052451 0)
(1.01484 -0.00350922 0)
(1.08209 0.012185 0)
(1.02575 0.00506378 0)
(1.11255 0.00587375 0)
(1.07405 0.00761807 0)
(1.0863 0.0134156 0)
(1.06719 0.00416867 0)
(1.058 0.00681069 0)
(1.03738 0.00372149 0)
(1.03206 0.000558218 0)
(1.02368 -0.000720006 0)
(1.02166 0.00350262 0)
(1.02752 0.0028245 0)
(1.02696 0.00673325 0)
(0.920894 -0.00106003 0)
(1.11697 0.0168704 0)
(0.857026 -0.0390929 0)
(1.17483 -0.000830827 0)
(1.08164 0.00756363 0)
(1.11892 0.00591238 0)
(1.02727 -0.00272995 0)
(1.05791 0.0119047 0)
(1.04484 0.00469566 0)
(1.08388 0.00527221 0)
(1.07241 0.00788174 0)
(1.07767 0.0135316 0)
(1.06511 0.00491203 0)
(1.04892 0.00731408 0)
(1.03422 0.00455669 0)
(1.02529 0.000881306 0)
(1.01642 -0.000378422 0)
(1.01468 0.00326047 0)
(1.02063 0.0027202 0)
(1.02253 0.0068635 0)
(0.949191 -0.00135572 0)
(1.08455 0.0173012 0)
(0.908411 -0.0393715 0)
(1.11017 -0.00292979 0)
(1.08483 0.00787703 0)
(1.09481 0.00669065 0)
(1.02742 -0.00194756 0)
(1.04047 0.0115107 0)
(1.04673 0.00443244 0)
(1.06143 0.00492191 0)
(1.05976 0.00789738 0)
(1.06575 0.0135952 0)
(1.05635 0.00567521 0)
(1.03929 0.00780461 0)
(1.0283 0.00536542 0)
(1.01855 0.00130826 0)
(1.00884 -1.27245e-05 0)
(1.00672 0.00309756 0)
(1.01161 0.00249156 0)
(1.0148 0.00670853 0)
(0.968906 -0.00160886 0)
(1.06023 0.0175073 0)
(0.946617 -0.0393036 0)
(1.05929 -0.00462562 0)
(1.07047 0.00784401 0)
(1.07269 0.00743256 0)
(1.02231 -0.00122857 0)
(1.02778 0.0110965 0)
(1.03906 0.0042716 0)
(1.04311 0.00473161 0)
(1.04368 0.0078003 0)
(1.05107 0.0135602 0)
(1.0449 0.00638094 0)
(1.02964 0.0082105 0)
(1.02184 0.00611244 0)
(1.01283 0.00180204 0)
(1.00256 0.000381944 0)
(0.999671 0.00302736 0)
(1.00289 0.00225299 0)
(1.00587 0.0064437 0)
(0.98023 -0.00182069 0)
(1.04438 0.0175175 0)
(0.973769 -0.0389437 0)
(1.02284 -0.00584125 0)
(1.04804 0.00756596 0)
(1.05261 0.008005 0)
(1.0164 -0.000610099 0)
(1.01813 0.0107266 0)
(1.02833 0.00420941 0)
(1.02854 0.00462274 0)
(1.02885 0.00767779 0)
(1.03638 0.0134276 0)
(1.03341 0.00697383 0)
(1.02094 0.00849435 0)
(1.0159 0.00675912 0)
(1.00873 0.00232153 0)
(0.998412 0.000789745 0)
(0.994657 0.00308334 0)
(0.996256 0.00212016 0)
(0.997895 0.00618034 0)
(0.98544 -0.00199445 0)
(1.03503 0.0173506 0)
(0.992044 -0.0383518 0)
(0.999085 -0.00660057 0)
(1.0257 0.00714707 0)
(1.03508 0.00834085 0)
(1.01121 -0.000109236 0)
(1.01081 0.0104219 0)
(1.01872 0.0042248 0)
(1.01817 0.00454471 0)
(1.01758 0.00757858 0)
(1.02397 0.0132285 0)
(1.02337 0.00743859 0)
(1.01368 0.00865898 0)
(1.01082 0.00727322 0)
(1.00615 0.0028154 0)
(0.996497 0.0011978 0)
(0.992068 0.00326592 0)
(0.992513 0.00212601 0)
(0.992388 0.00596945 0)
(0.987411 -0.00213391 0)
(1.02939 0.0170353 0)
(1.00341 -0.037594 0)
(0.985386 -0.00699332 0)
(1.0082 0.00667719 0)
(1.02065 0.00844959 0)
(1.0067 0.000267091 0)
(1.00558 0.01016 0)
(1.012 0.00428237 0)
(1.012 0.00447266 0)
(1.01036 0.00753681 0)
(1.01476 0.013011 0)
(1.01535 0.00780075 0)
(1.00789 0.00872052 0)
(1.00667 0.00764224 0)
(1.00461 0.0032398 0)
(0.996348 0.00157296 0)
(0.991689 0.00352621 0)
(0.99164 0.00225854 0)
(0.989953 0.00585863 0)
(0.988341 -0.00224164 0)
(1.02529 0.0166098 0)
(1.00969 -0.0367335 0)
(0.978873 -0.0071327 0)
(0.996753 0.00623139 0)
(1.00957 0.00839533 0)
(1.00268 0.000525278 0)
(1.00209 0.00989854 0)
(1.0082 0.00434587 0)
(1.0091 0.00439736 0)
(1.00649 0.00757415 0)
(1.00863 0.0128238 0)
(1.00943 0.00809978 0)
(1.00348 0.00870727 0)
(1.00345 0.00787004 0)
(1.00364 0.00356737 0)
(0.997204 0.00187355 0)
(0.992836 0.00380539 0)
(0.992927 0.00249024 0)
(0.990311 0.00586134 0)
(0.989309 -0.00232 0)
(1.02164 0.016116 0)
(1.01252 -0.0358223 0)
(0.976851 -0.00711985 0)
(0.99033 0.00585502 0)
(1.00167 0.00825119 0)
(0.999206 0.000686163 0)
(0.999789 0.00959796 0)
(1.00636 0.00439085 0)
(1.00802 0.00431834 0)
(1.00472 0.00769057 0)
(1.00495 0.0126936 0)
(1.0055 0.00836923 0)
(1.00037 0.008655 0)
(1.00119 0.007974 0)
(1.00297 0.00379322 0)
(0.998358 0.00207428 0)
(0.994651 0.00404942 0)
(0.995301 0.00277846 0)
(0.992508 0.00593436 0)
(0.990545 -0.00237206 0)
(1.01824 0.0155899 0)
(1.01319 -0.0348947 0)
(0.977126 -0.00702384 0)
(0.987248 0.00555934 0)
(0.996532 0.0080689 0)
(0.996481 0.000776701 0)
(0.998142 0.00923872 0)
(1.00545 0.00441055 0)
(1.00749 0.00423635 0)
(1.00391 0.00786543 0)
(1.00294 0.0126177 0)
(1.00333 0.00862619 0)
(0.998535 0.00859403 0)
(0.999906 0.0079822 0)
(1.00261 0.00393921 0)
(0.9994 0.00217729 0)
(0.99645 0.00421628 0)
(0.997784 0.00307895 0)
(0.995387 0.0060098 0)
(0.991931 -0.00240154 0)
(1.01522 0.0150541 0)
(1.01267 -0.0339681 0)
(0.978198 -0.00689138 0)
(0.986087 0.00534 0)
(0.993584 0.00787822 0)
(0.994672 0.000828486 0)
(0.996842 0.00882487 0)
(1.00475 0.00441245 0)
(1.00674 0.00415078 0)
(1.0033 0.00806756 0)
(1.00194 0.0125731 0)
(1.00248 0.0088696 0)
(0.997847 0.00854023 0)
(0.999526 0.00792732 0)
(1.00263 0.00403868 0)
(1.00026 0.00221017 0)
(0.997908 0.00428876 0)
(0.999805 0.00336286 0)
(0.998057 0.00603945 0)
(0.99333 -0.00241289 0)
(1.01272 0.0145205 0)
(1.01154 -0.0330452 0)
(0.979236 -0.00676426 0)
(0.98591 0.00517313 0)
(0.992224 0.00768542 0)
(0.993822 0.000867386 0)
(0.995846 0.00837492 0)
(1.00398 0.00441041 0)
(1.00552 0.00406353 0)
(1.00253 0.00826416 0)
(1.00142 0.0125307 0)
(1.00249 0.00908336 0)
(0.99808 0.00849829 0)
(0.999894 0.00783501 0)
(1.0031 0.00411904 0)
(1.00103 0.00221499 0)
(0.998989 0.004279 0)
(1.0012 0.00362109 0)
(1.00008 0.00601077 0)
(0.994648 -0.00241152 0)
(1.01078 0.0139968 0)
(1.01019 -0.0321199 0)
(0.979902 -0.00666155 0)
(0.986173 0.00503439 0)
(0.99193 0.00748695 0)
(0.993845 0.000910568 0)
(0.995226 0.00791386 0)
(1.00312 0.00442293 0)
(1.00389 0.00398063 0)
(1.00149 0.008427 0)
(1.00107 0.0124665 0)
(1.00294 0.00924518 0)
(0.998961 0.00846528 0)
(1.00079 0.00772158 0)
(1.00397 0.00419806 0)
(1.00183 0.00223328 0)
(0.999784 0.00422208 0)
(1.00202 0.00386192 0)
(1.00137 0.00594022 0)
(0.995793 -0.00240295 0)
(1.00941 0.0134864 0)
(1.00885 -0.0311836 0)
(0.980148 -0.00658025 0)
(0.986607 0.00490421 0)
(0.992298 0.00727313 0)
(0.994535 0.000966834 0)
(0.995006 0.00746421 0)
(1.00225 0.00446952 0)
(1.00204 0.00391078 0)
(1.00024 0.00853528 0)
(1.00075 0.0123616 0)
(1.00352 0.00933653 0)
(1.00022 0.00843351 0)
(1.00195 0.00760101 0)
(1.00509 0.00428408 0)
(1.00268 0.00229659 0)
(1.00038 0.00415687 0)
(1.00237 0.00409762 0)
(1.00201 0.00585941 0)
(0.996685 -0.00239186 0)
(1.00857 0.0129881 0)
(1.00766 -0.0302232 0)
(0.980081 -0.00652594 0)
(0.987116 0.00476337 0)
(0.993038 0.00703705 0)
(0.995593 0.00103937 0)
(0.995098 0.00704433 0)
(1.00142 0.00456388 0)
(1.00021 0.00386227 0)
(0.998947 0.00857633 0)
(1.00043 0.0122063 0)
(1.00401 0.0093465 0)
(1.00159 0.00839122 0)
(1.00309 0.00748444 0)
(1.00626 0.00437975 0)
(1.00351 0.00242384 0)
(1.00085 0.00411529 0)
(1.00241 0.00433798 0)
(1.00216 0.00580049 0)
(0.997301 -0.00238202 0)
(1.00816 0.0124981 0)
(1.00669 -0.0292292 0)
(0.979875 -0.00649892 0)
(0.987666 0.00459708 0)
(0.993927 0.00677457 0)
(0.996713 0.0011261 0)
(0.995349 0.00666448 0)
(1.00068 0.00471068 0)
(0.998661 0.00383911 0)
(0.997801 0.008545 0)
(1.00015 0.0120044 0)
(1.00427 0.00927331 0)
(1.00285 0.0083273 0)
(1.004 0.00737678 0)
(1.00727 0.00448299 0)
(1.00425 0.00261817 0)
(1.00125 0.0041173 0)
(1.00228 0.00459107 0)
(1.00204 0.00579348 0)
(0.997686 -0.00237568 0)
(1.00802 0.0120119 0)
(1.00588 -0.0281963 0)
(0.979706 -0.00649855 0)
(0.988221 0.00440296 0)
(0.99479 0.00648768 0)
(0.99767 0.00122522 0)
(0.99563 0.00632539 0)
(1.00006 0.00490303 0)
(0.997579 0.00384228 0)
(0.996927 0.00844562 0)
(0.999962 0.0117676 0)
(1.00424 0.00912477 0)
(1.00387 0.00823601 0)
(1.00457 0.00727755 0)
(1.00802 0.0045852 0)
(1.00484 0.00286896 0)
(1.00161 0.00416874 0)
(1.00213 0.00485277 0)
(1.00186 0.00586028 0)
(0.997914 -0.00237384 0)
(1.00802 0.0115256 0)
(1.00518 -0.0271221 0)
(0.979706 -0.00652436 0)
(0.988733 0.00418227 0)
(0.995518 0.00618287 0)
(0.998367 0.00133353 0)
(0.995872 0.0060219 0)
(0.999564 0.00512545 0)
(0.997036 0.00387075 0)
(0.996359 0.0082898 0)
(0.999879 0.0115114 0)
(1.00396 0.00892047 0)
(1.0046 0.00811661 0)
(1.00481 0.00718535 0)
(1.00846 0.00467684 0)
(1.00525 0.00315685 0)
(1.00193 0.00427125 0)
(1.00204 0.00511312 0)
(1.00177 0.00599436 0)
(0.998039 -0.00237667 0)
(1.00806 0.0110376 0)
(1.00454 -0.0260105 0)
(0.979939 -0.00657059 0)
(0.989175 0.00393739 0)
(0.996077 0.00586755 0)
(0.998817 0.00144331 0)
(0.996065 0.00574801 0)
(0.999153 0.0053585 0)
(0.996997 0.00392212 0)
(0.996057 0.00809243 0)
(0.9999 0.011254 0)
(1.00354 0.00868023 0)
(1.00506 0.00797001 0)
(1.00482 0.00710504 0)
(1.00861 0.00475294 0)
(1.00551 0.00345931 0)
(1.00218 0.00442107 0)
(1.00202 0.00536914 0)
(1.00181 0.00616511 0)
(0.998079 -0.00238416 0)
(1.00812 0.010549 0)
(1.00396 -0.0248679 0)
(0.980417 -0.00663295 0)
(0.989545 0.0036762 0)
(0.996482 0.00554866 0)
(0.999077 0.0015505 0)
(0.996221 0.00549871 0)
(0.998783 0.00558381 0)
(0.99735 0.0039963 0)
(0.995965 0.00786709 0)
(1 0.0110072 0)
(1.0031 0.00842025 0)
(1.00528 0.00779659 0)
(1.00472 0.00704402 0)
(1.00853 0.0048105 0)
(1.00563 0.00375857 0)
(1.00234 0.00460818 0)
(1.00203 0.00561803 0)
(1.00193 0.00633824 0)
(0.998043 -0.0023963 0)
(1.00817 0.0100595 0)
(1.00345 -0.0236991 0)
(0.981119 -0.00670947 0)
(0.989854 0.00340477 0)
(0.996767 0.00522836 0)
(0.999205 0.00165194 0)
(0.996354 0.00527114 0)
(0.998414 0.00578694 0)
(0.997953 0.00408947 0)
(0.996049 0.00762203 0)
(1.00016 0.0107736 0)
(1.00274 0.008158 0)
(1.00532 0.00759697 0)
(1.00457 0.00700499 0)
(1.00827 0.00485299 0)
(1.00564 0.00404001 0)
(1.00239 0.00482685 0)
(1.00202 0.00586103 0)
(1.00209 0.00648437 0)
(0.997941 -0.0024118 0)
(1.00815 0.00956794 0)
(1.00308 -0.0225117 0)
(0.982013 -0.00679306 0)
(0.990116 0.00312954 0)
(0.996957 0.0049099 0)
(0.999229 0.00174376 0)
(0.996479 0.0050634 0)
(0.998028 0.0059578 0)
(0.998661 0.00419629 0)
(0.996295 0.00736471 0)
(1.00034 0.0105519 0)
(1.00254 0.00790473 0)
(1.00522 0.00737482 0)
(1.00442 0.00698704 0)
(1.00786 0.0048953 0)
(1.00555 0.00429095 0)
(1.00234 0.00506368 0)
(1.00193 0.00611076 0)
(1.00224 0.00659928 0)
(0.997801 -0.0024273 0)
(1.00802 0.00907109 0)
(1.00287 -0.0213137 0)
(0.983062 -0.00687726 0)
(0.990332 0.00285642 0)
(0.997066 0.00459785 0)
(0.999156 0.00182516 0)
(0.996601 0.00487427 0)
(0.997638 0.00608862 0)
(0.999355 0.00431187 0)
(0.996694 0.00709784 0)
(1.0005 0.0103414 0)
(1.00248 0.0076699 0)
(1.00501 0.0071377 0)
(1.00426 0.00698683 0)
(1.00734 0.00494706 0)
(1.00537 0.00450536 0)
(1.00221 0.0053027 0)
(1.00177 0.00637864 0)
(1.00234 0.0066897 0)
(0.997659 -0.00244112 0)
(1.00772 0.00856721 0)
(1.00284 -0.0201192 0)
(0.98422 -0.00695386 0)
(0.990502 0.00259007 0)
(0.997106 0.00429399 0)
(0.998986 0.00189412 0)
(0.996724 0.00470116 0)
(0.997279 0.00617692 0)
(0.999952 0.00443008 0)
(0.997229 0.00682117 0)
(1.00062 0.0101423 0)
(1.00253 0.00746498 0)
(1.00475 0.00689643 0)
(1.00408 0.00700395 0)
(1.00677 0.00501606 0)
(1.00511 0.0046813 0)
(1.00203 0.00552974 0)
(1.00152 0.0066648 0)
(1.00241 0.00677477 0)
(0.997553 -0.00244885 0)
(1.00724 0.00805401 0)
(1.00295 -0.0189383 0)
(0.985436 -0.00701337 0)
(0.99063 0.00233381 0)
(0.997097 0.00400165 0)
(0.998732 0.00195 0)
(0.996846 0.00453584 0)
(0.996983 0.00622586 0)
(1.00041 0.00454827 0)
(0.997859 0.00653646 0)
(1.0007 0.00995118 0)
(1.00263 0.00729439 0)
(1.00446 0.00665757 0)
(1.00388 0.00703666 0)
(1.00618 0.00512047 0)
(1.0048 0.00482173 0)
(1.00186 0.00572576 0)
(1.00124 0.0069529 0)
(1.00245 0.00688966 0)
(0.997506 -0.00244632 0)
(1.0066 0.00752876 0)
(1.00313 -0.0177788 0)
(0.986658 -0.00704745 0)
(0.990728 0.00208954 0)
(0.99706 0.00372142 0)
(0.998423 0.00199396 0)
(0.996966 0.00437178 0)
(0.996776 0.00623403 0)
(1.0007 0.00466443 0)
(0.998533 0.00624805 0)
(1.00072 0.00976472 0)
(1.0027 0.00716515 0)
(1.0042 0.00642176 0)
(1.00366 0.0070721 0)
(1.00562 0.00527456 0)
(1.00448 0.00493634 0)
(1.00174 0.00587804 0)
(1.00095 0.00722257 0)
(1.00245 0.00706176 0)
(0.997526 -0.00243266 0)
(1.00586 0.00699503 0)
(1.00333 -0.0166546 0)
(0.987837 -0.00704886 0)
(0.990816 0.00185829 0)
(0.997017 0.00345364 0)
(0.998104 0.0020272 0)
(0.997082 0.00420299 0)
(0.996663 0.00620026 0)
(1.00085 0.00477681 0)
(0.999194 0.00595522 0)
(1.00072 0.00957153 0)
(1.00272 0.00709579 0)
(1.00397 0.00619733 0)
(1.00344 0.00709309 0)
(1.00512 0.00547351 0)
(1.00417 0.0050394 0)
(1.00169 0.0059812 0)
(1.00072 0.00744807 0)
(1.00243 0.00728351 0)
(0.997608 -0.00240538 0)
(1.0051 0.00645398 0)
(1.00348 -0.0155668 0)
(0.988942 -0.00701752 0)
(0.990921 0.00163836 0)
(0.996981 0.00320131 0)
(0.997818 0.00205323 0)
(0.997198 0.00402594 0)
(0.996634 0.00612946 0)
(1.00088 0.00489126 0)
(0.999797 0.00566608 0)
(1.0007 0.00934625 0)
(1.00264 0.00708755 0)
(1.00379 0.00599319 0)
(1.00324 0.00709295 0)
(1.00469 0.00570437 0)
(1.0039 0.00514517 0)
(1.00173 0.00603993 0)
(1.00058 0.00760727 0)
(1.0024 0.00751692 0)
(0.997738 -0.00236604 0)
(1.00437 0.0059109 0)
(1.00353 -0.0145216 0)
(0.989953 -0.00695059 0)
(0.991066 0.00142949 0)
(0.996954 0.00295649 0)
(0.997594 0.00207524 0)
(0.997317 0.00384282 0)
(0.99667 0.00602138 0)
(1.00083 0.00500382 0)
(1.00031 0.00539928 0)
(1.0007 0.00908745 0)
(1.00249 0.00712591 0)
(1.00365 0.00580058 0)
(1.00308 0.00706027 0)
(1.00433 0.00597187 0)
(1.00368 0.00527189 0)
(1.00185 0.00606087 0)
(1.00053 0.0077048 0)
(1.00237 0.00773857 0)
(0.997898 -0.0023149 0)
(1.00373 0.00537016 0)
(1.00348 -0.0135202 0)
(0.990871 -0.0068529 0)
(0.991267 0.00122856 0)
(0.996934 0.00271674 0)
(0.997441 0.00209416 0)
(0.997441 0.00366042 0)
(0.996746 0.00588379 0)
(1.00073 0.00511158 0)
(1.00073 0.00515212 0)
(1.00073 0.00880208 0)
(1.00226 0.00721771 0)
(1.00354 0.00563567 0)
(1.00299 0.00695894 0)
(1.00403 0.00626136 0)
(1.00349 0.00544153 0)
(1.00201 0.00604001 0)
(1.00059 0.00773679 0)
(1.00235 0.00793431 0)
(0.998073 -0.00225532 0)
(1.00317 0.00483644 0)
(1.00332 -0.0125589 0)
(0.991701 -0.00673352 0)
(0.991533 0.00103953 0)
(0.996916 0.00248525 0)
(0.997349 0.00210589 0)
(0.99757 0.0034783 0)
(0.996843 0.005716 0)
(1.0006 0.00522315 0)
(1.00105 0.0049326 0)
(1.0008 0.00846399 0)
(1.002 0.00733857 0)
(1.00344 0.0055513 0)
(1.00295 0.00679612 0)
(1.00379 0.00653327 0)
(1.00332 0.00567251 0)
(1.0022 0.00599702 0)
(1.00074 0.00769392 0)
(1.00235 0.00808359 0)
(0.998251 -0.00218871 0)
(1.0027 0.0043137 0)
(1.00308 -0.0116364 0)
(0.992451 -0.00659943 0)
(0.99186 0.000863173 0)
(0.996903 0.00225335 0)
(0.997303 0.00210562 0)
(0.997699 0.00330669 0)
(0.996948 0.00550919 0)
(1.00046 0.00531529 0)
(1.00128 0.00476697 0)
(1.00092 0.00809413 0)
(1.00172 0.00742768 0)
(1.00332 0.00553993 0)
(1.00298 0.00659205 0)
(1.00362 0.00675388 0)
(1.00315 0.00596396 0)
(1.00237 0.00597704 0)
(1.00096 0.00757918 0)
(1.00238 0.00817778 0)
(0.998424 -0.0021159 0)
(1.00231 0.00380516 0)
(1.00278 -0.0107468 0)
(0.99313 -0.00645515 0)
(0.992237 0.000704965 0)
(0.9969 0.00202762 0)
(0.997285 0.00208518 0)
(0.997825 0.00314925 0)
(0.997051 0.00528655 0)
(1.00033 0.00538031 0)
(1.00145 0.00462485 0)
(1.00106 0.00772297 0)
(1.00145 0.0074936 0)
(1.00318 0.00559098 0)
(1.00305 0.00635692 0)
(1.00351 0.00689679 0)
(1.00297 0.006301 0)
(1.0025 0.0060192 0)
(1.00123 0.00738985 0)
(1.00247 0.00816043 0)
(0.998586 -0.00203974 0)
(1.00198 0.0033135 0)
(1.00245 -0.00988858 0)
(0.993744 -0.00631452 0)
(0.992648 0.000567188 0)
(0.996909 0.00181192 0)
(0.997285 0.00204988 0)
(0.997945 0.00302002 0)
(0.997152 0.00504602 0)
(1.0002 0.00544161 0)
(1.00156 0.0045137 0)
(1.00123 0.00731189 0)
(1.0012 0.00752707 0)
(1.00301 0.00571737 0)
(1.00314 0.00612713 0)
(1.00347 0.00694888 0)
(1.00281 0.00664587 0)
(1.00256 0.00616568 0)
(1.0015 0.00721359 0)
(1.00262 0.00801141 0)
(0.998735 -0.00195938 0)
(1.0017 0.00283782 0)
(1.00212 -0.00905797 0)
(0.994301 -0.00618169 0)
(0.993076 0.000449144 0)
(0.996935 0.00161311 0)
(0.997298 0.0019783 0)
(0.998056 0.00291535 0)
(0.997251 0.00479902 0)
(1.00008 0.00545813 0)
(1.00161 0.004467 0)
(1.00141 0.00691033 0)
(1.00099 0.00748408 0)
(1.00279 0.00589429 0)
(1.00323 0.00593558 0)
(1.00351 0.00691286 0)
(1.00267 0.00694064 0)
(1.00256 0.0063657 0)
(1.00172 0.00711739 0)
(1.00281 0.00779663 0)
(0.998871 -0.00187423 0)
(1.00145 0.00237711 0)
(1.00178 -0.0082605 0)
(0.994807 -0.00604538 0)
(0.993506 0.000336872 0)
(0.996973 0.00142916 0)
(0.997318 0.00189078 0)
(0.998162 0.00281987 0)
(0.997349 0.00456077 0)
(0.999962 0.00543615 0)
(1.00163 0.0044064 0)
(1.00159 0.00653654 0)
(1.00081 0.00739593 0)
(1.00254 0.00607586 0)
(1.00329 0.00580649 0)
(1.0036 0.00679572 0)
(1.00257 0.00720513 0)
(1.00251 0.00662181 0)
(1.00189 0.00708335 0)
(1.00302 0.00757224 0)
(0.998994 -0.00178781 0)
(1.00122 0.00193676 0)
(1.00146 -0.00748786 0)
(0.995269 -0.00591838 0)
(0.993928 0.000225106 0)
(0.997025 0.00128654 0)
(0.997348 0.00176015 0)
(0.998258 0.00272651 0)
(0.997449 0.00432269 0)
(0.999846 0.00539873 0)
(1.00161 0.00437706 0)
(1.00177 0.0061565 0)
(1.00069 0.00724326 0)
(1.00227 0.0062692 0)
(1.00331 0.00574759 0)
(1.00375 0.00659335 0)
(1.00253 0.00735096 0)
(1.00241 0.00695803 0)
(1.00197 0.00715102 0)
(1.00319 0.00744721 0)
(0.999104 -0.00169392 0)
(1.00103 0.00149922 0)
(1.00116 -0.00674522 0)
(0.995694 -0.00576533 0)
(0.994343 8.74446e-05 0)
(0.997077 0.00118179 0)
(0.997377 0.00164142 0)
(0.998356 0.00263539 0)
(0.997555 0.00409504 0)
(0.999744 0.0053154 0)
(1.00156 0.00435093 0)
(1.00193 0.00582806 0)
(1.00062 0.0070439 0)
(1.00199 0.00640194 0)
(1.00325 0.00575944 0)
(1.0039 0.00639695 0)
(1.00257 0.00731809 0)
(1.00232 0.00720617 0)
(1.00199 0.00724642 0)
(1.00329 0.00737856 0)
(0.999204 -0.00159879 0)
(1.00085 0.00109315 0)
(1.00087 -0.00605173 0)
(0.996083 -0.00559375 0)
(0.994743 -7.59413e-05 0)
(0.997138 0.00112889 0)
(0.99741 0.00149727 0)
(0.998444 0.00252662 0)
(0.997663 0.00389286 0)
(0.99964 0.00524268 0)
(1.00149 0.00432814 0)
(1.00207 0.00548356 0)
(1.00058 0.00682492 0)
(1.00171 0.0065267 0)
(1.00316 0.00575325 0)
(1.00404 0.0061663 0)
(1.00266 0.00715535 0)
(1.00225 0.00727284 0)
(1.00195 0.00730638 0)
(1.00333 0.00732759 0)
(0.999294 -0.00150101 0)
(1.0007 0.000695893 0)
(1.00059 -0.00539861 0)
(0.996438 -0.00536812 0)
(0.995142 -0.000302982 0)
(0.99719 0.00111544 0)
(0.997429 0.00138179 0)
(0.998541 0.00238973 0)
(0.997789 0.00367538 0)
(0.99955 0.00512798 0)
(1.00137 0.00433196 0)
(1.00219 0.00519609 0)
(1.00061 0.00650585 0)
(1.00144 0.00661467 0)
(1.00298 0.00582034 0)
(1.00414 0.00590813 0)
(1.0028 0.00689862 0)
(1.00222 0.00719718 0)
(1.00191 0.00730383 0)
(1.00335 0.00726152 0)
(0.999372 -0.0013988 0)
(1.00057 0.000330236 0)
(1.00034 -0.00481477 0)
(0.996746 -0.00509255 0)
(0.995531 -0.000567755 0)
(0.997267 0.00111778 0)
(0.997438 0.00129693 0)
(0.998614 0.00222819 0)
(0.997915 0.00346008 0)
(0.999475 0.00502382 0)
(1.00125 0.00431643 0)
(1.00227 0.00493047 0)
(1.00066 0.00618867 0)
(1.00124 0.00660901 0)
(1.00275 0.00586807 0)
(1.00417 0.00578683 0)
(1.00295 0.00666231 0)
(1.00223 0.00720887 0)
(1.00185 0.00745987 0)
(1.00338 0.00733725 0)
(0.999444 -0.0012987 0)
(1.00047 -9.17494e-06 0)
(1.0001 -0.00428431 0)
(0.997024 -0.00477223 0)
(0.99592 -0.000847085 0)
(0.997341 0.00110121 0)
(0.997425 0.00126328 0)
(0.998693 0.00207638 0)
(0.998065 0.00322344 0)
(0.999413 0.00490344 0)
(1.00108 0.00431367 0)
(1.00233 0.00469313 0)
(1.00076 0.00586092 0)
(1.00103 0.00653089 0)
(1.00249 0.00596112 0)
(1.00418 0.00569084 0)
(1.00315 0.00636183 0)
(1.00235 0.00714376 0)
(1.00183 0.00752815 0)
(1.00328 0.0074493 0)
(0.999505 -0.00119864 0)
(1.00038 -0.00031815 0)
(0.999897 -0.00381911 0)
(0.997251 -0.00441312 0)
(0.996294 -0.00112749 0)
(0.997456 0.00104124 0)
(0.997406 0.00130754 0)
(0.998729 0.00192806 0)
(0.998209 0.00296241 0)
(0.999377 0.00474633 0)
(1.00091 0.00433294 0)
(1.00233 0.00450661 0)
(1.00086 0.00549059 0)
(1.00093 0.00641781 0)
(1.00223 0.00608974 0)
(1.00406 0.00563512 0)
(1.00332 0.00611258 0)
(1.00251 0.00696721 0)
(1.00184 0.00747301 0)
(1.00325 0.00751354 0)
(0.99956 -0.00110016 0)
(1.00032 -0.000584886 0)
(0.999716 -0.00342602 0)
(0.997444 -0.00403604 0)
(0.996659 -0.00135821 0)
(0.997586 0.000910345 0)
(0.99737 0.00135411 0)
(0.998751 0.00183327 0)
(0.998376 0.00269541 0)
(0.999373 0.00456209 0)
(1.00071 0.00434456 0)
(1.00229 0.00436401 0)
(1.00101 0.00515643 0)
(1.00086 0.00626533 0)
(1.00195 0.00615448 0)
(1.00392 0.00575088 0)
(1.00348 0.00600414 0)
(1.00273 0.00682144 0)
(1.00191 0.00749989 0)
(1.00318 0.00757233 0)
(0.999606 -0.00100696 0)
(1.00027 -0.000823776 0)
(0.999571 -0.00309122 0)
(0.997599 -0.00363808 0)
(0.996992 -0.00155105 0)
(0.997761 0.000716374 0)
(0.997356 0.00144292 0)
(0.998725 0.00180889 0)
(0.998516 0.00240841 0)
(0.999401 0.00432395 0)
(1.00054 0.0043547 0)
(1.0022 0.0043137 0)
(1.00112 0.00483582 0)
(1.00088 0.00607108 0)
(1.00175 0.00622199 0)
(1.00371 0.00585864 0)
(1.00356 0.0059187 0)
(1.00297 0.00663181 0)
(1.00203 0.00743357 0)
(1.00308 0.00753575 0)
(0.999647 -0.000919509 0)
(1.00024 -0.00101037 0)
(0.999456 -0.00283085 0)
(0.997726 -0.00324595 0)
(0.9973 -0.0016633 0)
(0.99796 0.000490588 0)
(0.997351 0.00147101 0)
(0.99867 0.0018404 0)
(0.998657 0.00218841 0)
(0.999478 0.0040685 0)
(1.00037 0.00433148 0)
(1.00205 0.00429307 0)
(1.00124 0.00461695 0)
(1.00096 0.00586605 0)
(1.00156 0.00615638 0)
(1.00348 0.00592112 0)
(1.00359 0.00592776 0)
(1.00321 0.0064523 0)
(1.00219 0.00725558 0)
(1.00298 0.00746426 0)
(0.999682 -0.000838723 0)
(1.00021 -0.00116672 0)
(0.999379 -0.00262322 0)
(0.997833 -0.00285635 0)
(0.997563 -0.00171419 0)
(0.998188 0.000235593 0)
(0.997397 0.00146886 0)
(0.99859 0.0019445 0)
(0.99875 0.00202314 0)
(0.999572 0.0037514 0)
(1.00025 0.00424615 0)
(1.00189 0.0043454 0)
(1.00132 0.00445791 0)
(1.00105 0.00558823 0)
(1.00145 0.0060583 0)
(1.00328 0.00597593 0)
(1.00355 0.00594158 0)
(1.00338 0.00626973 0)
(1.00237 0.00697795 0)
(1.00292 0.00734707 0)
(0.999714 -0.000769043 0)
(1.0002 -0.00127194 0)
(0.999334 -0.00246778 0)
(0.997927 -0.00249722 0)
(0.997789 -0.00169529 0)
(0.998429 2.79449e-06 0)
(0.997481 0.00138611 0)
(0.998499 0.00204207 0)
(0.998809 0.00193196 0)
(0.999694 0.00347152 0)
(1.00019 0.00412826 0)
(1.00171 0.00437251 0)
(1.00133 0.00434096 0)
(1.00116 0.00534315 0)
(1.00139 0.00592978 0)
(1.00308 0.00593774 0)
(1.00346 0.0058883 0)
(1.00349 0.00615541 0)
(1.00258 0.00671263 0)
(1.00293 0.00714526 0)
(0.999742 -0.00070817 0)
(1.00019 -0.00134265 0)
(0.999323 -0.00235146 0)
(0.998019 -0.00216806 0)
(0.997971 -0.00162318 0)
(0.998671 -0.000217482 0)
(0.997622 0.00124383 0)
(0.998422 0.00215244 0)
(0.998825 0.00192404 0)
(0.999807 0.00320786 0)
(1.00017 0.00392831 0)
(1.00154 0.00435835 0)
(1.00132 0.00430293 0)
(1.00127 0.00512724 0)
(1.00136 0.00572881 0)
(1.00291 0.0058677 0)
(1.00338 0.00582694 0)
(1.00354 0.00606016 0)
(1.00273 0.00648833 0)
(1.00301 0.00682532 0)
(0.999768 -0.000659919 0)
(1.00018 -0.00136889 0)
(0.99934 -0.00226648 0)
(0.998113 -0.00188615 0)
(0.998116 -0.00150526 0)
(0.998903 -0.000390559 0)
(0.997812 0.00103915 0)
(0.998372 0.0022164 0)
(0.998802 0.00196638 0)
(0.999905 0.00300157 0)
(1.0002 0.00371751 0)
(1.00142 0.00430457 0)
(1.00127 0.00427264 0)
(1.00135 0.00494656 0)
(1.00137 0.00551342 0)
(1.00276 0.00577191 0)
(1.00327 0.00573761 0)
(1.00357 0.00590288 0)
(1.00282 0.00633723 0)
(1.00311 0.00653909 0)
(0.999792 -0.000621951 0)
(1.00017 -0.00136063 0)
(0.99938 -0.00220226 0)
(0.998219 -0.00165274 0)
(0.998226 -0.00135406 0)
(0.99911 -0.000505962 0)
(0.998049 0.000801926 0)
(0.998372 0.00222542 0)
(0.998759 0.00205232 0)
(0.999972 0.00286147 0)
(1.00025 0.00348814 0)
(1.00132 0.00419032 0)
(1.00122 0.00423082 0)
(1.0014 0.00481509 0)
(1.0014 0.00531132 0)
(1.00264 0.00561688 0)
(1.00315 0.00564199 0)
(1.0036 0.00573324 0)
(1.00289 0.00620485 0)
(1.00317 0.00636396 0)
(0.999815 -0.000595694 0)
(1.00015 -0.00132024 0)
(0.999435 -0.00214451 0)
(0.998337 -0.0014717 0)
(0.998314 -0.00118731 0)
(0.999286 -0.000551417 0)
(0.998313 0.000556602 0)
(0.998429 0.00216196 0)
(0.998707 0.00214386 0)
(0.999999 0.00277744 0)
(1.00032 0.00327545 0)
(1.00127 0.00404847 0)
(1.00117 0.00417263 0)
(1.00142 0.00469697 0)
(1.00141 0.00512577 0)
(1.00256 0.00544114 0)
(1.00303 0.00555079 0)
(1.00362 0.00558607 0)
(1.00298 0.00598285 0)
(1.00314 0.00624035 0)
(0.999837 -0.000577735 0)
(1.00014 -0.00125522 0)
(0.999499 -0.00208916 0)
(0.998472 -0.00133812 0)
(0.998387 -0.00101563 0)
(0.999422 -0.000533669 0)
(0.998591 0.000321316 0)
(0.998551 0.00202952 0)
(0.998671 0.00221747 0)
(0.999991 0.00275684 0)
(1.00037 0.00309857 0)
(1.00126 0.00385996 0)
(1.00114 0.00407706 0)
(1.00144 0.00458101 0)
(1.00143 0.0049653 0)
(1.0025 0.00526875 0)
(1.00292 0.00541426 0)
(1.00358 0.005459 0)
(1.0031 0.00570249 0)
(1.00312 0.00608684 0)
(0.999859 -0.000567943 0)
(1.00012 -0.00117475 0)
(0.999564 -0.00202057 0)
(0.998622 -0.00124289 0)
(0.998457 -0.000855287 0)
(0.999517 -0.000449802 0)
(0.99886 0.000131876 0)
(0.998732 0.00183728 0)
(0.998671 0.00223659 0)
(0.999952 0.00274914 0)
(1.0004 0.00295722 0)
(1.00127 0.00366287 0)
(1.00114 0.00394994 0)
(1.00146 0.00446795 0)
(1.00143 0.00481669 0)
(1.00244 0.005093 0)
(1.00283 0.00523093 0)
(1.0035 0.00535184 0)
(1.0032 0.00547858 0)
(1.00318 0.00585199 0)
(0.99988 -0.000561588 0)
(1.00009 -0.00108726 0)
(0.999625 -0.00193668 0)
(0.998783 -0.00117218 0)
(0.998533 -0.000716205 0)
(0.999577 -0.000325413 0)
(0.999101 1.81817e-05 0)
(0.998957 0.00161422 0)
(0.998716 0.00218688 0)
(0.999904 0.00273515 0)
(1.00041 0.00285699 0)
(1.00129 0.00348523 0)
(1.00116 0.00378411 0)
(1.00148 0.00431993 0)
(1.00142 0.00466228 0)
(1.00238 0.00493461 0)
(1.00277 0.00504098 0)
(1.00343 0.00521713 0)
(1.00323 0.00531545 0)
(1.00327 0.00555256 0)
(0.999899 -0.000556879 0)
(1.00007 -0.000998417 0)
(0.999678 -0.00183273 0)
(0.998952 -0.00111676 0)
(0.998621 -0.000606373 0)
(0.999612 -0.000189877 0)
(0.999302 -2.06121e-05 0)
(0.999201 0.00139393 0)
(0.998812 0.00207001 0)
(0.999862 0.00270395 0)
(1.00039 0.00277217 0)
(1.00129 0.00332165 0)
(1.00119 0.00360854 0)
(1.00153 0.00414466 0)
(1.00144 0.0044986 0)
(1.0023 0.00479844 0)
(1.00271 0.00485992 0)
(1.00337 0.00501303 0)
(1.00321 0.00516023 0)
(1.00334 0.00528827 0)
(0.999918 -0.000552069 0)
(1.00004 -0.000912769 0)
(0.99972 -0.00170801 0)
(0.999121 -0.00106941 0)
(0.998722 -0.000526829 0)
(0.999635 -6.04135e-05 0)
(0.999462 -7.26542e-06 0)
(0.999441 0.00120814 0)
(0.998953 0.00190481 0)
(0.999843 0.00264009 0)
(1.00036 0.00269949 0)
(1.00129 0.00317529 0)
(1.00123 0.00344753 0)
(1.00158 0.00396752 0)
(1.00147 0.0043056 0)
(1.00223 0.0046411 0)
(1.00261 0.00470174 0)
(1.00333 0.0047875 0)
(1.00319 0.00498094 0)
(1.00337 0.00509181 0)
(0.999934 -0.000543116 0)
(1.00002 -0.000835064 0)
(0.999749 -0.0015694 0)
(0.999283 -0.00102254 0)
(0.998837 -0.000476043 0)
(0.999654 5.49487e-05 0)
(0.999582 4.0379e-05 0)