/*--------------------------------*- C++ -*----------------------------------*\
| =========                 |                                                 |
| \\      /  F ield         | OpenFOAM: The Open Source CFD Toolbox           |
|  \\    /   O peration     | Version:  v1912                                 |
|   \\  /    A nd           | Website:  www.openfoam.com                      |
|    \\/     M anipulation  |                                                 |
\*---------------------------------------------------------------------------*/
FoamFile
{
    version     2.0;
    format      ascii;
    class       surfaceScalarField;
    location    "2.45";
    object      phi;
}
// * * * * * * * * * * * * * * * * * * * * * * * * * * * * * * * * * * * * * //

dimensions      [0 3 -1 0 0 0 0];
oriented        oriented;


internalField   nonuniform List<scalar> 
19000
(
1.23362e-06
3.40893e-07
1.05358e-06
4.32739e-07
1.11313e-06
-9.22669e-07
1.26094e-06
1.36325e-06
1.15355e-06
3.04239e-07
1.12197e-06
-7.44172e-07
1.21073e-06
2.41613e-07
1.11976e-06
3.37648e-07
1.1704e-06
9.17708e-07
1.1702e-06
8.23773e-07
1.15021e-06
-2.41141e-08
1.16562e-06
3.59132e-07
1.15416e-06
2.36661e-07
1.15017e-06
4.60872e-07
1.14062e-06
1.69326e-08
1.1545e-06
3.51353e-08
1.16434e-06
-2.16738e-07
1.17258e-06
-5.77716e-08
1.17743e-06
-8.5382e-08
3.38432e-08
1.1494e-06
1.29182e-06
2.73333e-07
1.10977e-06
6.14792e-07
1.17352e-06
-9.86419e-07
1.33226e-06
1.20451e-06
1.22575e-06
4.10744e-07
1.18514e-06
-7.03557e-07
1.27158e-06
1.55176e-07
1.17589e-06
4.33337e-07
1.22342e-06
8.70176e-07
1.23882e-06
8.08368e-07
1.21264e-06
2.06412e-09
1.23507e-06
3.36701e-07
1.21233e-06
2.59406e-07
1.22583e-06
4.47377e-07
1.20109e-06
4.1672e-08
1.22794e-06
8.27699e-09
1.21924e-06
-2.08035e-07
1.24606e-06
-8.45924e-08
1.22661e-06
-6.59313e-08
2.52356e-08
1.23522e-06
1.35015e-06
2.05966e-07
1.18026e-06
7.84684e-07
1.2372e-06
-1.04336e-06
1.40582e-06
1.03588e-06
1.30494e-06
5.11633e-07
1.25327e-06
-6.51892e-07
1.33464e-06
7.38123e-08
1.24865e-06
5.19325e-07
1.2781e-06
8.40726e-07
1.31981e-06
7.66655e-07
1.27966e-06
4.2211e-08
1.30737e-06
3.08991e-07
1.27608e-06
2.90704e-07
1.29523e-06
4.28222e-07
1.26724e-06
6.9661e-08
1.28623e-06
-1.07113e-08
1.27799e-06
-1.99795e-07
1.29591e-06
-1.02514e-07
1.28766e-06
-5.76755e-08
2.97023e-08
1.28319e-06
1.40916e-06
1.40907e-07
1.26407e-06
9.29778e-07
1.30585e-06
-1.08514e-06
1.47622e-06
8.6551e-07
1.38493e-06
6.02929e-07
1.32596e-06
-5.92925e-07
1.39768e-06
2.09081e-09
1.33462e-06
5.82383e-07
1.34231e-06
8.33036e-07
1.39978e-06
7.09191e-07
1.35006e-06
9.19324e-08
1.3699e-06
2.89148e-07
1.34469e-06
3.15914e-07
1.35692e-06
4.15993e-07
1.33671e-06
8.98662e-08
1.34279e-06
-1.67888e-08
1.33749e-06
-1.94493e-07
1.34842e-06
-1.13443e-07
1.3458e-06
-5.50573e-08
3.3413e-08
1.34209e-06
1.46802e-06
8.12393e-08
1.35775e-06
1.04005e-06
1.37747e-06
-1.10487e-06
1.53817e-06
7.04807e-07
1.46226e-06
6.78841e-07
1.40132e-06
-5.31988e-07
1.45774e-06
-5.43297e-08
1.42444e-06
6.15683e-07
1.41783e-06
8.39652e-07
1.47107e-06
6.55946e-07
1.42186e-06
1.41146e-07
1.42724e-06
2.83763e-07
1.41458e-06
3.28574e-07
1.42121e-06
4.09363e-07
1.40774e-06
1.03338e-07
1.4069e-06
-1.59441e-08
1.39962e-06
-1.8722e-07
1.4072e-06
-1.2102e-07
1.40597e-06
-5.38269e-08
3.42126e-08
1.40517e-06
1.52648e-06
3.04393e-08
1.45464e-06
1.11189e-06
1.45025e-06
-1.10048e-06
1.58988e-06
5.65171e-07
1.53556e-06
7.33165e-07
1.47718e-06
-4.73612e-07
1.51404e-06
-9.11916e-08
1.50816e-06
6.21567e-07
1.49964e-06
8.48173e-07
1.53498e-06
6.20607e-07
1.49282e-06
1.83304e-07
1.4871e-06
2.89483e-07
1.48362e-06
3.32055e-07
1.48991e-06
4.03072e-07
1.48041e-06
1.12832e-07
1.47727e-06
-1.28041e-08
1.46703e-06
-1.76979e-07
1.47108e-06
-1.25068e-07
1.47024e-06
-5.29908e-08
3.33123e-08
1.47114e-06
1.58551e-06
-8.8573e-09
1.54867e-06
1.14873e-06
1.52395e-06
-1.07575e-06
1.63475e-06
4.54366e-07
1.60539e-06
7.62526e-07
1.55244e-06
-4.20656e-07
1.56911e-06
-1.0786e-07
1.58214e-06
6.08531e-07
1.57971e-06
8.50608e-07
1.59592e-06
6.04397e-07
1.56184e-06
2.17386e-07
1.55166e-06
2.99656e-07
1.55217e-06
3.31546e-07
1.5605e-06
3.94743e-07
1.55434e-06
1.18994e-07
1.55147e-06
-9.93061e-09
1.53974e-06
-1.6525e-07
1.54026e-06
-1.25589e-07
1.53869e-06
-5.14241e-08
3.21274e-08
1.53988e-06
1.64717e-06
-3.58987e-08
1.63749e-06
1.15841e-06
1.59993e-06
-1.03819e-06
1.67966e-06
3.74637e-07
1.6735e-06
7.68691e-07
1.62767e-06
-3.74833e-07
1.62731e-06
-1.07499e-07
1.64914e-06
5.86702e-07
1.65345e-06
8.46297e-07
1.65778e-06
6.00076e-07
1.63058e-06
2.44587e-07
1.62026e-06
3.09976e-07
1.62185e-06
3.29953e-07
1.63223e-06
3.84362e-07
1.62938e-06
1.21847e-07
1.62824e-06
-8.79774e-09
1.61681e-06
-1.53818e-07
1.61471e-06
-1.23486e-07
1.61181e-06
-4.85227e-08
3.20596e-08
1.61187e-06
1.71361e-06
-5.19345e-08
1.72236e-06
1.14966e-06
1.67975e-06
-9.95584e-07
1.73136e-06
3.23029e-07
1.74209e-06
7.57959e-07
1.70433e-06
-3.37069e-07
1.69235e-06
-9.55163e-08
1.7149e-06
5.64151e-07
1.7227e-06
8.38491e-07
1.72366e-06
5.99117e-07
1.70227e-06
2.65978e-07
1.69307e-06
3.19175e-07
1.69471e-06
3.28318e-07
1.70654e-06
3.72533e-07
1.70653e-06
1.2185e-07
1.70744e-06
-9.70371e-09
1.69746e-06
-1.43837e-07
1.69384e-06
-1.19869e-07
1.6899e-06
-4.45819e-08
3.37131e-08
1.68825e-06
1.78622e-06
-5.94358e-08
1.80611e-06
1.12977e-06
1.76401e-06
-9.53484e-07
1.79385e-06
2.93189e-07
1.8136e-06
7.38208e-07
1.78374e-06
-3.07214e-07
1.76573e-06
-7.75073e-08
1.78496e-06
5.44923e-07
1.79326e-06
8.30193e-07
1.79598e-06
5.96395e-07
1.77951e-06
2.82454e-07
1.77135e-06
3.27326e-07
1.7728e-06
3.26869e-07
1.78537e-06
3.59969e-07
1.7873e-06
1.19918e-07
1.78956e-06
-1.19646e-08
1.78129e-06
-1.3557e-07
1.77697e-06
-1.15544e-07
1.77268e-06
-4.02892e-08
3.6684e-08
1.7697e-06
1.86538e-06
-6.10669e-08
1.89134e-06
1.10382e-06
1.8524e-06
-9.14543e-07
1.86781e-06
2.77773e-07
1.8901e-06
7.15923e-07
1.86678e-06
-2.83899e-07
1.84703e-06
-5.77609e-08
1.86268e-06
5.29277e-07
1.87038e-06
8.22491e-07
1.87601e-06
5.9077e-07
1.86331e-06
2.95149e-07
1.85598e-06
3.34659e-07
1.85734e-06
3.25512e-07
1.86989e-06
3.47414e-07
1.8727e-06
1.17109e-07
1.87524e-06
-1.45042e-08
1.8683e-06
-1.28633e-07
1.86363e-06
-1.10873e-07
1.85949e-06
-3.61447e-08
4.00837e-08
1.85609e-06
1.95078e-06
-5.90053e-08
1.9798e-06
1.0748e-06
1.9444e-06
-8.7915e-07
1.95174e-06
2.70434e-07
1.97282e-06
6.94846e-07
1.95395e-06
-2.65028e-07
1.93491e-06
-3.87166e-08
1.94867e-06
5.15515e-07
1.95614e-06
8.15017e-07
1.96371e-06
5.83198e-07
1.9536e-06
3.05265e-07
1.94691e-06
3.41343e-07
1.94838e-06
3.24046e-07
1.9603e-06
3.35492e-07
1.96309e-06
1.14318e-07
1.96494e-06
-1.63483e-08
1.9587e-06
-1.22394e-07
1.95374e-06
-1.05912e-07
1.94983e-06
-3.22403e-08
4.31255e-08
1.94679e-06
2.04194e-06
-5.47604e-08
2.07248e-06
1.04426e-06
2.03981e-06
-8.46479e-07
2.04349e-06
2.6675e-07
2.06209e-06
6.76243e-07
2.04559e-06
-2.48524e-07
2.02809e-06
-2.12152e-08
2.04174e-06
5.01861e-07
2.04978e-06
8.06982e-07
2.05816e-06
5.74819e-07
2.04981e-06
3.13612e-07
2.04359e-06
3.47567e-07
2.04533e-06
3.22302e-07
2.05625e-06
3.24571e-07
2.05845e-06
1.12115e-07
2.05896e-06
-1.68548e-08
2.05277e-06
-1.16208e-07
2.04745e-06
-1.00592e-07
2.0436e-06
-2.83814e-08
4.54184e-08
2.0413e-06
2.13854e-06
-4.92946e-08
2.16985e-06
1.01295e-06
2.13872e-06
-8.15352e-07
2.14135e-06
2.64124e-07
2.15769e-06
6.599e-07
2.142e-06
-2.32835e-07
2.12589e-06
-5.10505e-09
2.14037e-06
4.87386e-07
2.14954e-06
7.97811e-07
2.15818e-06
5.66179e-07
2.15136e-06
3.20431e-07
2.1454e-06
3.53519e-07
2.14751e-06
3.20199e-07
2.15735e-06
3.14733e-07
2.15872e-06
1.10741e-07
2.15761e-06
-1.5744e-08
2.15089e-06
-1.09486e-07
2.14513e-06
-9.48347e-08
2.14102e-06
-2.42712e-08
4.69615e-08
2.13948e-06
2.2404e-06
-4.32063e-08
2.27211e-06
9.81241e-07
2.2415e-06
-7.84741e-07
2.24438e-06
2.61239e-07
2.25923e-06
6.45054e-07
2.24347e-06
-2.17073e-07
2.2282e-06
1.01596e-08
2.24357e-06
4.72016e-07
2.25411e-06
7.87275e-07
2.26291e-06
5.57373e-07
2.25777e-06
3.25573e-07
2.25199e-06
3.59299e-07
2.25448e-06
3.17708e-07
2.26339e-06
3.05825e-07
2.26393e-06
1.10207e-07
2.26123e-06
-1.30482e-08
2.25344e-06
-1.01697e-07
2.2472e-06
-8.85932e-08
2.24257e-06
-1.96408e-08
4.80375e-08
2.24149e-06
2.34753e-06
-3.68591e-08
2.37936e-06
9.49414e-07
2.3486e-06
-7.53982e-07
2.35229e-06
2.57545e-07
2.36639e-06
6.3095e-07
2.35026e-06
-2.00941e-07
2.33534e-06
2.50851e-08
2.35117e-06
4.56186e-07
2.36302e-06
7.75423e-07
2.37196e-06
5.48429e-07
2.36876e-06
3.2878e-07
2.36321e-06
3.64846e-07
2.36612e-06
3.14799e-07
2.37439e-06
2.97559e-07
2.37418e-06
1.10415e-07
2.37016e-06
-9.0266e-09
2.36089e-06
-9.24309e-08
2.35413e-06
-8.18328e-08
2.34881e-06
-1.43243e-08
4.90899e-08
2.34776e-06
2.46e-06
-3.04629e-08
2.49173e-06
9.1768e-07
2.4605e-06
-7.22751e-07
2.46512e-06
2.52929e-07
2.47902e-06
6.17051e-07
2.46263e-06
-1.84549e-07
2.44781e-06
3.99041e-08
2.46348e-06
4.40517e-07
2.47638e-06
7.62519e-07
2.48529e-06
5.39521e-07
2.48421e-06
3.29854e-07
2.47912e-06
3.69936e-07
2.48249e-06
3.11427e-07
2.49044e-06
2.89613e-07
2.48957e-06
1.11287e-07
2.48459e-06
-4.05419e-09
2.4737e-06
-8.15332e-08
2.4663e-06
-7.44332e-08
2.46031e-06
-8.33686e-09
5.05876e-08
2.45881e-06
2.57797e-06
-2.41353e-08
2.60951e-06
8.86138e-07
2.57767e-06
-6.9091e-07
2.58309e-06
2.47502e-07
2.59712e-06
6.03024e-07
2.58074e-06
-1.68167e-07
2.56609e-06
5.45573e-08
2.581e-06
4.25607e-07
2.59455e-06
7.48964e-07
2.60312e-06
5.30954e-07
2.60425e-06
3.28722e-07
2.59992e-06
3.74273e-07
2.60377e-06
3.0757e-07
2.61167e-06
2.81713e-07
2.61012e-06
1.12836e-07
2.60461e-06
1.46428e-09
2.59222e-06
-6.9143e-08
2.58395e-06
-6.61723e-08
2.57752e-06
-1.90446e-09
5.28801e-08
2.57523e-06
2.70164e-06
-1.7949e-08
2.73304e-06
8.54741e-07
2.70049e-06
-6.58358e-07
2.70652e-06
2.41466e-07
2.7209e-06
5.88643e-07
2.70473e-06
-1.51994e-07
2.69044e-06
6.8843e-08
2.70417e-06
4.11881e-07
2.71799e-06
7.35142e-07
2.72592e-06
5.23024e-07
2.72919e-06
3.25453e-07
2.72586e-06
3.77608e-07
2.73016e-06
3.03269e-07
2.7382e-06
2.73675e-07
2.73589e-06
1.15143e-07
2.73015e-06
7.20075e-09
2.7167e-06
-5.56896e-08
2.70732e-06
-5.67973e-08
2.70081e-06
4.60949e-09
5.60898e-08
2.6976e-06
2.83127e-06
-1.19536e-08
2.86267e-06
8.23345e-07
2.82931e-06
-6.24996e-07
2.83575e-06
2.35026e-07
2.85067e-06
5.73722e-07
2.83469e-06
-1.36011e-07
2.82095e-06
8.25769e-08
2.8333e-06
3.99529e-07
2.84717e-06
7.21278e-07
2.85428e-06
5.15913e-07
2.85948e-06
3.20253e-07
2.85726e-06
3.79826e-07
2.86185e-06
2.98679e-07
2.87014e-06
2.65378e-07
2.86698e-06
1.18307e-07
2.86123e-06
1.29549e-08
2.84735e-06
-4.18121e-08
2.83667e-06
-4.61208e-08
2.83042e-06
1.08584e-08
6.0071e-08
2.82644e-06
2.96712e-06
-6.18031e-09
2.99866e-06
7.9181e-07
2.96447e-06
-5.90804e-07
2.97113e-06
2.2836e-07
2.98674e-06
5.58109e-07
2.97073e-06
-1.19996e-07
2.95764e-06
9.56625e-08
2.96864e-06
3.88528e-07
2.98253e-06
7.07389e-07
2.9888e-06
5.09647e-07
2.99561e-06
3.1344e-07
2.99449e-06
3.8095e-07
2.99912e-06
2.9405e-07
3.00774e-06
2.56752e-07
3.00368e-06
1.22375e-07
2.99794e-06
1.86895e-08
2.98437e-06
-2.82437e-08
2.97234e-06
-3.40857e-08
2.96654e-06
1.6661e-08
6.44484e-08
2.96216e-06
3.10947e-06
-6.4572e-10
3.14119e-06
7.60092e-07
3.1063e-06
-5.5591e-07
3.11303e-06
2.21625e-07
3.12943e-06
5.4171e-07
3.11306e-06
-1.03628e-07
3.10065e-06
1.08073e-07
3.11047e-06
3.78709e-07
3.12452e-06
6.93335e-07
3.13003e-06
5.04139e-07
3.13806e-06
3.05408e-07
3.13795e-06
3.81064e-07
3.14234e-06
2.89663e-07
3.15132e-06
2.47769e-07
3.14641e-06
1.27286e-07
3.14056e-06
2.45418e-08
3.12799e-06
-1.56819e-08
3.11473e-06
-2.08182e-08
3.10927e-06
2.21222e-08
6.86911e-08
3.10502e-06
3.25863e-06
4.6353e-09
3.29045e-06
7.28271e-07
3.25513e-06
-5.20586e-07
3.26179e-06
2.1496e-07
3.279e-06
5.24498e-07
3.26199e-06
-8.66091e-08
3.25025e-06
1.19814e-07
3.25913e-06
3.69829e-07
3.27355e-06
6.78916e-07
3.27842e-06
4.99261e-07
3.28725e-06
2.96584e-07
3.28807e-06
3.80241e-07
3.29194e-06
2.85792e-07
3.30127e-06
2.38438e-07
3.29568e-06
1.32874e-07
3.28946e-06
3.07633e-08
3.27843e-06
-4.64684e-09
3.26428e-06
-6.6737e-09
3.25876e-06
2.76434e-08
7.22573e-08
3.2552e-06
3.41493e-06
9.63515e-09
3.44668e-06
6.96518e-07
3.41128e-06
-4.8518e-07
3.41773e-06
2.08506e-07
3.43575e-06
5.06478e-07
3.41789e-06
-6.87466e-08
3.40679e-06
1.30917e-07
3.41498e-06
3.6163e-07
3.42996e-06
6.63937e-07
3.43433e-06
4.94892e-07
3.44352e-06
2.87393e-07
3.44525e-06
3.78512e-07
3.44838e-06
2.82669e-07
3.45801e-06
2.28808e-07
3.45202e-06
1.38865e-07
3.44513e-06
3.76512e-08
3.43584e-06
4.63863e-09
3.42143e-06
7.74247e-09
3.41528e-06
3.37859e-08
7.47733e-08
3.41277e-06
3.57874e-06
1.4307e-08
3.61021e-06
6.65051e-07
3.57507e-06
-4.50039e-07
3.58115e-06
2.02418e-07
3.59994e-06
4.87687e-07
3.58119e-06
-4.99966e-08
3.57067e-06
1.41446e-07
3.57842e-06
3.53876e-07
3.59411e-06
6.48246e-07
3.59808e-06
4.90924e-07
3.60724e-06
2.78233e-07
3.60987e-06
3.7588e-07
3.61207e-06
2.80473e-07
3.6219e-06
2.18973e-07
3.61586e-06
1.44905e-07
3.60807e-06
4.54431e-08
3.60046e-06
1.22467e-08
3.58652e-06
2.16849e-08
3.5793e-06
4.10031e-08
7.6224e-08
3.57785e-06
3.75042e-06
1.85889e-08
3.78139e-06
6.34089e-07
3.74682e-06
-4.15473e-07
3.75236e-06
1.96874e-07
3.77187e-06
4.68184e-07
3.75234e-06
-3.04689e-08
3.74229e-06
1.51493e-07
3.74979e-06
3.46374e-07
3.76629e-06
6.3175e-07
3.76995e-06
4.87263e-07
3.77875e-06
2.69439e-07
3.78228e-06
3.72344e-07
3.78342e-06
2.79334e-07
3.79331e-06
2.09084e-07
3.78764e-06
1.50571e-07
3.7788e-06
5.42821e-08
3.77256e-06
1.84895e-08
3.75985e-06
3.43961e-08
3.75142e-06
4.94364e-08
7.70587e-08
3.75058e-06
3.93036e-06
2.24135e-08
3.96062e-06
6.03833e-07
3.9269e-06
-3.81752e-07
3.9317e-06
1.92073e-07
3.95185e-06
4.48029e-07
3.93176e-06
-1.03777e-08
3.92209e-06
1.61167e-07
3.92948e-06
3.38982e-07
3.94681e-06
6.14421e-07
3.95025e-06
4.83823e-07
3.95842e-06
2.61273e-07
3.96288e-06
3.67884e-07
3.96287e-06
2.79338e-07
3.9726e-06
1.99357e-07
3.96774e-06
1.55428e-07
3.95786e-06
6.41679e-08
3.95248e-06
2.38665e-08
3.94165e-06
4.52249e-08
3.93221e-06
5.88782e-08
7.80516e-08
3.93122e-06
4.11895e-06
2.5718e-08
4.14832e-06
5.7446e-07
4.11568e-06
-3.49114e-07
4.11955e-06
1.88205e-07
4.14027e-06
4.27312e-07
4.1199e-06
9.9927e-09
4.11049e-06
1.70572e-07
4.11787e-06
3.31601e-07
4.13599e-06
5.96304e-07
4.13928e-06
4.80534e-07
4.14663e-06
2.53924e-07
4.15207e-06
3.62442e-07
4.1509e-06
2.80505e-07
4.16018e-06
1.9008e-07
4.15654e-06
1.59062e-07
4.14572e-06
7.49957e-08
4.14062e-06
2.89623e-08
4.13206e-06
5.3781e-08
4.12216e-06
6.878e-08
7.99781e-08
4.12024e-06
4.31657e-06
2.84515e-08
4.34491e-06
5.46121e-07
4.31357e-06
-3.17775e-07
4.31635e-06
1.85419e-07
4.33749e-06
4.06173e-07
4.31717e-06
3.03155e-08
4.30794e-06
1.79802e-07
4.31537e-06
3.24171e-07
4.33417e-06
5.77507e-07
4.33737e-06
4.77333e-07
4.34377e-06
2.47526e-07
4.3503e-06
3.55909e-07
4.34803e-06
2.82773e-07
4.35653e-06
1.81583e-07
4.35441e-06
1.61182e-07
4.34286e-06
8.65463e-08
4.33748e-06
3.4341e-08
4.33123e-06
6.00342e-08
4.32164e-06
7.83693e-08
8.33632e-08
4.31825e-06
4.52365e-06
3.05767e-08
4.55082e-06
5.18953e-07
4.52097e-06
-2.87925e-07
4.5226e-06
1.83791e-07
4.54396e-06
3.84807e-07
4.52402e-06
5.026e-08
4.51488e-06
1.88937e-07
4.52239e-06
3.16663e-07
4.54173e-06
5.58166e-07
4.5449e-06
4.74164e-07
4.55025e-06
2.42179e-07
4.55801e-06
3.48142e-07
4.55479e-06
2.85995e-07
4.56215e-06
1.74223e-07
4.56171e-06
1.61627e-07
4.54975e-06
9.85058e-08
4.5436e-06
4.04852e-08
4.53937e-06
6.42717e-08
4.53088e-06
8.68573e-08
8.82958e-08
4.52594e-06
4.74062e-06
3.20687e-08
4.76651e-06
4.9307e-07
4.7383e-06
-2.59715e-07
4.73879e-06
1.83293e-07
4.76013e-06
3.63473e-07
4.7409e-06
6.94875e-08
4.73176e-06
1.98077e-07
4.73935e-06
3.09073e-07
4.75911e-06
5.38407e-07
4.7623e-06
4.7097e-07
4.76653e-06
2.37958e-07
4.77564e-06
3.39025e-07
4.77172e-06
2.89914e-07
4.77758e-06
1.68366e-07
4.77881e-06
1.60394e-07
4.76685e-06
1.10466e-07
4.7596e-06
4.77438e-08
4.75687e-06
6.69955e-08
4.75008e-06
9.36492e-08
9.44218e-08
4.74395e-06
4.96795e-06
3.29143e-08
4.99246e-06
4.68566e-07
4.96598e-06
-2.33243e-07
4.96549e-06
1.8379e-07
4.98648e-06
3.42481e-07
4.9683e-06
8.76661e-08
4.95904e-06
2.0734e-07
4.96668e-06
3.01432e-07
4.98676e-06
5.18323e-07
4.99005e-06
4.67677e-07
4.99309e-06
2.34926e-07
5.00362e-06
3.28493e-07
4.99934e-06
2.9419e-07
5.00334e-06
1.64368e-07
5.00621e-06
1.57523e-07
4.99468e-06
1.21997e-07
4.98607e-06
5.63495e-08
4.98425e-06
6.88219e-08
4.97945e-06
9.84471e-08
1.01005e-07
4.97287e-06
5.20612e-06
3.31119e-08
5.22918e-06
4.45502e-07
5.20448e-06
-2.08537e-07
5.20322e-06
1.85047e-07
5.22351e-06
3.22191e-07
5.20673e-06
1.0445e-07
5.19723e-06
2.1684e-07
5.20482e-06
2.93836e-07
5.22518e-06
4.97963e-07
5.22867e-06
4.64189e-07
5.23046e-06
2.33134e-07
5.24237e-06
3.16588e-07
5.23816e-06
2.98395e-07
5.23999e-06
1.62541e-07
5.24438e-06
1.53131e-07
5.23369e-06
1.32685e-07
5.22368e-06
6.63626e-08
5.22207e-06
7.0432e-08
5.21929e-06
1.01227e-07
1.07196e-07
5.2131e-06
5.45563e-06
3.26732e-08
5.47723e-06
4.23897e-07
5.45425e-06
-1.85552e-07
5.45256e-06
1.86729e-07
5.47173e-06
3.03026e-07
5.45671e-06
1.19468e-07
5.4469e-06
2.26653e-07
5.45426e-06
2.86472e-07
5.47488e-06
4.77344e-07
5.4787e-06
4.60371e-07
5.47921e-06
2.32624e-07
5.49232e-06
3.03476e-07
5.4887e-06
3.02013e-07
5.48812e-06
1.63127e-07
5.49373e-06
1.47517e-07
5.48442e-06
1.41994e-07
5.47301e-06
7.77711e-08
5.47103e-06
7.2421e-08
5.47004e-06
1.02215e-07
1.1232e-07
5.46491e-06
5.71701e-06
3.16249e-08
5.73718e-06
4.03725e-07
5.71579e-06
-1.64158e-07
5.7141e-06
1.88419e-07
5.73166e-06
2.85462e-07
5.7188e-06
1.32329e-07
5.70866e-06
2.36788e-07
5.71552e-06
2.79618e-07
5.7364e-06
4.56463e-07
5.74073e-06
4.56046e-07
5.73993e-06
2.33423e-07
5.75395e-06
2.89453e-07
5.75151e-06
3.04451e-07
5.74836e-06
1.6628e-07
5.75471e-06
1.41168e-07
5.74737e-06
1.49329e-07
5.73479e-06
9.03502e-08
5.73188e-06
7.53323e-08
5.73221e-06
1.01885e-07
1.15838e-07
5.72869e-06
5.99081e-06
3.00115e-08
6.00963e-06
3.84902e-07
5.98962e-06
-1.44152e-07
5.9884e-06
1.89643e-07
6.00385e-06
2.70011e-07
5.99345e-06
1.42725e-07
5.98315e-06
2.47093e-07
5.98917e-06
2.73593e-07
6.01029e-06
4.35346e-07
6.01533e-06
4.51005e-07
6.01324e-06
2.35517e-07
6.02777e-06
2.74923e-07
6.0271e-06
3.05112e-07
6.02143e-06
1.71959e-07
6.02778e-06
1.34814e-07
6.02301e-06
1.54094e-07
6.00971e-06
1.03658e-07
6.00544e-06
7.96007e-08
6.00653e-06
1.00796e-07
1.1759e-07
6.00478e-06
6.2776e-06
2.7897e-08
6.29521e-06
3.67294e-07
6.27633e-06
-1.25267e-07
6.27608e-06
1.89892e-07
6.28893e-06
2.57156e-07
6.28104e-06
1.50613e-07
6.27096e-06
2.5718e-07
6.27586e-06
2.68686e-07
6.29713e-06
4.14079e-07
6.30311e-06
4.45022e-07
6.2998e-06
2.38835e-07
6.31434e-06
2.60376e-07
6.31595e-06
3.0351e-07
6.30807e-06
1.79837e-07
6.31351e-06
1.29371e-07
6.31176e-06
1.55845e-07
6.29841e-06
1.17005e-07
6.29242e-06
8.55875e-08
6.29373e-06
9.94873e-08
1.17684e-07
6.29364e-06
6.578e-06
2.53634e-08
6.59458e-06
3.50718e-07
6.57651e-06
-1.07195e-07
6.57772e-06
1.88681e-07
6.58773e-06
2.47143e-07
6.58201e-06
1.56331e-07
6.57269e-06
2.665e-07
6.57629e-06
2.65092e-07
6.59752e-06
3.92841e-07
6.60468e-06
4.37863e-07
6.60029e-06
2.43231e-07
6.61433e-06
2.46331e-07
6.61845e-06
2.99396e-07
6.60903e-06
1.89252e-07
6.61258e-06
1.25819e-07
6.61392e-06
1.54508e-07
6.60145e-06
1.29471e-07
6.59361e-06
9.34274e-08
6.59456e-06
9.85376e-08
1.16395e-07
6.59585e-06
6.89264e-06
2.25122e-08
6.9084e-06
3.34956e-07
6.89083e-06
-8.96232e-08
6.89391e-06
1.85606e-07
6.90113e-06
2.39921e-07
6.89694e-06
1.60516e-07
6.88894e-06
2.74501e-07
6.89118e-06
2.62852e-07
6.91211e-06
3.71913e-07
6.92064e-06
4.29336e-07
6.91539e-06
2.4848e-07
6.92845e-06
2.33273e-07
6.93507e-06
2.92771e-07
6.92498e-06
1.99338e-07
6.92591e-06
1.24895e-07
6.92985e-06
1.50565e-07
6.91931e-06
1.40017e-07
6.90987e-06
1.02863e-07
6.90984e-06
9.85718e-08
1.14122e-07
6.91211e-06
7.22219e-06
1.9461e-08
7.23738e-06
3.19761e-07
7.22001e-06
-7.22491e-08
7.22514e-06
1.80472e-07
7.22996e-06
2.35103e-07
7.22657e-06
1.63904e-07
7.2203e-06
2.80777e-07
7.2213e-06
2.61849e-07
7.24159e-06
3.51628e-07
7.25159e-06
4.19335e-07
7.2458e-06
2.5427e-07
7.25741e-06
2.21662e-07
7.26632e-06
2.83861e-07
7.25656e-06
2.09094e-07
7.25454e-06
1.26914e-07
7.26016e-06
1.44952e-07
7.25246e-06
1.47716e-07
7.24196e-06
1.13365e-07
7.24039e-06
1.00137e-07
1.11402e-07
7.24311e-06
7.56734e-06
1.63452e-08
7.58225e-06
3.04855e-07
7.56482e-06
-5.48186e-08
7.57187e-06
1.7342e-07
7.57502e-06
2.31953e-07
7.57171e-06
1.67215e-07
7.5674e-06
2.85086e-07
7.5674e-06
2.61851e-07
7.58668e-06
3.32344e-07
7.59815e-06
4.07865e-07
7.59221e-06
2.60214e-07
7.60202e-06
2.11845e-07
7.61283e-06
2.73057e-07
7.60433e-06
2.17596e-07
7.59956e-06
1.31677e-07
7.6057e-06
1.38819e-07
7.60144e-06
1.51976e-07
7.59057e-06
1.24232e-07
7.58713e-06
1.0358e-07
1.08832e-07
7.5897e-06
7.92885e-06
1.33077e-08
7.94374e-06
2.89962e-07
7.92607e-06
-3.71432e-08
7.93465e-06
1.64839e-07
7.93704e-06
2.29563e-07
7.93323e-06
1.71026e-07
7.9309e-06
2.87413e-07
7.9302e-06
2.62552e-07
7.9482e-06
3.14342e-07
7.961e-06
3.95065e-07
7.95531e-06
2.65909e-07
7.96307e-06
2.04085e-07
7.97532e-06
2.60799e-07
7.9688e-06
2.24119e-07
7.96199e-06
1.38487e-07
7.9676e-06
1.33209e-07
7.96708e-06
1.52494e-07
7.95694e-06
1.34371e-07
7.95169e-06
1.08835e-07
1.07001e-07
7.95352e-06
8.30749e-06
1.05012e-08
8.32264e-06
2.74811e-07
8.30463e-06
-1.9137e-08
8.31421e-06
1.55259e-07
8.31669e-06
2.27085e-07
8.31205e-06
1.7567e-07
8.31152e-06
2.87934e-07
8.31046e-06
2.63614e-07
8.32695e-06
2.97855e-07
8.34086e-06
3.81159e-07
8.3358e-06
2.7096e-07
8.34142e-06
1.98474e-07
8.35459e-06
2.4762e-07
8.35054e-06
2.28175e-07
8.34254e-06
1.46484e-07
8.34692e-06
1.28828e-07
8.35069e-06
1.48726e-07
8.34403e-06
1.41033e-07
8.3384e-06
1.14461e-07
1.07311e-07
8.33809e-06
8.70409e-06
8.0739e-09
8.71973e-06
2.59166e-07
8.70142e-06
-8.20328e-10
8.71135e-06
1.45325e-07
8.71466e-06
2.23778e-07
8.70913e-06
1.81194e-07
8.71005e-06
2.87019e-07
8.70895e-06
2.64717e-07
8.72379e-06
2.83012e-07
8.73853e-06
3.66417e-07
8.7344e-06
2.75094e-07
8.73794e-06
1.94927e-07
8.75152e-06
2.3404e-07
8.75018e-06
2.29517e-07
8.74183e-06
1.54834e-07
8.74434e-06
1.26321e-07
8.75075e-06
1.42311e-07
8.74736e-06
1.44428e-07
8.7408e-06
1.21017e-07
1.09517e-07
8.7386e-06
9.11952e-06
6.16887e-09
9.13585e-06
2.42841e-07
9.11737e-06
1.76595e-08
9.12692e-06
1.35774e-07
9.13165e-06
2.19054e-07
9.12546e-06
1.87379e-07
9.12736e-06
2.85121e-07
9.12649e-06
2.65586e-07
9.13958e-06
2.69918e-07
9.15489e-06
3.5111e-07
9.15192e-06
2.78062e-07
9.15354e-06
1.93305e-07
9.16697e-06
2.20616e-07
9.16826e-06
2.28226e-07
9.16007e-06
1.6302e-07
9.15997e-06
1.26424e-07
9.16673e-06
1.35548e-07
9.16538e-06
1.45777e-07
9.15867e-06
1.27733e-07
1.12639e-07
9.15554e-06
9.55473e-06
4.90127e-09
9.57182e-06
2.25749e-07
9.55344e-06
3.60402e-08
9.56188e-06
1.27334e-07
9.56837e-06
2.12558e-07
9.56202e-06
1.93735e-07
9.56438e-06
2.8276e-07
9.5639e-06
2.6607e-07
9.57529e-06
2.58518e-07
9.59083e-06
3.35577e-07
9.5892e-06
2.79685e-07
9.58909e-06
1.9342e-07
9.60181e-06
2.07892e-07
9.60517e-06
2.24868e-07
9.59746e-06
1.70727e-07
9.59448e-06
1.29411e-07
9.60018e-06
1.2985e-07
9.60088e-06
1.45072e-07
9.59533e-06
1.33285e-07
1.15991e-07
9.59198e-06
1.00107e-05
4.35183e-09
1.00285e-05
2.07898e-07
1.00107e-05
5.38962e-08
1.00173e-05
1.20723e-07
1.00256e-05
2.0425e-07
1.00198e-05
1.99577e-07
1.00221e-05
2.8038e-07
1.00221e-05
2.66107e-07
1.00318e-05
2.48791e-07
1.00473e-05
3.20134e-07
1.00472e-05
2.79803e-07
1.00455e-05
1.95103e-07
1.00569e-05
1.96492e-07
1.00617e-05
2.2003e-07
1.0055e-05
1.77386e-07
1.00499e-05
1.34592e-07
1.00536e-05
1.26115e-07
1.00567e-05
1.4193e-07
1.00533e-05
1.36683e-07
1.19197e-07
1.00501e-05
1.04884e-05
4.54645e-09
1.05069e-05
1.8942e-07
1.04901e-05
7.06907e-08
1.04943e-05
1.16513e-07
1.05042e-05
1.94376e-07
1.04996e-05
2.04196e-07
1.05017e-05
2.78234e-07
1.05021e-05
2.65784e-07
1.05102e-05
2.40698e-07
1.05252e-05
3.05079e-07
1.05266e-05
2.78371e-07
1.05237e-05
1.98013e-07
1.05332e-05
1.87e-07
1.05394e-05
2.13885e-07
1.05344e-05
1.82352e-07
1.05284e-05
1.40561e-07
1.053e-05
1.24523e-07
1.05348e-05
1.37109e-07
1.05339e-05
1.3766e-07
1.22138e-07
1.05309e-05
1.09891e-05
5.45333e-09
1.10079e-05
1.70605e-07
1.09928e-05
8.5807e-08
1.09944e-05
1.14972e-07
1.10052e-05
1.83508e-07
1.10024e-05
2.07046e-07
1.10043e-05
2.76279e-07
1.10048e-05
2.65267e-07
1.10115e-05
2.34e-07
1.10258e-05
2.90782e-07
1.10288e-05
2.75438e-07
1.10252e-05
2.01628e-07
1.10325e-05
1.79653e-07
1.10399e-05
2.06512e-07
1.1037e-05
1.85264e-07
1.10312e-05
1.46292e-07
1.10309e-05
1.24808e-07
1.10361e-05
1.31996e-07
1.10376e-05
1.36156e-07
1.2454e-07
1.10352e-05
1.15138e-05
6.97931e-09
1.15325e-05
1.51895e-07
1.15197e-05
9.86381e-08
1.15187e-05
1.15989e-07
1.15297e-05
1.72492e-07
1.1529e-05
2.0775e-07
1.15311e-05
2.74168e-07
1.15316e-05
2.64755e-07
1.15371e-05
2.28538e-07
1.15505e-05
2.77344e-07
1.15548e-05
2.71144e-07
1.15511e-05
2.05334e-07
1.15563e-05
1.74474e-07
1.15646e-05
1.98256e-07
1.15637e-05
1.86118e-07
1.15587e-05
1.51255e-07
1.15571e-05
1.26408e-07
1.15613e-05
1.27793e-07
1.15648e-05
1.32652e-07
1.25751e-07
1.15636e-05
1.20638e-05
8.975e-09
1.20819e-05
1.33818e-07
1.20719e-05
1.08668e-07
1.20687e-05
1.19135e-07
1.20789e-05
1.62304e-07
1.20805e-05
2.06157e-07
1.20832e-05
2.71439e-07
1.20837e-05
2.64297e-07
1.2088e-05
2.242e-07
1.21006e-05
2.64784e-07
1.21061e-05
2.65669e-07
1.21027e-05
2.08657e-07
1.21059e-05
1.71304e-07
1.21145e-05
1.89721e-07
1.21156e-05
1.84993e-07
1.21116e-05
1.55234e-07
1.21094e-05
1.28604e-07
1.21122e-05
1.24993e-07
1.21167e-05
1.28161e-07
1.25199e-07
1.21172e-05
1.26403e-05
1.12554e-08
1.26572e-05
1.16908e-07
1.26503e-05
1.15556e-07
1.26457e-05
1.238e-07
1.26542e-05
1.53801e-07
1.2658e-05
2.02371e-07
1.26617e-05
2.67657e-07
1.26623e-05
2.63731e-07
1.26656e-05
2.20905e-07
1.26772e-05
2.53227e-07
1.26836e-05
2.592e-07
1.26811e-05
2.11195e-07
1.26826e-05
1.69809e-07
1.26908e-05
1.81546e-07
1.26937e-05
1.82065e-07
1.26908e-05
1.58096e-07
1.26886e-05
1.30862e-07
1.26901e-05
1.2341e-07
1.26945e-05
1.23791e-07
1.22814e-07
1.26969e-05
1.32446e-05
1.36212e-08
1.32598e-05
1.01648e-07
1.32562e-05
1.19193e-07
1.32507e-05
1.29267e-07
1.32571e-05
1.47462e-07
1.32625e-05
1.96884e-07
1.32677e-05
2.62488e-07
1.32687e-05
2.62762e-07
1.32711e-05
2.18503e-07
1.32815e-05
2.42787e-07
1.32887e-05
2.51998e-07
1.32872e-05
2.12709e-07
1.32875e-05
1.69529e-07
1.32948e-05
1.74226e-07
1.32993e-05
1.77612e-07
1.32977e-05
1.59713e-07
1.32956e-05
1.32958e-07
1.32964e-05
1.22521e-07
1.33e-05
1.2019e-07
1.19229e-07
1.33036e-05
1.38779e-05
1.58857e-08
1.38912e-05
8.83949e-08
1.38906e-05
1.19753e-07
1.38851e-05
1.34756e-07
1.38892e-05
1.43412e-07
1.38956e-05
1.90431e-07
1.39023e-05
2.55761e-07
1.3904e-05
2.61075e-07
1.39058e-05
2.16734e-07
1.39151e-05
2.33521e-07
1.39227e-05
2.44378e-07
1.39223e-05
2.13066e-07
1.39219e-05
1.69964e-07
1.3928e-05
1.68076e-07
1.39336e-05
1.72027e-07
1.39334e-05
1.59918e-07
1.39316e-05
1.34776e-07
1.39322e-05
1.21942e-07
1.3935e-05
1.17349e-07
1.15412e-07
1.39388e-05
1.45416e-05
1.79104e-08
1.45527e-05
7.72962e-08
1.45548e-05
1.17725e-07
1.455e-05
1.39521e-07
1.45519e-05
1.41465e-07
1.45586e-05
1.83796e-07
1.45668e-05
2.47585e-07
1.45695e-05
2.58382e-07
1.4571e-05
2.15219e-07
1.45791e-05
2.25413e-07
1.45869e-05
2.36565e-07
1.45877e-05
2.12259e-07
1.4587e-05
1.70621e-07
1.45919e-05
1.63205e-07
1.45981e-05
1.65865e-07
1.45994e-05
1.58589e-07
1.45981e-05
1.36102e-07
1.45984e-05
1.21589e-07
1.46009e-05
1.14895e-07
1.12044e-07
1.46042e-05
1.52372e-05
1.9615e-08
1.52462e-05
6.83192e-08
1.52501e-05
1.13805e-07
1.52466e-05
1.43035e-07
1.52468e-05
1.4125e-07
1.52529e-05
1.77633e-07
1.52622e-05
2.38346e-07
1.52662e-05
2.54369e-07
1.52678e-05
2.13633e-07
1.5275e-05
2.1821e-07
1.52829e-05
2.28677e-07
1.52847e-05
2.1038e-07
1.52842e-05
1.71125e-07
1.5288e-05
1.59472e-07
1.52941e-05
1.59692e-07
1.52969e-05
1.55842e-07
1.52964e-05
1.36578e-07
1.52965e-05
1.2146e-07
1.52989e-05
1.12564e-07
1.09202e-07
1.53017e-05
1.5966e-05
2.09633e-08
1.5973e-05
6.12708e-08
1.59781e-05
1.08768e-07
1.59759e-05
1.4517e-07
1.59749e-05
1.42247e-07
1.59799e-05
1.72677e-07
1.59898e-05
2.28427e-07
1.59954e-05
2.48819e-07
1.59974e-05
2.11624e-07
1.60041e-05
2.11469e-07
1.60121e-05
2.20652e-07
1.6015e-05
2.07518e-07
1.60149e-05
1.71248e-07
1.60177e-05
1.56624e-07
1.60236e-05
1.53823e-07
1.60274e-05
1.52071e-07
1.6028e-05
1.35922e-07
1.60281e-05
1.21372e-07
1.60302e-05
1.10423e-07
1.06558e-07
1.60329e-05
1.67296e-05
2.1951e-08
1.6735e-05
5.59081e-08
1.67405e-05
1.03285e-07
1.67397e-05
1.45953e-07
1.67381e-05
1.43873e-07
1.67413e-05
1.69465e-07
1.67512e-05
2.18467e-07
1.67582e-05
2.41797e-07
1.67612e-05
2.08705e-07
1.67679e-05
2.04776e-07
1.67762e-05
2.12275e-07
1.678e-05
2.03715e-07
1.67805e-05
1.7082e-07
1.67826e-05
1.54442e-07
1.67881e-05
1.48362e-07
1.67925e-05
1.47691e-07
1.67943e-05
1.34155e-07
1.67947e-05
1.20917e-07
1.67965e-05
1.08651e-07
1.0386e-07
1.67992e-05
1.75297e-05
2.26031e-08
1.75336e-05
5.19958e-08
1.75391e-05
9.77709e-08
1.75396e-05
1.45447e-07
1.7538e-05
1.45494e-07
1.75401e-05
1.67429e-07
1.75494e-05
2.091e-07
1.75573e-05
2.33916e-07
1.7561e-05
2.04981e-07
1.75678e-05
1.97992e-07
1.75767e-05
2.03403e-07
1.75815e-05
1.98912e-07
1.75826e-05
1.69662e-07
1.75844e-05
1.52692e-07
1.75893e-05
1.43456e-07
1.75941e-05
1.42859e-07
1.75967e-05
1.31613e-07
1.75979e-05
1.19727e-07
1.75994e-05
1.07128e-07
1.01208e-07
1.7602e-05
1.8368e-05
2.29502e-08
1.83707e-05
4.92861e-08
1.8376e-05
9.24938e-08
1.83777e-05
1.43724e-07
1.83765e-05
1.46662e-07
1.83781e-05
1.6589e-07
1.83868e-05
2.00347e-07
1.83952e-05
2.25559e-07
1.83993e-05
2.00873e-07
1.84059e-05
1.91407e-07
1.84151e-05
1.94182e-07
1.8421e-05
1.93053e-07
1.8423e-05
1.67617e-07
1.84248e-05
1.50944e-07
1.84289e-05
1.39284e-07
1.84341e-05
1.37728e-07
1.84372e-05
1.28481e-07
1.8439e-05
1.17889e-07
1.84407e-05
1.05418e-07
9.88135e-08
1.84431e-05
1.92463e-05
2.3032e-08
1.92481e-05
4.74823e-08
1.9253e-05
8.76284e-08
1.92558e-05
1.40924e-07
1.92553e-05
1.47104e-07
1.92568e-05
1.64425e-07
1.9265e-05
1.92168e-07
1.92736e-05
2.16902e-07
1.92781e-05
1.96388e-07
1.92842e-05
1.85339e-07
1.92934e-05
1.84959e-07
1.93003e-05
1.86185e-07
1.93032e-05
1.64674e-07
1.93054e-05
1.48761e-07
1.9309e-05
1.35738e-07
1.9314e-05
1.32692e-07
1.93178e-05
1.24626e-07