/*--------------------------------*- C++ -*----------------------------------*\
| =========                 |                                                 |
| \\      /  F ield         | OpenFOAM: The Open Source CFD Toolbox           |
|  \\    /   O peration     | Version:  v1912                                 |
|   \\  /    A nd           | Website:  www.openfoam.com                      |
|    \\/     M anipulation  |                                                 |
\*---------------------------------------------------------------------------*/
FoamFile
{
    version     2.0;
    format      ascii;
    class       volVectorField;
    location    "2.45";
    object      U;
}
// * * * * * * * * * * * * * * * * * * * * * * * * * * * * * * * * * * * * * //

dimensions      [0 1 -1 0 0 0 0];


internalField   nonuniform List<vector> 
9600
(
(0.854978 0.00395666 0)
(1.24699 0.00303429 0)
(0.574385 -0.0104399 0)
(1.30771 0.0189569 0)
(0.876518 0.00295596 0)
(1.0854 -0.0117689 0)
(0.844437 0.00518402 0)
(1.21975 0.00488619 0)
(0.710768 0.0187136 0)
(1.27164 0.0176935 0)
(0.752013 -0.000957477 0)
(1.20071 0.00939128 0)
(0.808414 0.0063345 0)
(1.15473 0.0138159 0)
(0.824805 0.000230461 0)
(1.11875 0.00170107 0)
(0.863024 -0.00830335 0)
(1.12439 -0.00201733 0)
(0.881869 -0.00391153 0)
(1.13441 0.000673441 0)
(0.859529 0.00306808 0)
(1.23987 0.00597556 0)
(0.592301 -0.0113883 0)
(1.29805 0.0167744 0)
(0.900901 0.00527053 0)
(1.0895 -0.0111291 0)
(0.853332 0.00332297 0)
(1.21496 0.00687197 0)
(0.722918 0.0178837 0)
(1.25303 0.0176315 0)
(0.790691 -0.000294583 0)
(1.1754 0.009009 0)
(0.854486 0.00679172 0)
(1.11556 0.0138077 0)
(0.894918 0.000930868 0)
(1.06217 0.000813437 0)
(0.945592 -0.00828848 0)
(1.04576 -0.00297947 0)
(0.986197 -0.00352579 0)
(1.02288 0.00148149 0)
(0.869328 0.00238317 0)
(1.2259 0.00771247 0)
(0.630838 -0.0121775 0)
(1.2743 0.0145333 0)
(0.937564 0.00655837 0)
(1.08652 -0.0104607 0)
(0.873224 0.00175938 0)
(1.20017 0.00876129 0)
(0.761223 0.0168406 0)
(1.21216 0.0171081 0)
(0.860745 0.000455407 0)
(1.12462 0.00826702 0)
(0.920876 0.00765512 0)
(1.06339 0.0132852 0)
(0.958822 0.00188276 0)
(1.01673 -0.000207181 0)
(0.986651 -0.0078416 0)
(1.00864 -0.00416837 0)
(1.00636 -0.00275383 0)
(1.00719 0.00138714 0)
(0.884126 0.00171225 0)
(1.20456 0.00941569 0)
(0.689185 -0.0127544 0)
(1.23461 0.0123506 0)
(0.978609 0.00791381 0)
(1.07389 -0.00959685 0)
(0.903068 0.000523364 0)
(1.17173 0.0101649 0)
(0.824826 0.0164108 0)
(1.15821 0.0159723 0)
(0.934349 0.00157549 0)
(1.07018 0.00755284 0)
(0.970808 0.00848748 0)
(1.02858 0.0127312 0)
(0.990268 0.00266939 0)
(1.00069 -0.000603447 0)
(0.994358 -0.00770464 0)
(0.999082 -0.00464853 0)
(1.00234 -0.00258653 0)
(1.00521 0.00169736 0)
(0.902879 0.00107636 0)
(1.17586 0.0108557 0)
(0.7605 -0.0131062 0)
(1.18194 0.010158 0)
(1.01521 0.00911012 0)
(1.0554 -0.00865076 0)
(0.936411 -0.000536848 0)
(1.13194 0.0110102 0)
(0.8968 0.016486 0)
(1.10759 0.0146829 0)
(0.98677 0.00279061 0)
(1.03192 0.00719092 0)
(0.994745 0.00899958 0)
(1.01444 0.0124657 0)
(1.00229 0.00320741 0)
(0.999468 -0.000641599 0)
(0.995449 -0.00746968 0)
(0.995348 -0.00501868 0)
(0.998784 -0.0025075 0)
(1.00207 0.00176686 0)
(0.923622 0.000516713 0)
(1.14166 0.0118748 0)
(0.833188 -0.0131664 0)
(1.12449 0.00815079 0)
(1.03954 0.010029 0)
(1.03746 -0.00771549 0)
(0.964481 -0.00131351 0)
(1.08874 0.0113344 0)
(0.956765 0.0167105 0)
(1.07079 0.0136758 0)
(1.01219 0.0038573 0)
(1.01244 0.0072393 0)
(1.00165 0.00920532 0)
(1.01012 0.0122962 0)
(1.0071 0.00359311 0)
(1.00208 -0.00053451 0)
(0.99728 -0.00709983 0)
(0.993967 -0.00526637 0)
(0.996407 -0.0024773 0)
(0.999756 0.00174644 0)
(0.943757 6.82544e-05 0)
(1.10595 0.0124714 0)
(0.896116 -0.0129553 0)
(1.07242 0.00648787 0)
(1.04863 0.0106082 0)
(1.0247 -0.00684363 0)
(0.982049 -0.00173985 0)
(1.0511 0.0112311 0)
(0.993683 0.016837 0)
(1.04732 0.0131258 0)
(1.01829 0.00473552 0)
(1.00387 0.00749955 0)
(1.00135 0.0092314 0)
(1.00762 0.012073 0)
(1.00854 0.00385891 0)
(1.00463 -0.000404462 0)
(0.999629 -0.00664792 0)
(0.994593 -0.00535509 0)
(0.995165 -0.00243721 0)
(0.998051 0.00168186 0)
(0.960913 -0.000257378 0)
(1.07351 0.0127105 0)
(0.943194 -0.0125582 0)
(1.03317 0.00524119 0)
(1.04517 0.010842 0)
(1.01768 -0.00606799 0)
(0.989809 -0.00184588 0)
(1.02402 0.0108735 0)
(1.00833 0.0168037 0)
(1.03179 0.0129359 0)
(1.01547 0.00545236 0)
(0.999373 0.0077885 0)
(0.998829 0.00919233 0)
(1.00468 0.0117827 0)
(1.00782 0.00400246 0)
(1.00604 -0.000323576 0)
(1.00177 -0.00618792 0)
(0.996283 -0.00530507 0)
(0.995288 -0.00233566 0)
(0.996979 0.00164066 0)
(0.973819 -0.000466028 0)
(1.04779 0.0126903 0)
(0.974078 -0.0120717 0)
(1.00883 0.00440496 0)
(1.03503 0.0107903 0)
(1.01417 -0.00542241 0)
(0.991847 -0.00171592 0)
(1.00767 0.0104448 0)
(1.00859 0.0166672 0)
(1.02048 0.0129061 0)
(1.0108 0.00602394 0)
(0.996486 0.00803881 0)
(0.996231 0.00914477 0)
(1.00185 0.0114374 0)
(1.00629 0.00403511 0)
(1.00644 -0.000320206 0)
(1.00335 -0.00577622 0)
(0.998181 -0.00516595 0)
(0.99637 -0.00216891 0)
(0.996871 0.00168214 0)
(0.982517 -0.000575348 0)
(1.02978 0.0125076 0)
(0.991992 -0.0115706 0)
(0.996887 0.00390665 0)
(1.02393 0.0105533 0)
(1.01174 -0.00491349 0)
(0.991976 -0.00145032 0)
(0.999372 0.0100601 0)
(1.00339 0.0165026 0)
(1.0125 0.0128782 0)
(1.00735 0.00646228 0)
(0.995038 0.00825497 0)
(0.994735 0.00910218 0)
(1.00006 0.011056 0)
(1.0051 0.00399193 0)
(1.00642 -0.00038383 0)
(1.00435 -0.005432 0)
(0.999766 -0.00499164 0)
(0.997753 -0.00196966 0)
(0.997595 0.00180728 0)
(0.987902 -0.000614891 0)
(1.01841 0.0122369 0)
(1.00118 -0.0110963 0)
(0.992849 0.00364323 0)
(1.01529 0.0102406 0)
(1.00926 -0.00451738 0)
(0.99208 -0.00112716 0)
(0.995999 0.00975119 0)
(0.998701 0.0163491 0)
(1.00788 0.0127871 0)
(1.00575 0.00679508 0)
(0.995032 0.00844877 0)
(0.994775 0.00906271 0)
(0.999723 0.0106689 0)
(1.00476 0.00390787 0)
(1.00641 -0.000479503 0)
(1.00493 -0.00514875 0)
(1.00084 -0.00479825 0)
(0.998919 -0.00177503 0)
(0.998642 0.00197135 0)
(0.991071 -0.000608436 0)
(1.01177 0.0119236 0)
(1.0053 -0.0106623 0)
(0.99266 0.00351809 0)
(1.00998 0.00993184 0)
(1.00674 -0.00420381 0)
(0.99249 -0.00079904 0)
(0.995115 0.00949411 0)
(0.996582 0.0162064 0)
(1.00612 0.0126406 0)
(1.00561 0.00705562 0)
(0.996124 0.00862361 0)
(0.996088 0.00902548 0)
(1.00059 0.0102991 0)
(1.0052 0.00380633 0)
(1.00658 -0.000561904 0)
(1.00524 -0.00490235 0)
(1.00142 -0.00459054 0)
(0.999621 -0.00158985 0)
(0.999524 0.00212802 0)
(0.99291 -0.000573768 0)
(1.00807 0.0115912 0)
(1.00684 -0.0102639 0)
(0.993726 0.00346202 0)
(1.00732 0.00965419 0)
(1.00456 -0.00393955 0)
(0.992968 -0.000492074 0)
(0.995216 0.00925066 0)
(0.996517 0.0160579 0)
(1.00614 0.0124674 0)
(1.00638 0.00726899 0)
(0.997823 0.00878489 0)
(0.9981 0.00898523 0)
(1.00213 0.00995682 0)
(1.00614 0.00371381 0)
(1.00688 -0.00059956 0)
(1.00538 -0.00466851 0)
(1.00164 -0.00437138 0)
(0.999841 -0.0014088 0)
(0.999984 0.00224516 0)
(0.994015 -0.000523327 0)
(1.00606 0.0112495 0)
(1.00717 -0.00988825 0)
(0.99482 0.00343117 0)
(1.00625 0.00941043 0)
(1.00298 -0.003695 0)
(0.993328 -0.000211307 0)
(0.995521 0.00899507 0)
(0.997285 0.0158889 0)
(1.00682 0.0122849 0)
(1.00751 0.00744671 0)
(0.999705 0.00893876 0)
(1.00029 0.0089323 0)
(1.00385 0.00964924 0)
(1.0073 0.00365122 0)
(1.00728 -0.000584284 0)
(1.00543 -0.00442315 0)
(1.00164 -0.0041365 0)
(0.999693 -0.00122692 0)
(0.999989 0.00231595 0)
(0.994761 -0.00046428 0)
(1.00496 0.0109028 0)
(1.00698 -0.00952255 0)
(0.995567 0.0034003 0)
(1.00592 0.00919639 0)
(1.00199 -0.00345223 0)
(0.993586 5.01649e-05 0)
(0.995711 0.00872119 0)
(0.99804 0.0156931 0)
(1.00744 0.0120976 0)
(1.00861 0.00758803 0)
(1.00147 0.00908886 0)
(1.00233 0.00886664 0)
(1.00545 0.00937218 0)
(1.00852 0.00362039 0)
(1.00777 -0.000511964 0)
(1.00548 -0.00414515 0)
(1.00156 -0.00388828 0)
(0.999347 -0.0010205 0)
(0.999642 0.0023672 0)
(0.995378 -0.000401178 0)
(1.00429 0.010554 0)
(1.00658 -0.00915777 0)
(0.995976 0.00335977 0)
(1.00584 0.00899719 0)
(1.00145 -0.00320646 0)
(0.993873 0.000302025 0)
(0.995757 0.00843452 0)
(0.998485 0.0154701 0)
(1.0077 0.0119068 0)
(1.00942 0.00768639 0)
(1.00295 0.00923612 0)
(1.0041 0.00878864 0)
(1.00681 0.00911964 0)
(1.00968 0.00361476 0)
(1.00835 -0.000387635 0)
(1.0056 -0.00381212 0)
(1.00152 -0.00362257 0)
(0.998974 -0.000784086 0)
(0.999099 0.00241458 0)
(0.995969 -0.000336794 0)
(1.00379 0.0102053 0)
(1.00612 -0.00878877 0)
(0.996166 0.00330645 0)
(1.00578 0.00880238 0)
(1.00116 -0.00295612 0)
(0.994312 0.000550445 0)
(0.995772 0.00814536 0)
(0.998641 0.0152225 0)
(1.00756 0.0117135 0)
(1.00984 0.0077372 0)
(1.00406 0.00937456 0)
(1.00555 0.0087001 0)
(1.0079 0.00887702 0)
(1.0107 0.00363621 0)
(1.00898 -0.000223266 0)
(1.00581 -0.0034119 0)
(1.00155 -0.00333285 0)
(0.998695 -0.000523105 0)
(0.99852 0.00247318 0)
(0.996524 -0.000272696 0)
(1.00338 0.00985892 0)
(1.00568 -0.00841323 0)
(0.996244 0.00324059 0)
(1.00564 0.00860753 0)
(1.001 -0.0027049 0)
(0.994933 0.000796098 0)
(0.995886 0.00786519 0)
(0.998621 0.0149575 0)
(1.00709 0.0115226 0)
(1.00986 0.00773643 0)
(1.00478 0.00949993 0)
(1.00672 0.00859582 0)
(1.00873 0.0086411 0)
(1.0115 0.00367477 0)
(1.00957 -3.50956e-05 0)
(1.00608 -0.00294551 0)
(1.00166 -0.00300973 0)
(0.998573 -0.000232933 0)
(0.998036 0.00257858 0)
(0.996978 -0.000209662 0)
(1.00308 0.00951486 0)
(1.00533 -0.00802978 0)
(0.996269 0.00316551 0)
(1.00545 0.00840806 0)
(1.0009 -0.00245659 0)
(0.995664 0.00103694 0)
(0.996144 0.00760396 0)
(0.998518 0.0146842 0)
(1.00643 0.0113442 0)
(1.0096 0.00767905 0)
(1.00517 0.00960666 0)
(1.0076 0.00847586 0)
(1.00934 0.00840463 0)
(1.01201 0.00373709 0)
(1.01001 0.00016239 0)
(1.00636 -0.00242122 0)
(1.00182 -0.00263628 0)
(0.998616 7.42459e-05 0)
(0.997734 0.00274102 0)
(0.997282 -0.000148331 0)
(1.00291 0.00917186 0)
(1.00506 -0.007637 0)
(0.996274 0.00308409 0)
(1.00524 0.00820178 0)
(1.00083 -0.00221093 0)
(0.996378 0.00126824 0)
(0.996505 0.0073686 0)
(0.998386 0.0144081 0)
(1.00569 0.0111837 0)
(1.00921 0.00757435 0)
(1.00531 0.00968024 0)
(1.0082 0.00835014 0)
(1.00973 0.00815822 0)
(1.01218 0.00383038 0)
(1.01025 0.000360499 0)
(1.00657 -0.00187487 0)
(1.00198 -0.002206 0)
(0.998794 0.000375329 0)
(0.997652 0.00295084 0)
(0.997445 -8.91467e-05 0)
(1.00285 0.00882808 0)
(1.00487 -0.00723427 0)
(0.996297 0.00299807 0)
(1.00505 0.00798713 0)
(1.0008 -0.00196638 0)
(0.99697 0.00149004 0)
(0.996898 0.00715981 0)
(0.998252 0.0141322 0)
(1.00501 0.0110409 0)
(1.0088 0.00743008 0)
(1.00529 0.00972252 0)
(1.00853 0.00821887 0)
(1.00995 0.00790196 0)
(1.01203 0.00395266 0)
(1.01029 0.000559318 0)
(1.0067 -0.00133591 0)
(1.00214 -0.00171679 0)
(0.999064 0.000646407 0)
(0.997781 0.00318315 0)
(0.99752 -3.21628e-05 0)
(1.00285 0.0084821 0)
(1.00472 -0.00682211 0)
(0.996377 0.00291019 0)
(1.00487 0.00776169 0)
(1.00078 -0.0017182 0)
(0.997395 0.00170209 0)
(0.997277 0.006974 0)
(0.998138 0.0138573 0)
(1.00446 0.0109143 0)
(1.00845 0.00724988 0)
(1.00517 0.0097419 0)
(1.00865 0.00808903 0)
(1.01004 0.00762954 0)
(1.01163 0.00410953 0)
(1.01015 0.000763584 0)
(1.00675 -0.00082524 0)
(1.00229 -0.00116851 0)
(0.999382 0.000892483 0)
(0.998081 0.00341348 0)
(0.997561 2.22115e-05 0)
(1.00284 0.00813461 0)
(1.00458 -0.00640284 0)
(0.996538 0.00282231 0)
(1.0047 0.00752503 0)
(1.00076 -0.00146129 0)
(0.997668 0.00190203 0)
(0.997632 0.00680793 0)
(0.998063 0.0135754 0)
(1.00406 0.010805 0)
(1.0082 0.0070469 0)
(1.00503 0.00973436 0)
(1.00858 0.00797278 0)
(1.01006 0.00734757 0)
(1.01106 0.00428874 0)
(1.00991 0.000980381 0)
(1.00673 -0.000368866 0)
(1.00242 -0.000575813 0)
(0.99971 0.00112983 0)
(0.9985 0.00361316 0)
(0.997606 7.38587e-05 0)
(1.00282 0.00778696 0)
(1.00443 -0.00598136 0)
(0.996779 0.0027361 0)
(1.00454 0.00727487 0)
(1.00074 -0.00119134 0)
(0.99783 0.00209202 0)
(0.997971 0.00665415 0)
(0.99804 0.0132837 0)
(1.0038 0.0107089 0)
(1.00802 0.00683111 0)
(1.00488 0.00970042 0)
(1.00839 0.00787795 0)
(1.01004 0.0070573 0)
(1.01042 0.00448459 0)
(1.00961 0.0012139 0)
(1.00666 1.96248e-05 0)
(1.00255 4.00823e-05 0)
(1.00003 0.00138667 0)
(0.99899 0.00375878 0)
(0.997673 0.000122817 0)
(1.00276 0.00743989 0)
(1.00426 -0.00556073 0)
(0.997075 0.00265522 0)
(1.00437 0.00701244 0)
(1.00071 -0.000908085 0)
(0.997928 0.00227165 0)
(0.998301 0.00651112 0)
(0.998071 0.0129811 0)
(1.00368 0.0106189 0)
(1.0079 0.00661294 0)
(1.00475 0.00964365 0)
(1.00809 0.00780524 0)
(1.00999 0.00675665 0)
(1.00977 0.00468489 0)
(1.00928 0.00147568 0)
(1.00659 0.000341411 0)
(1.00268 0.000654266 0)
(1.00034 0.0016902 0)
(0.999523 0.00384023 0)
(0.997764 0.000167781 0)
(1.00269 0.00709772 0)
(1.0041 -0.00514496 0)
(0.997396 0.00258058 0)
(1.00419 0.00674144 0)
(1.00067 -0.000613652 0)
(0.998 0.00244234 0)
(0.998623 0.00637568 0)
(0.998147 0.0126633 0)
(1.00363 0.0105368 0)
(1.00781 0.00640468 0)
(1.00465 0.00956294 0)
(1.00771 0.00776106 0)
(1.0099 0.00645119 0)
(1.00916 0.00487951 0)
(1.00892 0.00177654 0)
(1.00652 0.000605398 0)
(1.00283 0.00123194 0)
(1.00063 0.00205396 0)
(1.00008 0.00386648 0)
(0.997877 0.000208716 0)
(1.0026 0.00676235 0)
(1.00394 -0.00473764 0)
(0.997716 0.00251356 0)
(1.00401 0.00646001 0)
(1.00064 -0.000307504 0)
(0.998076 0.0026066 0)
(0.998943 0.00623946 0)
(0.998259 0.01233 0)
(1.00363 0.0104608 0)
(1.00775 0.00620793 0)
(1.00459 0.00946055 0)
(1.00729 0.00775045 0)
(1.00976 0.00615062 0)
(1.00861 0.0050568 0)
(1.00853 0.00211471 0)
(1.00646 0.00082528 0)
(1.00299 0.00174107 0)
(1.00091 0.00248132 0)
(1.00063 0.00387217 0)
(0.998009 0.00024464 0)
(1.00249 0.00643582 0)
(1.0038 -0.00434213 0)
(0.998022 0.00245795 0)
(1.00381 0.0061709 0)
(1.00059 3.11176e-06 0)
(0.998172 0.00276415 0)
(0.999263 0.00610622 0)
(0.9984 0.0119785 0)
(1.00362 0.0103855 0)
(1.0077 0.00602843 0)
(1.00455 0.00933531 0)
(1.00684 0.00776837 0)
(1.00956 0.00586239 0)
(1.00814 0.00519696 0)
(1.00813 0.00249361 0)
(1.00642 0.00101895 0)
(1.00317 0.00215418 0)
(1.00116 0.00295436 0)
(1.00115 0.00390861 0)
(0.998151 0.000274915 0)
(1.00237 0.00612043 0)
(1.00368 -0.00396243 0)
(0.99831 0.00241633 0)
(1.00362 0.00587472 0)
(1.00052 0.000314765 0)
(0.998293 0.00291983 0)
(0.999589 0.00597262 0)
(0.998563 0.0116164 0)
(1.00359 0.0103137 0)
(1.00765 0.00586767 0)
(1.00455 0.00918309 0)
(1.00641 0.00781829 0)
(1.00933 0.00559569 0)
(1.00776 0.00528896 0)
(1.00771 0.00290159 0)
(1.00638 0.00121456 0)
(1.00338 0.00246381 0)
(1.0014 0.00343656 0)
(1.00161 0.00402752 0)
(0.998299 0.000299256 0)
(1.00225 0.00581718 0)
(1.00357 -0.00359861 0)
(0.998578 0.00238863 0)
(1.00344 0.00557332 0)
(1.00044 0.000624182 0)
(0.998432 0.00307255 0)
(0.99992 0.00583434 0)
(0.998745 0.0112423 0)
(1.0035 0.0102466 0)
(1.00759 0.00572796 0)
(1.00458 0.00900264 0)
(1.00602 0.00790035 0)
(1.00908 0.00535475 0)
(1.00747 0.00533338 0)
(1.00731 0.00332998 0)
(1.00633 0.00143494 0)
(1.0036 0.00267489 0)
(1.00161 0.00388088 0)
(1.00198 0.00424725 0)
(0.998448 0.000317257 0)
(1.00211 0.00552744 0)
(1.00347 -0.00325338 0)
(0.998828 0.00237663 0)
(1.00327 0.00527056 0)
(1.00035 0.000928751 0)
(0.99858 0.00322515 0)
(1.00025 0.00569367 0)
(0.998942 0.0108587 0)
(1.00337 0.0101782 0)
(1.00751 0.00561661 0)
(1.00463 0.00878863 0)
(1.00567 0.00800287 0)
(1.00883 0.00514798 0)
(1.00727 0.00532434 0)
(1.00693 0.00376409 0)
(1.00627 0.00169182 0)
(1.00384 0.00280405 0)
(1.00182 0.00425009 0)
(1.00225 0.00456278 0)
(0.998594 0.000328879 0)
(1.00197 0.0052526 0)
(1.00338 -0.00293031 0)
(0.999062 0.00237992 0)
(1.00313 0.00497003 0)
(1.00025 0.00122185 0)
(0.998725 0.00338226 0)
(1.00058 0.0055465 0)
(0.999153 0.0104673 0)
(1.00318 0.0101082 0)
(1.00742 0.00553255 0)
(1.00471 0.0085365 0)
(1.00535 0.00812453 0)
(1.00858 0.00499429 0)
(1.00714 0.00525485 0)
(1.00659 0.00419165 0)
(1.00617 0.00199977 0)
(1.0041 0.00287885 0)
(1.00205 0.00451892 0)
(1.00244 0.00493559 0)
(0.998735 0.000333747 0)
(1.00184 0.0049936 0)
(1.00328 -0.00262753 0)
(0.999281 0.00239354 0)
(1.00301 0.00467766 0)
(1.00017 0.00149249 0)
(0.998862 0.00354248 0)
(1.00089 0.00539834 0)
(0.999374 0.0100658 0)
(1.00297 0.0100373 0)
(1.00732 0.00547412 0)
(1.00482 0.00824404 0)
(1.00505 0.00825216 0)
(1.00833 0.00490399 0)
(1.00708 0.00513133 0)
(1.00629 0.00460268 0)
(1.00604 0.00236829 0)
(1.00436 0.00292955 0)
(1.00231 0.00467883 0)
(1.00257 0.00530491 0)
(0.998872 0.000332273 0)
(1.0017 0.00475025 0)
(1.00318 -0.00234465 0)
(0.999486 0.00241475 0)
(1.00291 0.00439799 0)
(1.0001 0.00173829 0)
(0.998989 0.00371189 0)
(1.00118 0.00525764 0)
(0.999605 0.00965831 0)
(1.00273 0.00996275 0)
(1.0072 0.00544274 0)
(1.00495 0.00792033 0)
(1.00477 0.00836808 0)
(1.00806 0.00488221 0)
(1.00707 0.00495562 0)
(1.00604 0.00497213 0)
(1.00587 0.00279369 0)
(1.0046 0.00299141 0)
(1.00262 0.00474312 0)
(1.00269 0.00561351 0)
(0.999003 0.000324169 0)
(1.00156 0.00452318 0)
(1.00308 -0.0020817 0)
(0.999677 0.00244041 0)
(1.00282 0.00413724 0)
(1.00005 0.0019509 0)
(0.999104 0.00388628 0)
(1.00145 0.00512345 0)
(0.999846 0.00924706 0)
(1.00248 0.00988099 0)
(1.00705 0.00544314 0)
(1.00512 0.00757083 0)
(1.00452 0.00846051 0)
(1.00776 0.00494058 0)
(1.0071 0.00474108 0)
(1.00586 0.00527917 0)
(1.00566 0.00327088 0)
(1.00482 0.0030875 0)
(1.00296 0.00473867 0)
(1.00284 0.0058324 0)
(0.999129 0.000310342 0)
(1.00142 0.00431194 0)
(1.00297 -0.00183689 0)
(0.999855 0.0024628 0)
(1.00274 0.00390444 0)
(1.00001 0.00212313 0)
(0.999209 0.00406222 0)
(1.00169 0.00500385 0)
(1.00009 0.00882854 0)
(1.00224 0.0097847 0)
(1.00689 0.00547886 0)
(1.0053 0.00719626 0)
(1.00429 0.00850825 0)
(1.00743 0.00508238 0)
(1.00716 0.00451213 0)
(1.00574 0.0055019 0)
(1.00542 0.00379635 0)
(1.00499 0.00323182 0)
(1.00334 0.00468608 0)
(1.00304 0.00595459 0)
(0.999251 0.000290965 0)
(1.00128 0.00411427 0)
(1.00286 -0.00160665 0)
(1.00002 0.00247568 0)
(1.00266 0.00370663 0)
(0.999989 0.00225323 0)
(0.999306 0.0042361 0)
(1.00191 0.004907 0)
(1.00035 0.00840071 0)
(1.00201 0.00966754 0)
(1.00669 0.00554651 0)
(1.0055 0.00681635 0)
(1.00409 0.0084977 0)
(1.00706 0.00530166 0)
(1.00722 0.00429595 0)
(1.00571 0.00561183 0)
(1.00517 0.00434857 0)
(1.00508 0.003449 0)
(1.00372 0.00460416 0)
(1.00331 0.00598412 0)
(0.999367 0.000267217 0)
(1.00115 0.00392921 0)
(1.00275 -0.00138825 0)
(1.00018 0.00247164 0)
(1.00258 0.00354821 0)
(0.99998 0.00234952 0)
(0.999395 0.0043977 0)
(1.00211 0.00483269 0)
(1.00062 0.00797409 0)
(1.0018 0.0095281 0)
(1.00647 0.00563469 0)
(1.0057 0.00644185 0)
(1.00394 0.00841643 0)
(1.00665 0.00558412 0)
(1.00726 0.00413616 0)
(1.00576 0.00559935 0)
(1.00493 0.00487965 0)
(1.0051 0.00375533 0)
(1.00409 0.00451884 0)
(1.00364 0.00593126 0)
(0.999478 0.000238787 0)
(1.00101 0.00375497 0)
(1.00264 -0.00117494 0)
(1.00032 0.00244082 0)
(1.00249 0.00343273 0)
(0.999982 0.00242204 0)
(0.999477 0.00454153 0)
(1.00227 0.00478957 0)
(1.00089 0.00754595 0)
(1.00161 0.00935861 0)
(1.00622 0.00575401 0)
(1.00591 0.00608843 0)
(1.00384 0.00826131 0)
(1.00621 0.0058951 0)
(1.00726 0.00406182 0)
(1.00589 0.00547911 0)
(1.00474 0.00534274 0)
(1.00503 0.00415495 0)
(1.00441 0.00447517 0)
(1.00403 0.00580576 0)
(0.999583 0.000209408 0)
(1.00088 0.00358606 0)
(1.00252 -0.000967825 0)
(1.00045 0.00238682 0)
(1.00241 0.00335307 0)
(0.999995 0.00247824 0)
(0.999555 0.00465675 0)
(1.00241 0.00476986 0)
(1.00116 0.00713749 0)
(1.00145 0.00915547 0)
(1.00594 0.00588972 0)
(1.0061 0.00576802 0)
(1.00379 0.00803895 0)
(1.00576 0.00621244 0)
(1.0072 0.00408253 0)
(1.00609 0.00527941 0)
(1.0046 0.00569946 0)
(1.00489 0.00461918 0)
(1.00465 0.00451737 0)
(1.00445 0.00564063 0)
(0.999681 0.000177152 0)
(1.00075 0.00342402 0)
(1.00239 -0.00076039 0)
(1.00058 0.00229823 0)
(1.00233 0.00330486 0)
(1.00001 0.00252649 0)
(0.999629 0.00474253 0)
(1.00252 0.00476712 0)
(1.00143 0.00674289 0)
(1.00133 0.0089262 0)
(1.00563 0.00603221 0)
(1.00627 0.00548918 0)
(1.00382 0.00774915 0)
(1.00531 0.00650186 0)
(1.00707 0.00420994 0)
(1.00632 0.00503535 0)
(1.00456 0.00592629 0)
(1.00471 0.00510415 0)
(1.0048 0.00465027 0)
(1.00486 0.00547958 0)
(0.999773 0.000145504 0)
(1.00063 0.00326212 0)
(1.00226 -0.00055027 0)
(1.00069 0.00218779 0)
(1.00225 0.00326793 0)
(1.00004 0.00258352 0)
(0.999702 0.00478872 0)
(1.0026 0.00478143 0)
(1.0017 0.00637318 0)
(1.00124 0.00865724 0)
(1.00531 0.00617831 0)
(1.0064 0.00526641 0)
(1.00391 0.0074123 0)
(1.0049 0.0067275 0)
(1.00685 0.0044229 0)
(1.00656 0.00480156 0)
(1.00463 0.00598704 0)
(1.00452 0.00557856 0)
(1.00483 0.00487798 0)
(1.00523 0.00536956 0)
(0.999858 0.000116659 0)
(1.0005 0.00309789 0)
(1.00212 -0.000337646 0)
(1.0008 0.00206315 0)
(1.00218 0.00323573 0)
(1.00007 0.00265498 0)
(0.999772 0.00480649 0)
(1.00265 0.00479871 0)
(1.00195 0.00603189 0)
(1.00119 0.00836335 0)
(1.00497 0.00630938 0)
(1.00649 0.00509951 0)
(1.00405 0.00704637 0)
(1.00453 0.00688346 0)
(1.00657 0.00468571 0)
(1.00677 0.00462256 0)
(1.0048 0.00589015 0)
(1.00436 0.0059408 0)
(1.00476 0.00517628 0)
(1.00551 0.00533821 0)
(0.999936 8.8585e-05 0)
(1.00039 0.00293119 0)
(1.00196 -0.000118053 0)
(1.00089 0.00193049 0)
(1.00211 0.00319754 0)
(1.0001 0.00274244 0)
(0.999839 0.00479971 0)
(1.00268 0.00481691 0)
(1.00219 0.00572396 0)
(1.00118 0.00805249 0)
(1.00462 0.00641668 0)
(1.00653 0.00499064 0)
(1.00423 0.00666533 0)
(1.00423 0.00696053 0)
(1.00622 0.00497056 0)
(1.00692 0.00450582 0)
(1.00504 0.00568022 0)
(1.00427 0.00614955 0)
(1.00463 0.00549077 0)
(1.00568 0.00538568 0)
(1.00001 6.80178e-05 0)
(1.00028 0.00275513 0)
(1.0018 0.000101789 0)
(1.00098 0.00180362 0)
(1.00206 0.00313754 0)
(1.00012 0.00284353 0)
(0.999901 0.00477048 0)
(1.00268 0.00483448 0)
(1.0024 0.00545779 0)
(1.0012 0.00771862 0)
(1.00428 0.00650029 0)
(1.00652 0.00493171 0)
(1.00444 0.00628541 0)
(1.00401 0.00696069 0)
(1.00584 0.00526419 0)
(1.00698 0.0044768 0)
(1.00533 0.00539159 0)
(1.00428 0.00623153 0)
(1.00447 0.00580821 0)
(1.00574 0.00552717 0)
(1.00007 5.10478e-05 0)
(1.00018 0.00257213 0)
(1.00164 0.000325706 0)
(1.00105 0.0016828 0)
(1.00201 0.00305639 0)
(1.00016 0.00294568 0)
(0.999959 0.00473702 0)
(1.00266 0.00484396 0)
(1.00259 0.00521495 0)
(1.00125 0.00738554 0)
(1.00395 0.00655661 0)
(1.00645 0.00491632 0)
(1.00466 0.00592434 0)
(1.00386 0.00688287 0)
(1.00544 0.00554067 0)
(1.00695 0.00455216 0)
(1.00564 0.0051107 0)
(1.00441 0.0061997 0)
(1.00434 0.00609568 0)
(1.0057 0.00574336 0)
(1.00012 4.25334e-05 0)
(1.00009 0.00237865 0)
(1.00146 0.000545056 0)
(1.0011 0.0015871 0)
(1.00198 0.00293906 0)
(1.00019 0.00304323 0)
(1.00001 0.0047026 0)
(1.00262 0.00484323 0)
(1.00276 0.00501227 0)
(1.00134 0.00705402 0)
(1.00363 0.00657292 0)
(1.00633 0.00494317 0)
(1.00489 0.0055907 0)
(1.0038 0.00674867 0)
(1.00505 0.00577969 0)
(1.00681 0.00471108 0)
(1.00592 0.00491043 0)
(1.00464 0.00608543 0)
(1.00425 0.00630101 0)
(1.00559 0.00595525 0)
(1.00017 4.1131e-05 0)
(1.00001 0.00217599 0)
(1.00129 0.000755096 0)
(1.00113 0.00151773 0)
(1.00196 0.00280055 0)
(1.00024 0.00312277 0)
(1.00005 0.00467759 0)
(1.00257 0.00483692 0)
(1.0029 0.00483679 0)
(1.00145 0.00672544 0)
(1.00335 0.00655919 0)
(1.00616 0.00500583 0)
(1.0051 0.00528954 0)
(1.00382 0.00657483 0)
(1.00471 0.00596817 0)
(1.0066 0.00492285 0)
(1.00615 0.00481181 0)
(1.00495 0.00590076 0)
(1.00425 0.00640641 0)
(1.00544 0.00612719 0)
(1.00021 4.69584e-05 0)
(0.999953 0.00196665 0)
(1.00112 0.000947798 0)
(1.00114 0.00148334 0)
(1.00194 0.00265021 0)
(1.00029 0.00317724 0)
(1.0001 0.00465105 0)
(1.0025 0.00483145 0)
(1.00302 0.00468874 0)
(1.00158 0.00641023 0)
(1.00309 0.00650889 0)
(1.00593 0.00509274 0)
(1.00528 0.00505073 0)
(1.00392 0.0063587 0)
(1.00441 0.00609161 0)
(1.00634 0.00515015 0)
(1.00629 0.00480523 0)
(1.0053 0.00567457 0)
(1.00432 0.00639177 0)
(1.00528 0.00626979 0)
(1.00025 6.06612e-05 0)
(0.999905 0.00175542 0)
(1.00096 0.00111555 0)
(1.00113 0.00148816 0)
(1.00194 0.0024897 0)
(1.00036 0.00319859 0)
(1.00014 0.00462123 0)
(1.00241 0.00483034 0)
(1.00311 0.00456863 0)
(1.00174 0.00610693 0)
(1.00287 0.00641925 0)
(1.00567 0.00519231 0)
(1.00542 0.00488091 0)
(1.00407 0.00610964 0)
(1.00419 0.00615014 0)
(1.00605 0.00536075 0)
(1.00634 0.0048674 0)
(1.00564 0.00545796 0)
(1.0045 0.00624796 0)
(1.00514 0.00637186 0)
(1.00027 7.90851e-05 0)
(0.999872 0.00155123 0)
(1.00081 0.00125106 0)
(1.0011 0.001525 0)
(1.00194 0.00234137 0)
(1.00045 0.00317916 0)
(1.00018 0.00458025 0)
(1.00232 0.00482561 0)
(1.00317 0.0044736 0)
(1.0019 0.00582391 0)
(1.0027 0.00630216 0)
(1.00539 0.00528812 0)
(1.0055 0.0047692 0)
(1.00426 0.00584638 0)
(1.00404 0.0061405 0)
(1.00575 0.00553081 0)
(1.0063 0.0049659 0)
(1.00593 0.00530333 0)
(1.00475 0.00601659 0)
(1.00506 0.00638748 0)
(1.00029 0.000101821 0)
(0.999853 0.00135831 0)
(1.00068 0.00135028 0)
(1.00105 0.00158265 0)
(1.00194 0.002211 0)
(1.00055 0.00312444 0)
(1.00024 0.00452189 0)
(1.00222 0.00482144 0)
(1.00321 0.00440577 0)
(1.00207 0.00556462 0)
(1.00258 0.00615832 0)
(1.0051 0.00536605 0)
(1.00553 0.00471036 0)
(1.00447 0.00558958 0)
(1.00397 0.00606623 0)
(1.00547 0.00565334 0)
(1.00619 0.00507068 0)
(1.00613 0.0052269 0)
(1.00505 0.00577236 0)
(1.00509 0.00628407 0)
(1.00031 0.000125808 0)
(0.999846 0.00118141 0)
(1.00056 0.00140911 0)
(1.00098 0.00165294 0)
(1.00193 0.00210798 0)
(1.00067 0.0030474 0)
(1.00031 0.00443869 0)
(1.00211 0.00481039 0)
(1.00322 0.00435623 0)
(1.00223 0.00532947 0)
(1.0025 0.0059943 0)
(1.00482 0.00542167 0)
(1.0055 0.00469399 0)
(1.00468 0.00535169 0)
(1.00397 0.00593623 0)
(1.00522 0.00572948 0)
(1.00603 0.00516091 0)
(1.00625 0.00519811 0)
(1.00532 0.00557956 0)
(1.00522 0.00609018 0)
(1.00032 0.000149775 0)
(0.999849 0.00102546 0)
(1.00047 0.00142714 0)
(1.0009 0.00172765 0)
(1.00191 0.00203935 0)
(1.00079 0.0029541 0)
(1.0004 0.0043255 0)
(1.00202 0.00478291 0)
(1.0032 0.00432156 0)
(1.00239 0.00512501 0)
(1.00246 0.00581837 0)
(1.00455 0.00544486 0)
(1.00542 0.00470175 0)
(1.00487 0.0051426 0)
(1.00403 0.00576322 0)
(1.00501 0.00576124 0)
(1.00585 0.00523363 0)
(1.00631 0.00517686 0)
(1.00554 0.00544636 0)
(1.0054 0.00587209 0)
(1.00033 0.000171257 0)
(0.999858 0.000894469 0)
(1.0004 0.00141211 0)
(1.00082 0.00179325 0)
(1.00188 0.00200772 0)
(1.00092 0.00285392 0)
(1.00051 0.0041912 0)
(1.00193 0.00473408 0)
(1.00317 0.00429237 0)
(1.00254 0.00494717 0)
(1.00246 0.00564043 0)
(1.0043 0.00543886 0)
(1.00529 0.00472425 0)
(1.00502 0.00497533 0)
(1.00415 0.00555815 0)
(1.00486 0.00574429 0)
(1.00565 0.00529943 0)
(1.00631 0.00515218 0)
(1.00571 0.00533736 0)
(1.00558 0.00568091 0)
(1.00033 0.000189965 0)
(0.999871 0.000786443 0)
(1.00035 0.00137365 0)
(1.00075 0.0018443 0)
(1.00184 0.00200256 0)
(1.00105 0.00275721 0)
(1.00063 0.00404104 0)
(1.00186 0.00465936 0)
(1.00312 0.00425493 0)
(1.00268 0.00478761 0)
(1.00249 0.00546456 0)
(1.00408 0.00540908 0)
(1.00513 0.00474696 0)
(1.00513 0.00485053 0)
(1.00429 0.00533949 0)
(1.00477 0.00566339 0)
(1.00545 0.00535138 0)
(1.00626 0.00514343 0)
(1.00583 0.00522789 0)
(1.00574 0.00552904 0)
(1.00033 0.000205313 0)
(0.999885 0.000700614 0)
(1.00032 0.00131822 0)
(1.00067 0.00187946 0)
(1.00179 0.00200987 0)
(1.00116 0.00268036 0)
(1.00076 0.00388018 0)
(1.0018 0.00456354 0)
(1.00306 0.00420418 0)
(1.0028 0.00463473 0)
(1.00254 0.00528424 0)
(1.00389 0.00535621 0)
(1.00495 0.0047621 0)
(1.00519 0.00475851 0)
(1.00445 0.00513481 0)
(1.00475 0.00552659 0)
(1.00526 0.00535662 0)
(1.00616 0.00516105 0)
(1.00592 0.00512433 0)
(1.00587 0.00539859 0)
(1.00033 0.000216819 0)
(0.9999 0.000634788 0)
(1.0003 0.00125409 0)
(1.00061 0.00189596 0)
(1.00173 0.00202859 0)
(1.00126 0.00262722 0)
(1.00091 0.00371852 0)
(1.00177 0.00444895 0)
(1.00299 0.00414578 0)
(1.00292 0.00447978 0)
(1.00261 0.005091 0)
(1.00373 0.0052758 0)
(1.00476 0.00476641 0)
(1.0052 0.00468842 0)
(1.00459 0.00495348 0)
(1.00478 0.00536857 0)
(1.00513 0.00529591 0)
(1.00602 0.00517292 0)
(1.00595 0.00504349 0)
(1.00597 0.00526725 0)
(1.00033 0.000225001 0)
(0.999914 0.000585776 0)
(1.0003 0.00118819 0)
(1.00056 0.00189266 0)
(1.00166 0.00205193 0)
(1.00135 0.00259001 0)
(1.00105 0.00356578 0)
(1.00174 0.00431767 0)
(1.00292 0.00408026 0)
(1.00301 0.00432239 0)
(1.0027 0.00488156 0)
(1.0036 0.0051645 0)
(1.00456 0.00475109 0)
(1.00517 0.0046316 0)
(1.00471 0.00478259 0)
(1.00484 0.00520762 0)
(1.00504 0.00519715 0)
(1.00589 0.00514173 0)
(1.00592 0.00498948 0)
(1.00603 0.00513365 0)
(1.00033 0.000229773 0)
(0.999926 0.000550653 0)
(1.0003 0.00112475 0)
(1.00052 0.00187295 0)
(1.0016 0.00206994 0)
(1.00142 0.00256346 0)
(1.00119 0.00342034 0)
(1.00174 0.00417822 0)
(1.00284 0.0040089 0)
(1.00308 0.00417185 0)
(1.00281 0.00465702 0)
(1.00352 0.00502436 0)
(1.00437 0.00471135 0)
(1.00509 0.00458577 0)
(1.00481 0.00462277 0)
(1.00492 0.00502684 0)
(1.00498 0.00508957 0)
(1.00577 0.00506751 0)
(1.00587 0.00493522 0)
(1.00606 0.0050154 0)
(1.00032 0.000231786 0)
(0.999936 0.000526801 0)
(1.00031 0.00106476 0)
(1.00049 0.00184155 0)
(1.00154 0.00207936 0)
(1.00147 0.00254143 0)
(1.00132 0.00327903 0)
(1.00175 0.00402871 0)
(1.00276 0.00393304 0)
(1.00312 0.00403783 0)
(1.00292 0.00442694 0)
(1.00347 0.00485303 0)
(1.0042 0.00464328 0)
(1.00498 0.00454248 0)
(1.00486 0.00449774 0)
(1.00501 0.00482288 0)
(1.00496 0.00495687 0)
(1.00566 0.00497897 0)
(1.0058 0.00484839 0)
(1.00605 0.00492093 0)
(1.00032 0.000231107 0)
(0.999944 0.000511584 0)
(1.00033 0.00100989 0)
(1.00047 0.00179851 0)
(1.00148 0.00207744 0)
(1.00151 0.00251948 0)
(1.00144 0.0031482 0)
(1.00177 0.0038681 0)
(1.00268 0.00384324 0)
(1.00313 0.00392018 0)
(1.00302 0.00420971 0)
(1.00346 0.00465523 0)
(1.00406 0.00454385 0)
(1.00486 0.00448014 0)
(1.00485 0.00440538 0)
(1.00509 0.00463582 0)
(1.00498 0.00477407 0)
(1.00556 0.0048831 0)
(1.00573 0.0047309 0)
(1.00601 0.00482296 0)
(1.00032 0.000228929 0)
(0.99995 0.000501589 0)
(1.00035 0.000960105 0)
(1.00046 0.00174724 0)
(1.00142 0.00206243 0)
(1.00154 0.00249078 0)
(1.00154 0.00302531 0)
(1.0018 0.0037059 0)
(1.00261 0.00373854 0)
(1.00313 0.00381021 0)
(1.00311 0.00401414 0)
(1.00347 0.00444359 0)
(1.00394 0.00441732 0)
(1.00474 0.00438946 0)
(1.00482 0.00430829 0)
(1.00513 0.00449241 0)
(1.00502 0.00456772 0)
(1.00549 0.00475486 0)