/*--------------------------------*- C++ -*----------------------------------*\
| =========                 |                                                 |
| \\      /  F ield         | OpenFOAM: The Open Source CFD Toolbox           |
|  \\    /   O peration     | Version:  v1912                                 |
|   \\  /    A nd           | Website:  www.openfoam.com                      |
|    \\/     M anipulation  |                                                 |
\*---------------------------------------------------------------------------*/
FoamFile
{
    version     2.0;
    format      ascii;
    class       volScalarField;
    location    "6.35";
    object      p;
}
// * * * * * * * * * * * * * * * * * * * * * * * * * * * * * * * * * * * * * //

dimensions      [0 2 -2 0 0 0 0];


internalField   nonuniform List<scalar> 
9600
(
-3.8055e-09
0.00492874
-0.00398783
0.0026381
0.00898517
0.00573908
0.00554584
0.0107502
0.00736495
0.00942494
0.00948255
0.00941342
0.0101964
0.0102686
0.00951057
0.0114363
0.0101627
0.0106411
0.0093762
0.00938901
-2.65742e-07
0.00491671
-0.00396454
0.00265508
0.00895616
0.00576165
0.00555075
0.0107277
0.00735716
0.0093967
0.00950914
0.00945583
0.0101958
0.0102489
0.00949228
0.0113792
0.0101891
0.0106432
0.0093865
0.00940136
-8.32776e-07
0.0049009
-0.00393987
0.00267761
0.00893569
0.00581494
0.00554588
0.0106845
0.0073463
0.00935601
0.00955168
0.00950622
0.0101868
0.0102158
0.0094804
0.0113099
0.0102598
0.0106282
0.00939359
0.00945186
-1.87765e-06
0.00487992
-0.0039023
0.00273724
0.00892057
0.00590376
0.00554561
0.0106265
0.00733537
0.00931285
0.00960155
0.00956301
0.0101728
0.010172
0.00946427
0.0112355
0.0103275
0.0105817
0.0094021
0.00948393
-4.03909e-06
0.0048546
-0.00384125
0.00283345
0.00889703
0.0060335
0.00556151
0.0105561
0.00732628
0.00926795
0.00965578
0.00961732
0.0101542
0.0101148
0.00944244
0.011152
0.0103793
0.0105182
0.0094092
0.00948814
-7.20225e-06
0.00482716
-0.00375154
0.00293969
0.00885666
0.00619728
0.0056048
0.0104815
0.00732081
0.00922197
0.00970955
0.00966879
0.0101345
0.0100485
0.00941564
0.0110569
0.0104118
0.0104495
0.00940328
0.00947978
-1.07147e-05
0.00480018
-0.00363573
0.0030301
0.00879686
0.00637967
0.00567844
0.0104104
0.00731833
0.00917606
0.00976247
0.00972018
0.0101181
0.00997885
0.00938484
0.0109537
0.0104272
0.010376
0.00938261
0.00947132
-1.36964e-05
0.004776
-0.00350048
0.00309
0.0087189
0.0065623
0.00577802
0.0103471
0.00731948
0.0091323
0.00981753
0.0097746
0.0101083
0.00991076
0.00935374
0.0108478
0.0104269
0.0102985
0.0093539
0.00946343
-1.54169e-05
0.00475649
-0.0033508
0.0031178
0.00862565
0.00673019
0.00589473
0.010292
0.00732466
0.00909309
0.00987488
0.00983217
0.0101077
0.00984929
0.00932729
0.0107448
0.0104144
0.0102223
0.0093208
0.00944988
-1.55536e-05
0.00474303
-0.00318699
0.0031216
0.00852096
0.00687449
0.006019
0.0102433
0.00733787
0.00905934
0.00993043
0.00988975
0.010117
0.00979916
0.0093105
0.0106514
0.0103971
0.010152
0.00928387
0.00942956
-1.40928e-05
0.00473677
-0.00300592
0.00311212
0.00840988
0.00699116
0.00614229
0.0101986
0.00736226
0.00903046
0.00997799
0.00994299
0.0101352
0.00976252
0.00930697
0.0105748
0.0103823
0.0100912
0.0092472
0.00940614
-1.10713e-05
0.00473878
-0.00280454
0.00310567
0.00829824
0.00708613
0.00625832
0.0101561
0.00740155
0.00900546
0.0100136
0.00998822
0.01016
0.00974003
0.00931786
0.0105197
0.0103759
0.010044
0.00921606
0.00938097
-6.37017e-06
0.00474955
-0.00258201
0.00311265
0.00819048
0.00716142
0.00636401
0.0101152
0.00745739
0.00898374
0.0100369
0.0100233
0.0101885
0.00973022
0.00934133
0.0104869
0.0103809
0.0100111
0.00919195
0.00935293
3.46626e-07
0.00477142
-0.00234078
0.00313139
0.00808851
0.0072208
0.00645952
0.0100757
0.00752869
0.00896478
0.0100505
0.0100488
0.0102183
0.00973016
0.00937302
0.0104727
0.0103954
0.00998788
0.00917415
0.00932262
9.5306e-06
0.00479738
-0.0020852
0.00316058
0.00799212
0.00726762
0.00654714
0.0100376
0.00761221
0.00894758
0.0100584
0.0100672
0.0102479
0.00973728
0.00940825
0.0104713
0.0104151
0.00996914
0.00916325
0.00929277
2.1595e-05
0.00482806
-0.00181951
0.00319774
0.00790022
0.00730442
0.00662985
0.0100013
0.00770393
0.00893086
0.010064
0.0100814
0.010276
0.00975037
0.00944362
0.0104774
0.0104374
0.0099521
0.00916045
0.00926627
3.68809e-05
0.00486222
-0.00154679
0.00324083
0.00781194
0.00733298
0.00671014
0.00996714
0.00780044
0.00891366
0.0100698
0.0100938
0.0103019
0.00976886
0.00947741
0.0104878
0.010462
0.00993592
0.00916569
0.00924597
5.57474e-05
0.00489919
-0.001269
0.00328862
0.00772689
0.00735452
0.00678978
0.00993531
0.00789957
0.00889558
0.0100769
0.0101068
0.010325
0.00979241
0.00950954
0.0105006
0.0104896
0.00992055
0.00917766
0.00923461
7.85606e-05
0.00493615
-0.00098733
0.00334057
0.00764515
0.00736998
0.00686976
0.00990613
0.00800022
0.00887672
0.0100857
0.010123
0.0103445
0.00982064
0.00954077
0.0105146
0.0105203
0.00990639
0.00919436
0.00923427
0.000105665
0.00497322
-0.000702405
0.00339657
0.00756704
0.00738001
0.00695042
0.00987985
0.00810189
0.00885742
0.0100961
0.0101426
0.0103604
0.00985296
0.00957215
0.0105288
0.0105542
0.00989418
0.00921369
0.00924634
0.000137429
0.00500992
-0.000414557
0.00345664
0.007493
0.00738509
0.0070317
0.00985688
0.0082043
0.00883806
0.0101075
0.0101664
0.0103724
0.00988864
0.00960464
0.0105426
0.0105911
0.0098848
0.00923375
0.00927187
0.000174252
0.00504572
-0.00012403
0.00352097
0.00742349
0.00738564
0.00711325
0.0098376
0.00830727
0.00881903
0.0101196
0.0101951
0.0103809
0.00992684
0.00963894
0.0105555
0.0106312
0.00987941
0.00925268
0.00931142
0.000216541
0.00508017
0.00016897
0.00358968
0.00735899
0.00738208
0.00719442
0.00982233
0.00841062
0.0088008
0.0101315
0.0102292
0.0103863
0.00996667
0.00967566
0.0105665
0.0106745
0.00988012
0.00926852
0.00936404
0.000264721
0.00511292
0.000464279
0.00366282
0.00729982
0.00737488
0.0072745
0.00981137
0.00851419
0.00878381
0.0101426
0.0102693
0.0103894
0.0100074
0.0097155
0.010575
0.0107211
0.00989043
0.00927993
0.00942572
0.000319237
0.00514369
0.000761764
0.00374036
0.00724611
0.00736467
0.00735273
0.00980496
0.00861784
0.00876848
0.0101522
0.0103158
0.010391
0.0100482
0.00975972
0.0105804
0.0107694
0.00991414
0.00928745
0.00948962
0.000380557
0.00517221
0.00106126
0.0038223
0.00719794
0.00735219
0.00742831
0.00980315
0.00872148
0.00875529
0.0101599
0.0103689
0.0103917
0.0100875
0.00980986
0.0105836
0.0108169
0.00995416
0.00929466
0.0095476
0.000449189
0.00519832
0.00136252
0.00390861
0.00715532
0.00733841
0.0075005
0.0098058
0.00882522
0.0087447
0.0101648
0.0104291
0.0103925
0.0101233
0.0098672
0.0105866
0.010861
0.0100116
0.0093083
0.00959271
0.000525668
0.00522194
0.00166529
0.00399925
0.00711824
0.00732448
0.00756879
0.00981268
0.00892927
0.0087371
0.0101662
0.0104965
0.0103956
0.0101539
0.009932
0.0105922
0.0108993
0.0100853
0.00933645
0.00962288
0.000610519
0.00524291
0.00196949
0.00409426
0.00708646
0.00731148
0.00763297
0.00982346
0.00903383
0.0087331
0.0101633
0.0105705
0.010403
0.0101779
0.0100036
0.0106039
0.0109303
0.0101704
0.0093863
0.00964357
0.000704273
0.00526117
0.00227487
0.00419387
0.00705963
0.00730055
0.00769307
0.00983759
0.00913912
0.00873353
0.0101557
0.0106504
0.0104171
0.0101943
0.0100805
0.0106257
0.0109546
0.0102605
0.00946152
0.00966618
0.000807452
0.00527669
0.00258089
0.00429848
0.00703748
0.00729286
0.00774925
0.00985438
0.00924537
0.00873921
0.010143
0.0107353
0.0104402
0.0102025
0.0101595
0.0106618
0.0109759
0.0103498
0.00955987
0.00970138
0.000920586
0.00528944
0.0028868
0.00440861
0.00701967
0.0072896
0.00780201
0.00987304
0.00935281
0.00875105
0.0101247
0.0108234
0.0104753
0.0102032
0.0102367
0.0107144
0.0109997
0.0104354
0.00967532
0.00975623
0.00104423
0.00529946
0.00319165
0.00452487
0.00700586
0.00729174
0.0078521
0.00989284
0.00946148
0.00877037
0.0101008
0.0109124
0.0105248
0.0101986
0.0103084
0.0107833
0.0110301
0.0105169
0.00980268
0.00983332
0.0011789
0.00530676
0.00349436
0.00464819
0.0069957
0.00729978
0.00790039
0.00991324
0.00957127
0.00879818
0.0100718
0.0110005
0.0105893
0.0101909
0.0103721
0.0108686
0.0110715
0.0105941
0.0099377
0.00993244
0.00132501
0.00531154
0.00379366
0.00477958
0.0069891
0.00731393
0.00794766
0.00993383
0.00968236
0.00883419
0.0100382
0.0110865
0.0106698
0.0101819
0.0104237
0.0109696
0.0111305
0.0106666
0.0100749
0.010052
0.00148292
0.00531418
0.00408806
0.00491992
0.00698625
0.00733422
0.0079946
0.00995423
0.00979488
0.00887985
0.0100001
0.0111675
0.0107684
0.0101762
0.0104583
0.0110816
0.0112148
0.0107372
0.0102077
0.0101911
0.001653
0.00531532
0.00437602
0.00506995
0.00698759
0.00736064
0.00804198
0.00997388
0.00990866
0.00893692
0.00995838
0.0112399
0.0108847
0.0101802
0.0104735
0.0111965
0.0113303
0.0108131
0.0103283
0.0103463
0.00183552
0.00531575
0.00465592
0.00523033
0.00699392
0.00739284
0.00809065
0.00999242
0.0100231
0.0090068
0.00991504
0.011301
0.0110167
0.0101987
0.0104694
0.0113061
0.01148
0.0109063
0.0104312
0.0105065
0.00203063
0.00531658
0.00492616
0.00540134
0.00700658
0.00743046
0.00814084
0.0100099
0.0101379
0.0090903
0.00987155
0.0113479
0.0111637
0.010238
0.0104459
0.0113983
0.011661
0.0110331
0.010521
0.0106599
0.00223836
0.00531919
0.00518535
0.00558285
0.00702648
0.00747366
0.00819351
0.0100257
0.0102527
0.00918906
0.00983024
0.0113769
0.0113212
0.010306
0.0104098
0.0114611
0.01186
0.0112049
0.0106126
0.0107969
0.00245868
0.00532532
0.00543185
0.00577425
0.00705524
0.00752185
0.00824998
0.0100405
0.0103654
0.00930415
0.00979477
0.011386
0.0114833
0.0104067
0.0103695
0.0114882
0.0120627
0.0114247
0.0107261
0.0109141
0.00269136
0.00533688
0.0056643
0.0059746
0.00709476
0.00757489
0.00831028
0.0100554
0.0104756
0.00943453
0.00976713
0.0113742
0.0116442
0.0105448
0.0103342
0.011473
0.0122489
0.0116893
0.0108822
0.0110226
0.00293618
0.00535569
0.00588136
0.00618349
0.00714597
0.00763285
0.00837529
0.0100701
0.0105833
0.00957855
0.00975264
0.0113457
0.011796
0.0107178
0.0103243
0.0114234
0.012397
0.0119809
0.0110942
0.0111411
0.00319255
0.00538402
0.00608165
0.0063998
0.00721112
0.00769444
0.00844561
0.010087
0.010686
0.00973588
0.00975566
0.0113039
0.0119376
0.0109178
0.010354
0.0113651
0.012512
0.0122988
0.0113633
0.0112324
0.00345966
0.00542382
0.00626475
0.0066224
0.00729155
0.00775929
0.00852159
0.0101076
0.0107839
0.00990344
0.00978054
0.0112539
0.0120584
0.0111453
0.0104303
0.0113108
0.0126008
0.0126087
0.0116631
0.0113068
0.00373676
0.00547708
0.00643036
0.00684967
0.00738931
0.00782757
0.00860209
0.0101337
0.0108776
0.0100779
0.0098301
0.0111981
0.0121546
0.0113935
0.0105525
0.011274
0.0126637
0.0129023
0.0119756
0.0113827
0.00402253
0.00554589
0.00657896
0.00707951
0.00750639
0.00789928
0.00868583
0.0101674
0.0109667
0.0102594
0.00990134
0.0111477
0.0122343
0.0116415
0.0107186
0.0112507
0.0126627
0.0131109
0.0122897
0.0115795
0.00431557
0.00563195
0.00671224
0.00730891
0.00764405
0.00797582
0.00877193
0.0102089
0.0110533
0.0104442
0.00999696
0.0111076
0.0122888
0.01189
0.0109374
0.0112626
0.0126367
0.0133091
0.012611
0.0117583
0.00461415
0.0057368
0.00683302
0.00753409
0.00780353
0.00805975
0.00885636
0.0102593
0.0111413
0.0106304
0.0101148
0.0110797
0.0123245
0.0121257
0.0111822
0.0113098
0.0125794
0.0134251
0.0129266
0.0120374
0.00491656
0.00586162
0.00694509
0.00775112
0.00798391
0.00815424
0.00893797
0.0103183
0.0112318
0.0108172
0.0102538
0.0110692
0.0123405
0.0123392
0.011453
0.0113971
0.0125012
0.0134787
0.0132349
0.0123854
0.00522111
0.00600723
0.0070529
0.00795595
0.00818297
0.0082648
0.00901627
0.0103809
0.0113282
0.0110067
0.010412
0.0110705
0.0123349
0.0125388
0.0117487
0.0115167
0.0124326
0.0134886
0.0135098
0.0127683
0.00552615
0.00617417
0.0071607
0.0081459
0.00839755
0.00839619
0.0090908
0.0104431
0.0114327
0.0111996
0.0105852
0.0110933
0.0123244
0.0127166
0.0120474
0.0116874
0.0124009
0.0134629
0.01373
0.0131632
0.00583051
0.00636221
0.00727298
0.00831941
0.00862213
0.00855226
0.00916513
0.0104991
0.0115425
0.011399
0.0107751
0.011132
0.0123042
0.0128574
0.0123507
0.0119188
0.0124162
0.0134126
0.0138864
0.0135464
0.00613316
0.00657044
0.00739408
0.00847597
0.00885087
0.00873563
0.00924429
0.010544
0.0116533
0.0116085
0.010983
0.0111889
0.0122792
0.0129749
0.0126534
0.012189
0.0124829
0.0133663
0.0139838
0.0138917
0.0064334
0.00679734
0.00752763
0.00861697
0.00907725
0.00894538
0.00933599
0.0105775
0.0117566
0.0118266
0.0112128
0.0112748
0.0122592
0.0130641
0.0129361
0.012484
0.0126142
0.0133578
0.0140368
0.0141646
0.00673073
0.00704081
0.00767671
0.00874517
0.00929538
0.00917922
0.00944897
0.0106014
0.0118427
0.0120489
0.011468
0.0113963
0.0122485
0.013121
0.0131942
0.0128024
0.0128005
0.0133938
0.0140717
0.0143606
0.00702486
0.00729805
0.00784362
0.00886534
0.00950058
0.00943161
0.00959064
0.0106219
0.0119041
0.0122671
0.0117473
0.0115575
0.0122588
0.0131537
0.0134146
0.0131288
0.0130302
0.0134787
0.0141266
0.014511
0.0073157
0.00756569
0.00802997
0.00898342
0.00968884
0.00969431
0.00976702
0.0106497
0.0119379
0.0124697
0.0120471
0.0117601
0.0123038
0.0131746
0.0135878
0.0134474
0.0133038
0.0136099
0.0142104
0.0146484
0.00760352
0.00784031
0.00823584
0.00910566
0.0098594
0.00995667
0.00997906
0.0106995
0.011947
0.0126429
0.0123586
0.0120038
0.0123899
0.0131983
0.0137207
0.0137381
0.0136105
0.0137842
0.0143118
0.0147968
0.00788856
0.0081189
0.00846057
0.00923727
0.0100131
0.0102093
0.0102229
0.0107865
0.0119438
0.0127745
0.0126655
0.0122871
0.0125245
0.013239
0.0138269
0.0139851
0.0139282
0.0140108
0.0144321
0.0149518
0.00817127
0.0083985
0.00870196
0.00938214
0.0101543
0.0104473
0.0104868
0.0109179
0.0119492
0.0128617
0.0129517
0.0126378
0.0127169
0.0133077
0.0139181
0.0141897
0.0142295
0.0142876
0.0145899
0.0150941
0.00845205
0.00867671
0.00895622
0.00954368
0.0102895
0.0106687
0.0107569
0.0110929
0.011982
0.0129154
0.0132093
0.0129788
0.0129586
0.013417
0.0140084
0.014365
0.0144947
0.0145849
0.0148025
0.0152385
0.0087312
0.00895209
0.00921852
0.00972377
0.0104252
0.0108731
0.0110239
0.0113024
0.0120539
0.0129559
0.0134019
0.0133066
0.0132423
0.0135744
0.0141133
0.0145246
0.0147252
0.014867
0.0150618
0.0154183
0.00900894
0.00922396
0.0094839
0.00992196
0.0105676
0.0110624
0.0112815
0.0115345
0.0121682
0.0130038
0.0135503
0.0136074
0.013549
0.0137746
0.0142418
0.0146784
0.0149365
0.0151187
0.0153342
0.0156444
0.00928507
0.00949182
0.00974876
0.0101362
0.0107209
0.0112405
0.0115265
0.0117787
0.0123211
0.0130749
0.0136741
0.0138692
0.0138608
0.0140129
0.0143978
0.0148337
0.0151409
0.0153504
0.015592
0.015898
0.00955899
0.0097555
0.0100105
0.010363
0.010888
0.0114119
0.0117575
0.0120272
0.0125045
0.0131763
0.0137899
0.0140935
0.0141595
0.0142816
0.0145872
0.0149936
0.0153393
0.0155767
0.0158307
0.0161518
0.0098298
0.010015
0.0102671
0.0105979
0.0110697
0.0115816
0.0119744
0.0122739
0.0127101
0.0133086
0.0139108
0.0142881
0.0144311
0.0145629
0.0148127
0.0151671
0.015528
0.0157986
0.0160595
0.0163918
0.0100964
0.0102702
0.0105178
0.0108357
0.0112644
0.0117541
0.0121796
0.0125145
0.0129295
0.0134687
0.0140443
0.0144648
0.0146763
0.0148355
0.0150635
0.015367
0.0157133
0.0160132
0.0162854
0.0166227
0.0103573
0.0105208
0.0107618
0.0110731
0.0114697
0.0119314
0.012376
0.0127469
0.0131556
0.0136512
0.0141945
0.0146346
0.0149046
0.0150931
0.0153214
0.0155951
0.0159088
0.016221
0.0165094
0.0168494
0.0106112
0.0107654
0.0109984
0.0113065
0.0116823
0.0121155
0.0125658
0.0129689
0.0133837
0.013851
0.0143624
0.0148027
0.0151223
0.0153439
0.0155748
0.015837
0.0161232
0.0164287
0.0167298
0.0170717
0.010856
0.0110032
0.0112273
0.0115333
0.0118968
0.0123058
0.0127536
0.0131806
0.013608
0.0140629
0.0145493
0.0149823
0.015332
0.0155915
0.0158286
0.0160825
0.0163541
0.0166449
0.0169489
0.0172921
0.0110898
0.0112318
0.0114476
0.0117519
0.0121092
0.0124991
0.0129405
0.0133847
0.0138257
0.0142783
0.0147499
0.0151705
0.0155409
0.0158339
0.0160875
0.0163336
0.016594
0.0168714
0.0171691
0.0175107
0.0113102
0.0114501
0.011658
0.0119597
0.012316
0.0126935
0.0131253
0.0135803
0.0140399
0.0144965
0.0149529
0.0153382
0.0157491
0.0160707
0.01635
0.0165972
0.0168457
0.017109
0.0173903
0.0177216
0.0115147
0.011655
0.0118578
0.012155
0.0125113
0.0128849
0.013309
0.0137639
0.0142417
0.0147263
0.0152098
0.0157307
0.0160512
0.0163563
0.0166478
0.0169086
0.0171494
0.0173972
0.017656
0.0179635
0.0117002
0.0118427
0.0120448
0.0123387
0.0126944
0.0130661
0.0134895
0.0139432
0.0144109
0.0148791
0.0152895
0.0156883
0.016134
0.0165
0.0168343
0.0171455
0.0174282
0.0177178
0.0180215
0.0183563
0.0118653
0.0120086
0.0122125
0.0125059
0.0128657
0.0132373
0.0136574
0.0141318
0.0146488
0.0151919
0.0157857
0.0162163
0.0166141
0.0169487
0.0172194
0.0174526
0.0176195
0.0177713
0.0179503
0.0181895
0.0120076
0.0121504
0.0123512
0.0126463
0.0130164
0.0133978
0.0137984
0.0142054
0.0146404
0.0150956
0.0155476
0.0160416
0.0165752
0.0171437
0.0176276
0.0180977
0.0185601
0.0190139
0.0194501
0.0198402
0.012119
0.0122754
0.0124943
0.0127924
0.0131605
0.0135491
0.013986
0.0144895
0.0150453
0.0156126
0.0161713
0.0166844
0.0171508
0.0174848
0.017718
0.017909
0.0180791
0.0182133
0.0183447
0.0185156
0.0121594
0.0122941
0.012552
0.0128971
0.0132852
0.0136891
0.0141141
0.0145685
0.0150864
0.0155891
0.0161112
0.0165654
0.0169638
0.0174622
0.0179665
0.0184539
0.0189456
0.0194207
0.0198458
0.0201776
0.0122876
0.0124362
0.0126587
0.012962
0.0133405
0.013763
0.0142494
0.0147955
0.0154186
0.0160227
0.0165861
0.0171188
0.0175856
0.0179519
0.0182866
0.0186067
0.0189128
0.0192173
0.0195099
0.0197445
0.00801084
0.00737329
0.00445601
0.00160032
0.00179093
0.00434916
0.00711177
0.00904287
0.0103956
0.0116955
0.0130166
0.014177
0.0151658
0.0161546
0.0172569
0.0183996
0.0193966
0.0202577
0.0212073
0.0222344
0.0231201
0.0238579
0.0246167
0.0255209
0.0265285
0.0274791
0.0283629
0.0293345
0.0303662
0.031304
0.0322119
0.0331949
0.0341962
0.035192
0.0362443
0.0373493
0.0384394
0.0395093
0.0405648
0.0416001
0.0426438
0.0437113
0.0447785
0.0458591
0.0470061
0.048195
0.0493494
0.0505058
0.0517365
0.0530271
0.0543126
0.0556166
0.0570061
0.0584366
0.0597153
0.0607827
0.0618828
0.0633018
0.0649798
0.0666231
0.0681705
0.0697477
0.0712933
0.0728035
0.0743865
0.0759954
0.077664
0.0793702
0.0810663
0.0828074
0.084658
0.0864696
0.0882949
0.0901913
0.092147
0.0941256
0.0961318
0.0981841
0.100268
0.102416
0.104574
0.106798
0.109027
0.111337
0.113693
0.116079
0.118516
0.120957
0.123463
0.126013
0.128606
0.13129
0.133955
0.136694
0.139442
0.142225
0.144989
0.147729
0.150297
0.152676
0.00818491
0.00736436
0.00457158
0.00176209
0.00188689
0.00439707
0.00714448
0.00906505
0.01041
0.0117059
0.0130256
0.0141853
0.0151731
0.0161608
0.0172624
0.0184047
0.0194012
0.0202614
0.0212104
0.0222374
0.023123
0.0238605
0.0246188
0.0255226
0.0265302
0.0274808
0.0283644
0.0293358
0.0303675
0.0313053
0.032213
0.0331959
0.0341972
0.0351929
0.0362451
0.0373502
0.0384403
0.0395101
0.0405656
0.0416009
0.0426445
0.043712
0.0447792
0.0458598
0.0470068
0.0481956
0.0493501
0.0505064
0.0517371
0.0530276
0.0543131
0.055617
0.0570065
0.058437
0.0597159
0.0607832
0.0618831
0.0633021
0.0649801
0.0666235
0.0681708
0.069748
0.0712936
0.0728038
0.0743867
0.0759957
0.0776642
0.0793704
0.0810665
0.0828076
0.0846581
0.0864699
0.0882951
0.0901915
0.0921471
0.0941258
0.0961319
0.0981843
0.100268
0.102416
0.104574
0.106798
0.109027
0.111337
0.113694
0.11608
0.118516
0.120957
0.123463
0.126013
0.128606
0.13129
0.133955
0.136694
0.139442
0.142225
0.144989
0.147729
0.150298
0.152676
0.00818469
0.00724713
0.00472707
0.00204618
0.00205214
0.00445212
0.00716825
0.00908631
0.0104296
0.0117214
0.0130365
0.0141933
0.0151797
0.0161668
0.017268
0.01841
0.0194058
0.0202651
0.0212135
0.0222404
0.0231257
0.0238627
0.0246207
0.0255243
0.0265318
0.0274823
0.0283656
0.0293369
0.0303688
0.0313064
0.0322138
0.0331968
0.0341981
0.0351936
0.0362458
0.0373509
0.038441
0.0395108
0.0405663
0.0416016
0.0426451
0.0437126
0.0447798
0.0458604
0.0470073
0.0481962
0.0493506
0.0505069
0.0517375
0.0530281
0.0543135
0.0556174
0.0570068
0.0584375
0.0597165
0.0607837
0.0618832
0.0633021
0.0649804
0.0666239
0.0681711
0.0697483
0.0712939
0.072804
0.0743869
0.0759959
0.0776644
0.0793706
0.0810667
0.0828077
0.0846583
0.08647
0.0882952
0.0901916
0.0921473
0.0941259
0.0961321
0.0981844
0.100268
0.102416
0.104575
0.106798
0.109027
0.111337
0.113694
0.11608
0.118517
0.120957
0.123463
0.126013
0.128606
0.131291
0.133955
0.136694
0.139442
0.142225
0.144989
0.147729
0.150298
0.152676
0.00813863
0.00714018
0.00492681
0.00241183
0.00228333
0.00453119
0.00720242
0.00911736
0.0104598
0.0117459
0.0130532
0.0142042
0.0151883
0.0161749
0.0172756
0.0184167
0.0194121
0.0202709
0.0212184
0.0222441
0.0231289
0.0238658
0.0246237
0.0255269
0.026534
0.0274842
0.0283671
0.0293384
0.0303704
0.0313078
0.0322148
0.0331977
0.034199
0.0351945
0.0362466
0.0373517
0.0384417
0.0395116
0.0405671
0.0416023
0.0426457
0.0437132
0.0447804
0.0458609
0.0470079
0.0481968
0.0493512
0.0505074
0.051738
0.0530286
0.054314
0.0556178
0.0570072
0.0584381
0.0597172
0.0607841
0.0618832
0.0633021
0.0649807
0.0666243
0.0681714
0.0697486
0.0712942
0.0728043
0.0743871
0.0759961
0.0776646
0.0793708
0.0810668
0.0828079
0.0846585
0.0864702
0.0882954
0.0901917
0.0921474
0.0941261
0.0961322
0.0981845
0.100269
0.102416
0.104575
0.106798
0.109027
0.111337
0.113694
0.11608
0.118517
0.120957
0.123463
0.126014
0.128606
0.131291
0.133955
0.136694
0.139442
0.142225
0.144989
0.147729
0.150298
0.152676
0.00810173
0.00706902
0.00514869
0.00280136
0.00254167
0.00462368
0.00724039
0.00915299
0.0104979
0.0117792
0.0130765
0.0142194
0.0152006
0.0161869
0.0172863
0.0184254
0.0194202
0.0202794
0.0212256
0.0222489
0.0231326
0.0238705
0.024629
0.0255313
0.026537
0.0274866
0.0283696
0.0293408
0.0303726
0.0313096
0.0322162
0.0331989
0.0342001
0.0351955
0.0362477
0.0373525
0.0384424
0.0395124
0.0405681
0.0416031
0.0426463
0.0437138
0.044781
0.0458615
0.0470085
0.0481974
0.0493518
0.0505079
0.0517385
0.0530291
0.0543145
0.0556182
0.0570077
0.0584387
0.059718
0.0607847
0.0618832
0.0633021
0.0649811
0.0666248
0.0681717
0.0697489
0.0712947
0.0728045
0.0743874
0.0759963
0.0776648
0.0793711
0.081067
0.082808
0.0846587
0.0864704
0.0882955
0.0901919
0.0921476
0.0941262
0.0961323
0.0981847
0.100269
0.102416
0.104575
0.106798
0.109027
0.111337
0.113694
0.11608
0.118517
0.120958
0.123463
0.126014
0.128606
0.131291
0.133956
0.136694
0.139442
0.142226
0.144989
0.147729
0.150298
0.152677
0.00809021
0.00702571
0.00536553
0.00319231
0.00281591
0.00472549
0.0072788
0.00918895
0.0105391
0.0118164
0.0131034
0.014238
0.015217
0.0162033
0.0173007
0.0184361
0.01943
0.0202904
0.021235
0.0222544
0.0231367
0.0238767
0.024637
0.0255382
0.0265414
0.0274899
0.0283731
0.0293444
0.0303757
0.0313122
0.0322183
0.0332004
0.0342012
0.0351968
0.0362489
0.0373534
0.0384431
0.0395134
0.0405693
0.041604
0.0426469
0.0437143
0.0447816
0.0458622
0.0470092
0.048198
0.0493523
0.0505085
0.0517391
0.0530297
0.0543151
0.0556188
0.0570082
0.0584394
0.059719
0.0607853
0.0618831
0.063302
0.0649816
0.0666255
0.0681721
0.0697493
0.0712951
0.0728048
0.0743877
0.0759966
0.0776651
0.0793714
0.0810673
0.0828082
0.084659
0.0864707
0.0882957
0.090192
0.0921477
0.0941264
0.0961325
0.0981848
0.100269
0.102417
0.104575
0.106798
0.109027
0.111337
0.113694
0.11608
0.118517
0.120958
0.123463
0.126014
0.128606
0.131291
0.133956
0.136694
0.139442
0.142226
0.144989
0.147729
0.150299
0.152678
0.00810317
0.00699659
0.00556854
0.00358334
0.00310807
0.00483868
0.00731814
0.00922451
0.0105819
0.0118559
0.013132
0.0142586
0.0152363
0.0162235
0.0173184
0.0184491
0.0194414
0.0203032
0.0212458
0.02226
0.0231407
0.0238842
0.0246478
0.0255476
0.0265473
0.0274943
0.028378
0.0293492
0.0303797
0.031316
0.0322216
0.0332026
0.0342028
0.0351983
0.0362504
0.0373542
0.0384436
0.0395144
0.0405707
0.0416053
0.0426477
0.0437148
0.0447822
0.0458632
0.04701
0.0481986
0.0493529
0.0505092
0.0517398
0.0530302
0.0543157
0.0556195
0.057009
0.0584402
0.05972
0.060786
0.061883
0.063302
0.0649821
0.0666262
0.0681725
0.0697498
0.0712957
0.0728052
0.074388
0.0759969
0.0776655
0.0793717
0.0810676
0.0828084
0.0846593
0.0864709
0.0882958
0.0901922
0.0921479
0.0941266
0.0961326
0.098185
0.100269
0.102417
0.104575
0.106798
0.109027
0.111337
0.113694
0.11608
0.118517
0.120958
0.123463
0.126014
0.128606
0.131291
0.133956
0.136695
0.139442
0.142226
0.14499
0.14773
0.1503
0.152679
0.00813091
0.00697806
0.0057606
0.00397727
0.00342098
0.00496625
0.00735941
0.0092594
0.0106261
0.0118978
0.0131625
0.0142806
0.0152574
0.0162461
0.0173387
0.018464
0.0194543
0.0203174
0.0212576
0.0222657
0.0231446
0.0238926
0.0246604
0.0255591
0.0265546
0.0274999
0.0283843
0.029355
0.0303844
0.0313207
0.0322261
0.0332058
0.034205
0.0352005
0.0362521
0.0373548
0.0384437
0.0395151
0.0405724
0.0416069
0.0426488
0.0437155
0.0447831
0.0458644
0.0470111
0.0481992
0.0493535
0.05051
0.0517405
0.0530307
0.0543162
0.0556202
0.0570097
0.0584411
0.0597213
0.060787
0.0618831
0.063302
0.0649828
0.0666269
0.0681729
0.0697503
0.0712964
0.0728057
0.0743884
0.0759973
0.0776659
0.0793722
0.0810679
0.0828087
0.0846597
0.0864713
0.0882961
0.0901925
0.0921482
0.0941268
0.0961328
0.0981852
0.100269
0.102417
0.104575
0.106798
0.109027
0.111337
0.113694
0.11608
0.118517
0.120958
0.123463
0.126014
0.128607
0.131291
0.133956
0.136695
0.139443
0.142226
0.14499
0.147731
0.150301
0.15268
0.00816961
0.00697557
0.00594553
0.00437274
0.00375497
0.00511101
0.00740419
0.00929356
0.0106718
0.0119424
0.0131951
0.0143039
0.0152798
0.0162703
0.0173609
0.0184805
0.0194684
0.0203328
0.02127
0.0222716
0.0231486
0.0239015
0.0246741
0.0255718
0.0265628
0.0275063
0.0283916
0.0293616
0.0303895
0.031326
0.0322316
0.03321
0.0342082
0.0352035
0.0362543
0.0373554
0.0384432
0.0395155
0.0405739
0.0416087
0.04265
0.0437162
0.0447841
0.0458661
0.0470126
0.0482
0.0493543
0.0505112
0.0517414
0.053031
0.0543165
0.0556208
0.0570103
0.0584419
0.0597227
0.0607883
0.0618835
0.0633022
0.0649835
0.0666276
0.0681733
0.0697508
0.0712971
0.0728063
0.0743889
0.0759978
0.0776664
0.0793727
0.0810684
0.0828091
0.0846601
0.0864717
0.0882964
0.0901928
0.0921485
0.0941271
0.0961331
0.0981854
0.100269
0.102417
0.104575
0.106799
0.109028
0.111337
0.113694
0.11608
0.118517
0.120958
0.123464
0.126014
0.128607
0.131291
0.133956
0.136695
0.139443
0.142226
0.14499
0.147731
0.150303
0.152681
0.00822177
0.00699359
0.00612305
0.00476617
0.00410989
0.00527607
0.00745429
0.00932688
0.0107183
0.0119898
0.0132303
0.0143287
0.0153032
0.0162958
0.0173844
0.0184981
0.0194833
0.0203489
0.0212833
0.0222781
0.023153
0.0239108
0.0246886
0.0255852
0.0265716
0.0275135
0.0283998
0.0293688
0.0303948
0.0313314
0.0322376
0.0332151
0.0342122
0.0352072
0.0362572
0.0373561
0.0384424
0.0395152
0.0405751
0.0416104
0.0426514
0.0437171
0.0447854
0.0458681
0.0470143
0.048201
0.0493555
0.0505128
0.0517426
0.0530314
0.0543168
0.0556212
0.0570105
0.0584422
0.0597239
0.06079
0.0618844
0.0633029
0.0649845
0.0666283
0.0681736
0.0697512
0.0712978
0.072807
0.0743894
0.0759985
0.0776671
0.0793733
0.0810689
0.0828097
0.0846607
0.0864722
0.0882969
0.0901933
0.0921489
0.0941274
0.0961334
0.0981857
0.10027
0.102417
0.104576
0.106799
0.109028
0.111338
0.113695
0.116081
0.118518
0.120958
0.123464
0.126014
0.128607
0.131291
0.133956
0.136695
0.139443
0.142226
0.144991
0.147733
0.150305
0.152683
0.00828767
0.0070325
0.00629365
0.00515532
0.00448408
0.00546282
0.00751098
0.00935958
0.0107656
0.0120406
0.0132687
0.0143555
0.0153276
0.016322
0.0174086
0.018516
0.0194983
0.0203654
0.0212973
0.0222853
0.0231579
0.0239205
0.0247036
0.0255994
0.0265809
0.0275209
0.0284085
0.0293764
0.0304001
0.031337
0.0322439
0.0332206
0.0342168
0.0352116
0.0362606
0.0373571
0.0384414
0.0395144
0.0405758
0.0416119
0.0426527
0.0437181
0.0447869
0.0458706
0.0470164
0.0482022
0.0493569
0.0505149
0.0517443
0.053032
0.0543171
0.0556216
0.0570103
0.0584416
0.0597245
0.0607915
0.0618856
0.0633043
0.0649862
0.0666293
0.0681737
0.0697513
0.0712984
0.0728076
0.07439
0.0759991
0.0776679
0.079374
0.0810696
0.0828104
0.0846614
0.0864728
0.0882975
0.0901939
0.0921494
0.0941279
0.0961338
0.0981861
0.10027
0.102418
0.104576
0.106799
0.109028
0.111338
0.113695
0.116081
0.118518
0.120958
0.123464
0.126014
0.128607
0.131292
0.133956
0.136695
0.139443
0.142227
0.144991
0.147734
0.150307
0.152686
0.00836365
0.00709306
0.00646064
0.0055365
0.00487144
0.00566997
0.00757565
0.00939289
0.0108144
0.012095
0.013311
0.0143849
0.0153533
0.0163486
0.0174328
0.0185336
0.0195129
0.0203817
0.0213115
0.022293
0.0231633
0.0239306
0.024719
0.025614
0.0265906
0.0275287
0.0284174
0.0293844
0.0304056
0.0313425
0.0322502
0.0332263
0.0342218
0.0352165
0.0362646
0.0373584
0.0384403
0.0395132
0.040576
0.0416131
0.042654
0.0437191
0.0447885
0.0458733
0.0470187
0.0482033
0.0493584
0.0505175
0.0517466
0.053033
0.0543176
0.0556218
0.0570095
0.0584401
0.0597241
0.0607924
0.0618867
0.0633062
0.0649888
0.0666309
0.0681739
0.0697511
0.0712987
0.072808
0.0743905
0.0759999
0.0776687
0.0793747
0.0810703
0.0828112
0.0846621
0.0864735
0.0882982
0.0901946
0.0921501
0.0941285
0.0961343
0.0981866
0.10027
0.102418
0.104576
0.106799
0.109028
0.111338
0.113695
0.116081
0.118518
0.120959
0.123464
0.126015
0.128607
0.131292
0.133957
0.136695
0.139444
0.142227
0.144992
0.147736
0.15031
0.152688
0.00844611
0.00717671
0.00662536
0.00590234
0.00526322
0.00589518
0.00764986
0.00942805
0.0108646
0.0121529
0.0133573
0.0144173
0.0153806
0.0163758
0.0174567
0.0185506
0.0195266
0.0203975
0.0213258
0.0223011
0.0231691
0.0239413
0.024735
0.0256293
0.0266008
0.0275367
0.0284266
0.0293926
0.0304113
0.031348
0.0322567
0.0332323
0.0342272
0.0352219
0.036269
0.0373601
0.0384392
0.0395115
0.0405758
0.041614
0.0426551
0.0437201
0.0447902
0.0458763
0.0470212
0.0482045
0.0493599
0.0505203
0.0517492
0.0530343
0.0543182
0.0556222
0.0570085
0.0584377
0.0597224
0.0607921
0.061887
0.0633083
0.0649923
0.0666334
0.0681743
0.0697506
0.0712986
0.0728081
0.0743908
0.0760006
0.0776695
0.0793754
0.081071
0.082812
0.0846629
0.0864742
0.0882991
0.0901956
0.0921509
0.0941293
0.096135
0.0981872
0.100271
0.102419
0.104577
0.1068
0.109028
0.111338
0.113695