/*--------------------------------*- C++ -*----------------------------------*\
| =========                 |                                                 |
| \\      /  F ield         | OpenFOAM: The Open Source CFD Toolbox           |
|  \\    /   O peration     | Version:  v1912                                 |
|   \\  /    A nd           | Website:  www.openfoam.com                      |
|    \\/     M anipulation  |                                                 |
\*---------------------------------------------------------------------------*/
FoamFile
{
    version     2.0;
    format      ascii;
    class       volScalarField;
    location    "2";
    object      p;
}
// * * * * * * * * * * * * * * * * * * * * * * * * * * * * * * * * * * * * * //

dimensions      [0 2 -2 0 0 0 0];


internalField   nonuniform List<scalar> 
9600
(
-2.86979e-10
0.00897788
0.00961946
0.00598739
0.0037552
0.00979002
0.00571784
0.00953138
0.00996885
0.0109738
0.0147052
0.0157154
0.00971787
0.00962505
0.0103543
0.0141794
0.0153481
0.0170943
0.0181926
0.0198943
-1.99e-07
0.00900122
0.00961316
0.00595756
0.00377087
0.00980006
0.00571459
0.00953295
0.00997142
0.0110234
0.0147107
0.0157213
0.00974146
0.00958699
0.0103198
0.0141068
0.0153342
0.0170445
0.0182069
0.019608
6.54218e-06
0.00903203
0.0095972
0.00596909
0.00381382
0.00979416
0.00572332
0.00954947
0.00997853
0.0110966
0.0147197
0.0157256
0.00976557
0.00952259
0.0102899
0.0139984
0.0153197
0.0169816
0.0182049
0.0192764
2.69371e-05
0.00905865
0.00957354
0.00601348
0.00389756
0.00977566
0.0057617
0.00958133
0.00997851
0.0111814
0.0147317
0.015722
0.00981048
0.00946263
0.0102625
0.013867
0.0153046
0.0169149
0.0181687
0.0189871
6.47972e-05
0.00907386
0.0095392
0.00608705
0.00401713
0.00974824
0.0058363
0.00961964
0.00996999
0.0112731
0.0147456
0.0157098
0.00987846
0.00941957
0.0102431
0.0137262
0.0152853
0.016835
0.0181157
0.0187386
0.000120267
0.00907284
0.00949502
0.00618101
0.00416112
0.00971846
0.00594405
0.00966039
0.00995532
0.0113649
0.0147609
0.0156855
0.00997145
0.00940518
0.0102402
0.0135841
0.0152601
0.0167488
0.0180526
0.0185134
0.000190306
0.00905585
0.00944409
0.00628738
0.00431158
0.00968724
0.00607236
0.00970064
0.00994001
0.0114516
0.014775
0.0156468
0.0100876
0.00942234
0.0102623
0.01345
0.0152334
0.0166603
0.0179761
0.0183075
0.000270632
0.00902606
0.0093899
0.00640088
0.00445712
0.00965171
0.0062049
0.0097346
0.00991766
0.0115293
0.0147829
0.0155919
0.0102219
0.00947079
0.0103159
0.0133315
0.0152069
0.0165703
0.0178854
0.0181216
0.000357635
0.00898736
0.00933503
0.00651998
0.00459389
0.00960857
0.00633017
0.00975604
0.0098896
0.0115952
0.014779
0.0155196
0.0103673
0.00954813
0.0104186
0.0132324
0.0151801
0.0164797
0.0177816
0.017955
0.000449235
0.00894399
0.00928122
0.0066455
0.00472286
0.00955747
0.00644544
0.00976215
0.0098574
0.0116486
0.0147581
0.0154296
0.0105168
0.00964985
0.0105378
0.0131528
0.0151517
0.0163899
0.0176638
0.0178033
0.000544656
0.00889933
0.00922958
0.00677806
0.00484533
0.00950002
0.00655477
0.00975358
0.00982548
0.0116919
0.0147175
0.0153228
0.0106642
0.00976929
0.0106809
0.0130904
0.0151184
0.016301
0.0175297
0.01766
0.00064377
0.00885279
0.00918072
0.00691666
0.00496214
0.00943841
0.00666526
0.00973766
0.00979976
0.0117301
0.0146577
0.0152013
0.0108058
0.0099
0.0108405
0.0130419
0.0150757
0.0162125
0.0173773
0.0175184
0.000746587
0.00881142
0.00913481
0.00705897
0.0050734
0.00937432
0.00678291
0.00971881
0.00978605
0.0117686
0.0145813
0.0150682
0.01094
0.0100378
0.0110096
0.0130049
0.0150213
0.0161237
0.017208
0.0173735
0.000853022
0.00877121
0.00909188
0.00720221
0.00517983
0.00930871
0.0069096
0.00970048
0.00978829
0.0118106
0.0144922
0.0149264
0.0110661
0.0101794
0.0111834
0.0129794
0.0149561
0.0160359
0.0170267
0.0172234
0.00096291
0.00873209
0.0090518
0.00734384
0.00528307
0.0092424
0.00704402
0.00968435
0.00980728
0.0118567
0.0143947
0.0147782
0.0111844
0.0103227
0.0113582
0.012967
0.0148838
0.0159508
0.0168402
0.0170689
0.00107608
0.00869395
0.00901435
0.00748218
0.00538539
0.00917619
0.00718348
0.00967066
0.00984103
0.011905
0.0142929
0.0146254
0.0112961
0.0104668
0.011531
0.012968
0.0148076
0.0158697
0.0166549
0.0169118
0.0011924
0.00865676
0.00897941
0.00761638
0.00548898
0.00911083
0.00732536
0.00965904
0.00988631
0.0119533
0.0141897
0.0144699
0.0114022
0.0106113
0.0116997
0.0129809
0.0147282
0.0157922
0.0164754
0.0167524
0.00131177
0.0086205
0.00894694
0.00774602
0.0055956
0.0090468
0.0074677
0.00964918
0.00994001
0.0119995
0.0140877
0.0143135
0.0115033
0.010756
0.0118628
0.0130025
0.0146447
0.0157171
0.0163044
0.0165894
0.00143419
0.00858517
0.0089171
0.00787085
0.00570643
0.00898448
0.00760918
0.00964087
0.00999982
0.0120427
0.0139874
0.014158
0.0116001
0.0109005
0.0120194
0.0130309
0.0145566
0.0156419
0.016143
0.0164214
0.0015597
0.00855077
0.00889016
0.00799054
0.00582209
0.00892425
0.00774895
0.00963407
0.0100642
0.0120826
0.013889
0.0140049
0.011693
0.0110446
0.0121683
0.0130655
0.0144642
0.0155641
0.015992
0.016248
0.00168836
0.00851729
0.0088664
0.00810474
0.00594302
0.00886641
0.00788648
0.0096289
0.010132
0.0121196
0.0137929
0.0138556
0.0117821
0.0111881
0.0123089
0.0131054
0.0143683
0.0154819
0.0158528
0.0160705
0.00182029
0.00848468
0.00884613
0.00821316
0.00606945
0.00881141
0.00802124
0.00962553
0.0102024
0.0121544
0.0136988
0.0137109
0.0118674
0.0113306
0.0124403
0.0131499
0.0142699
0.015394
0.0157273
0.0158907
0.0019556
0.00845289
0.00882969
0.00831556
0.00620137
0.00875968
0.00815276
0.00962418
0.0102745
0.0121875
0.0136068
0.0135715
0.0119491
0.0114718
0.0125617
0.0131981
0.0141708
0.0152994
0.015617
0.0157116
0.00209445
0.0084218
0.00881746
0.00841181
0.00633859
0.00871156
0.00828059
0.0096252
0.0103473
0.0122196
0.0135169
0.0134376
0.0120271
0.0116114
0.0126729
0.0132495
0.0140728
0.0151963
0.0155221
0.0155383
0.00223698
0.00839129
0.00880984
0.00850173
0.00648087
0.00866751
0.00840414
0.00962904
0.0104199
0.0122516
0.0134291
0.0133092
0.0121013
0.011749
0.0127735
0.0133026
0.0139781
0.0150834
0.0154415
0.0153776
0.00238335
0.00836123
0.00880718
0.00858518
0.00662771
0.00862822
0.00852279
0.0096362
0.0104914
0.0122838
0.0133439
0.0131861
0.0121716
0.0118845
0.0128632
0.0133561
0.0138895
0.0149598
0.0153721
0.0152377
0.00253375
0.00833146
0.00880981
0.00866218
0.0067784
0.00859445
0.00863597
0.0096472
0.0105609
0.0123166
0.0132623
0.0130679
0.0122378
0.0120181
0.0129422
0.0134082
0.0138099
0.0148254
0.0153076
0.0151252
0.00268838
0.00830179
0.00881795
0.00873299
0.00693213
0.00856704
0.0087432
0.00966242
0.0106277
0.0123502
0.0131854
0.0129543
0.0122992
0.0121501
0.0130106
0.0134564
0.0137428
0.0146835
0.015239
0.0150411
0.00284749
0.00827203
0.00883181
0.00879794
0.00708791
0.00854685
0.00884418
0.0096822
0.0106912
0.0123842
0.0131143
0.0128449
0.012355
0.0122812
0.0130697
0.013498
0.0136904
0.0145396
0.0151589
0.0149799
0.00301128
0.00824198
0.0088516
0.00885755
0.00724451
0.00853477
0.00893876
0.00970669
0.0107513
0.0124184
0.01305
0.0127394
0.0124039
0.012412
0.0131215
0.01353
0.0136517
0.0144001
0.0150662
0.014933
0.00318002
0.00821142
0.0088773
0.00891261
0.00740069
0.00853175
0.00902706
0.00973581
0.0108078
0.0124522
0.0129934
0.0126385
0.0124444
0.0125419
0.0131691
0.0135509
0.0136235
0.0142704
0.014964
0.0148931
0.003354
0.0081802
0.00890868
0.0089642
0.00755513
0.00853852
0.00910952
0.00976931
0.0108608
0.0124849
0.0129455
0.0125431
0.0124751
0.0126698
0.0132152
0.0135608
0.013603
0.0141528
0.0148549
0.0148563
0.00353344
0.00814823
0.00894547
0.00901342
0.00770638
0.00855542
0.00918682
0.00980685
0.0109105
0.0125159
0.0129066
0.0124544
0.0124949
0.0127938
0.0132629
0.0135602
0.0135874
0.0140499
0.0147401
0.0148192
0.00371863
0.00811554
0.00898708
0.00905956
0.00785327
0.00858233
0.00925982
0.00984817
0.0109572
0.0125445
0.0128765
0.0123735
0.0125032
0.012912
0.0133148
0.0135504
0.0135738
0.0139654
0.0146231
0.0147763
0.0039098
0.00808225
0.00903262
0.00910905
0.00799501
0.00861872
0.00932939
0.00989306
0.0110012
0.0125703
0.0128548
0.0123015
0.0125003
0.0130218
0.0133728
0.0135335
0.0135582
0.0139015
0.0145116
0.014723
0.00410716
0.00804866
0.00908086
0.00916156
0.00813147
0.00866382
0.00939624
0.00994135
0.011043
0.0125931
0.0128414
0.0122393
0.0124862
0.013121
0.0134382
0.013513
0.0135348
0.0138559
0.0144148
0.0146607
0.00431094
0.00801537
0.00913019
0.00921828
0.00826335
0.00871674
0.00946074
0.0099928
0.011083
0.0126126
0.0128357
0.0121878
0.0124614
0.013207
0.0135113
0.0134926
0.0134993
0.0138236
0.0143406
0.0145966
0.0045213
0.00798335
0.00917876
0.00928018
0.00839189
0.00877656
0.00952332
0.010047
0.011122
0.0126288
0.0128372
0.0121479
0.0124268
0.0132769
0.0135919
0.0134771
0.0134509
0.0137986
0.0142936
0.0145413
0.00473837
0.00795395
0.00922439
0.00934741
0.00851881
0.00884248
0.0095846
0.0101037
0.0111602
0.0126418
0.012845
0.0121203
0.0123845
0.0133278
0.0136785
0.0134723
0.0134376
0.0137729
0.0142741
0.0145082
0.0049621
0.00792881
0.00926491
0.00941937
0.00864615
0.00891396
0.00964484
0.0101624
0.011198
0.0126519
0.0128585
0.0121055
0.0123365
0.0133578
0.0137677
0.0134807
0.0133552
0.0137319
0.014276
0.0145094
0.0051923
0.0079095
0.00929831
0.00949568
0.0087759
0.00899072
0.00970409
0.0102229
0.011236
0.012659
0.012877
0.012104
0.0122852
0.013366
0.0138552
0.0135077
0.0132698
0.0136651
0.0142862
0.014546
0.0054287
0.00789754
0.00932301
0.00957586
0.00890964
0.00907272
0.00976248
0.0102849
0.0112748
0.0126634
0.0128995
0.0121164
0.0122335
0.0133519
0.0139363
0.0135566
0.0131924
0.0135706
0.0142848
0.0146088
0.00567086
0.00789442
0.0093382
0.00965912
0.00904842
0.00916011
0.00982053
0.0103479
0.0113146
0.0126655
0.0129249
0.0121425
0.0121848
0.0133169
0.0140057
0.0136274
0.0131352
0.0134549
0.0142547
0.0146781
0.00591809
0.00790158
0.00934387
0.00974428
0.009193
0.00925306
0.00987879
0.0104116
0.0113555
0.0126658
0.0129518
0.0121817
0.0121429
0.013264
0.0140587
0.0137157
0.0131078
0.0133265
0.0141864
0.014732
0.00616946
0.00792052
0.00934082
0.00982956
0.00934392
0.00935233
0.00993719
0.0104756
0.0113981
0.0126655
0.0129788
0.0122325
0.0121109
0.013197
0.0140909
0.0138148
0.0131148
0.0131961
0.0140783
0.0147586
0.00642372
0.00795268
0.00933098
0.00991236
0.00950109
0.00945942
0.00999574
0.0105388
0.0114428
0.0126656
0.0130053
0.0122931
0.0120916
0.0131207
0.0140996
0.0139145
0.0131568
0.0130806
0.0139334
0.0147502
0.00667925
0.00799963
0.00931742
0.00998955
0.00966336
0.00957579
0.0100555
0.0106009
0.011489
0.0126672
0.0130308
0.0123614
0.0120868
0.0130394
0.0140841
0.0140049
0.013229
0.0130016
0.0137614
0.0146923
0.00693409
0.00806302
0.0093037
0.0100581
0.00982901
0.00970293
0.0101177
0.010661
0.0115364
0.0126712
0.0130554
0.0124353
0.0120974
0.0129568
0.014045
0.014081
0.0133218
0.0129665
0.013579
0.0145713
0.0071864
0.00814423
0.00929368
0.0101152
0.00999571
0.00984217
0.0101834
0.0107187
0.011585
0.0126786
0.0130785
0.0125124
0.0121244
0.0128758
0.013983
0.0141415
0.013425
0.0129737
0.0134146
0.0143957
0.00743487
0.00824381
0.0092912
0.0101593
0.0101602
0.00999387
0.0102544
0.0107739
0.0116344
0.0126903
0.0131005
0.0125898
0.0121674
0.0128002
0.0138994
0.0141848
0.0135343
0.013014
0.0132971
0.0141924
0.00767852
0.00836144
0.00929973
0.0101906
0.0103186
0.0101578
0.010333
0.0108259
0.0116831
0.0127081
0.0131236
0.0126646
0.0122236
0.0127356
0.0137987
0.0142067
0.0136486
0.0130789
0.0132284
0.0139968
0.00791657
0.00849613
0.00932233
0.0102105
0.0104668
0.0103322
0.010422
0.0108743
0.0117289
0.0127324
0.0131509
0.0127363
0.0122883
0.012686
0.0136885
0.0142041
0.0137646
0.0131656
0.0131993
0.0138386
0.0081487
0.00864586
0.00936155
0.010222
0.0106011
0.0105135
0.0105248
0.0109211
0.0117682
0.0127613
0.0131866
0.0128078
0.0123574
0.0126515
0.0135767
0.0141785
0.0138752
0.0132731
0.0132011
0.0137239
0.00837499
0.00880795
0.00941941
0.0102301
0.0107176
0.0106972
0.0106443
0.0109691
0.0117973
0.0127916
0.0132335
0.0128836
0.0124299
0.0126311
0.0134685
0.0141333
0.0139739
0.0133986
0.0132324
0.0136459
0.00859569
0.00897955
0.00949741
0.0102401
0.0108142
0.0108781
0.0107816
0.0110224
0.0118143
0.0128175
0.0132914
0.0129687
0.012507
0.0126251
0.0133675
0.0140706
0.0140557
0.0135364
0.0132945
0.0136
0.00881117
0.00915779
0.00959606
0.0102575
0.0108903
0.0110497
0.010936
0.0110871
0.01182
0.0128312
0.0133577
0.0130681
0.0125914
0.0126348
0.0132784
0.0139923
0.0141158
0.0136798
0.0133864
0.0135915
0.00902216
0.00933975
0.00971469
0.0102879
0.0109474
0.0112055
0.0111045
0.0111705
0.0118178
0.0128246
0.0134258
0.0131859
0.012688
0.0126599
0.0132064
0.0139031
0.0141491
0.0138216
0.0135032
0.0136208
0.00922947
0.00952338
0.0098512
0.010335
0.0109896
0.01134
0.0112816
0.0112795
0.0118157
0.0127921
0.0134816
0.0133223
0.0128057
0.0127003
0.0131539
0.0138116
0.0141531
0.0139526
0.0136382
0.0136856
0.00943339
0.00970716
0.0100021
0.0104006
0.0110239
0.0114508
0.0114594
0.0114161
0.0118285
0.0127369
0.0135072
0.0134684
0.0129538
0.0127627
0.0131202
0.0137261
0.0141309
0.0140618
0.013784
0.0137781
0.00963465
0.00988943
0.0101629
0.0104863
0.0110576
0.0115395
0.0116273
0.0115745
0.0118724
0.0126697
0.01349
0.0136026
0.0131315
0.0128586
0.0131088
0.0136512
0.0140911
0.0141433
0.0139311
0.0138904
0.00983391
0.0100694
0.0103288
0.0105921
0.0110974
0.0116091
0.0117791
0.0117457
0.0119523
0.0126141
0.0134335
0.013701
0.0133265
0.0129933
0.01313
0.0135913
0.0140406
0.0141965
0.0140698
0.0140173
0.0100312
0.0102468
0.0104954
0.0107155
0.0111495
0.0116645
0.0119129
0.0119168
0.0120618
0.0125916
0.0133536
0.0137495
0.0135163
0.0131622
0.013191
0.0135571
0.013986
0.0142236
0.0141929
0.0141526
0.0102267
0.0104218
0.0106601
0.0108526
0.0112177
0.0117124
0.0120272
0.0120808
0.0121915
0.0126091
0.01328
0.0137511
0.0136772
0.0133518
0.0132899
0.0135607
0.0139399
0.014227
0.0142949
0.01429
0.0104201
0.0105946
0.0108212
0.0109989
0.0113032
0.0117598
0.012123
0.0122336
0.0123301
0.0126609
0.0132343
0.0137211
0.013792
0.013546
0.0134201
0.0136018
0.01392
0.0142156
0.014371
0.0144217
0.0106106
0.0107656
0.0109783
0.0111494
0.0114051
0.0118127
0.012203
0.0123719
0.0124716
0.0127391
0.0132226
0.0136875
0.0138615
0.013724
0.0135753
0.0136743
0.0139352
0.0142074
0.0144212
0.0145401
0.0107977
0.0109351
0.0111319
0.0112996
0.0115203
0.0118756
0.0122719
0.0124938
0.0126123
0.0128356
0.0132407
0.0136689
0.0139003
0.0138675
0.0137436
0.0137743
0.0139811
0.0142208
0.0144541
0.0146382
0.0109805
0.0111028
0.0112824
0.0114468
0.0116451
0.0119503
0.0123357
0.0125998
0.0127473
0.0129448
0.0132848
0.0136702
0.0139297
0.0139779
0.0139049
0.0138985
0.0140522
0.0142621
0.014486
0.0147157
0.0111582
0.0112684
0.0114301
0.0115896
0.0117749
0.0120371
0.0123991
0.0126917
0.0128731
0.0130608
0.0133513
0.0136923
0.0139608
0.0140672
0.0140478
0.0140354
0.0141455
0.0143289
0.0145325
0.0147789
0.0113303
0.0114308
0.0115755
0.0117273
0.011905
0.012134
0.012466
0.0127722
0.0129881
0.0131784
0.0134347
0.0137373
0.0139981
0.0141452
0.0141761
0.0141728
0.0142546
0.014417
0.0146037
0.0148432
0.0114959
0.0115889
0.0117183
0.0118599
0.0120321
0.0122373
0.0125387
0.0128459
0.0130912
0.0132924
0.0135277
0.013804
0.0140514
0.0142182
0.0142951
0.0143104
0.0143704
0.0145142
0.0146929
0.0149224
0.0116545
0.0117418
0.011858
0.0119872
0.0121542
0.0123428
0.0126153
0.0129172
0.0131862
0.0134004
0.0136227
0.0138821
0.0141218
0.0142955
0.0144099
0.0144588
0.0145052
0.0146254
0.0147945
0.0150132
0.0118052
0.0118882
0.0119935
0.012109
0.0122697
0.0124477
0.0126936
0.012983
0.0132722
0.0135066
0.0137253
0.0139684
0.0142014
0.0143781
0.0145128
0.0146033
0.014658
0.0147611
0.0149252
0.0151387
0.0119473
0.0120267
0.0121235
0.0122251
0.0123769
0.0125486
0.0127744
0.0130448
0.0133415
0.0136003
0.0138349
0.0140744
0.0143026
0.0144836
0.0146206
0.0147355
0.0148047
0.0148867
0.015042
0.0152624
0.0120806
0.0121564
0.0122463
0.0123342
0.0124744
0.0126398
0.0128525
0.0131097
0.0134
0.0136664
0.0139277
0.0141852
0.014425
0.0146362
0.0147931
0.0149305
0.0150252
0.0150836
0.0151936
0.0153783
0.0122037
0.0122772
0.0123607
0.0124347
0.012561
0.012718
0.0129202
0.0131702
0.0134625
0.0137193
0.0139778
0.0142423
0.0144837
0.0147244
0.0149193
0.0150889
0.0152489
0.0153649
0.0154927
0.0156771
0.012317
0.0123866
0.0124643
0.0125269
0.0126366
0.0127803
0.0129687
0.0132109
0.0135307
0.0138386
0.0141456
0.0144568
0.0147162
0.0149667
0.0151747
0.0153003
0.0154057
0.0154885
0.015573
0.0156959
0.0124188
0.012483
0.0125544
0.0126103
0.0127086
0.0128356
0.0129909
0.0131619
0.0133877
0.0136298
0.0139307
0.0143354
0.0147455
0.0151472
0.0155452
0.015864
0.0161477
0.0164273
0.016706
0.0169594
0.012504
0.0125629
0.0126286
0.0126792
0.012772
0.0129052
0.0130967
0.0133334
0.0136456
0.013971
0.0142873
0.0146358
0.0149466
0.0151997
0.0154452
0.0156386
0.0157955
0.0159476
0.0161118
0.0163075
0.0125747
0.0126317
0.0126899
0.0127295
0.012794
0.0128779
0.0130093
0.0131746
0.0134401
0.0138169
0.0142176
0.014645
0.0150832
0.0154442
0.0158077
0.0161858
0.0165393
0.016862
0.0171372
0.0173508
0.0126258
0.0126866
0.0127555
0.0128125
0.0128986
0.0130058
0.0131797
0.0133819
0.013614
0.0139008
0.0142159
0.0145867
0.0150697
0.0155472
0.0159749
0.0163637
0.0166922
0.016959
0.0171569
0.0172844
0.0236842
0.020931
0.0148058
0.00908421
0.0069364
0.00773542
0.00898542
0.00989575
0.0106223
0.011197
0.011733
0.0125289
0.0135415
0.0144865
0.0151603
0.0155497
0.0159181
0.0164425
0.0170335
0.0175644
0.0179308
0.0182217
0.0186407
0.0191277
0.0195414
0.0199511
0.0204925
0.0211546
0.0217273
0.0221332
0.0225587
0.0230581
0.0235269
0.024003
0.0245437
0.0250773
0.0255948
0.0261508
0.0267121
0.0272365
0.0277514
0.0282947
0.0288857
0.0295236
0.0301629
0.0307835
0.0313933
0.0320037
0.0326041
0.0331893
0.0338161
0.0344879
0.0351235
0.0357765
0.036511
0.0372642
0.0380025
0.0387834
0.0396464
0.0404872
0.0410846
0.0415206
0.0422439
0.0432381
0.0442255
0.0451324
0.046002
0.0468371
0.047726
0.0486409
0.0495453
0.0504645
0.0514253
0.052411
0.0533798
0.0543883
0.0554196
0.0564952
0.057553
0.0586525
0.0597841
0.0609393
0.0621324
0.0633194
0.0645397
0.0657787
0.067049
0.0683771
0.0696929
0.0710529
0.0723794
0.0737675
0.0751614
0.076585
0.0780197
0.0794475
0.080883
0.0821907
0.0835254
0.0847256
0.0230953
0.0207934
0.0148687
0.00923925
0.0070588
0.00780068
0.00902334
0.00991889
0.0106381
0.0112092
0.0117423
0.0125364
0.0135482
0.0144929
0.0151664
0.0155548
0.0159223
0.0164463
0.0170371
0.0175678
0.0179339
0.0182242
0.0186429
0.0191299
0.0195435
0.0199529
0.020494
0.021156
0.0217288
0.0221345
0.0225598
0.0230592
0.023528
0.0240038
0.0245446
0.0250782
0.0255955
0.0261516
0.0267129
0.0272372
0.0277521
0.0282953
0.0288863
0.0295242
0.0301636
0.0307841
0.0313939
0.0320043
0.0326046
0.0331898
0.0338166
0.0344884
0.035124
0.035777
0.0365114
0.0372646
0.0380029
0.0387838
0.0396467
0.0404876
0.0410851
0.0415209
0.0422441
0.0432383
0.0442258
0.0451327
0.0460023
0.0468374
0.0477263
0.0486411
0.0495455
0.0504647
0.0514255
0.0524112
0.05338
0.0543884
0.0554197
0.0564953
0.0575532
0.0586526
0.0597843
0.0609395
0.0621326
0.0633195
0.0645398
0.0657788
0.0670491
0.0683772
0.069693
0.071053
0.0723795
0.0737676
0.0751615
0.0765851
0.0780198
0.0794476
0.0808831
0.0821907
0.0835253
0.0847256
0.0225531
0.020662
0.0150075
0.00952981
0.00725788
0.00787265
0.00905452
0.00994375
0.010658
0.0112246
0.0117544
0.0125464
0.0135565
0.0144996
0.0151719
0.0155593
0.0159261
0.0164499
0.0170405
0.0175712
0.0179368
0.0182264
0.0186449
0.0191319
0.0195452
0.0199543
0.0204953
0.0211575
0.0217303
0.0221357
0.0225607
0.0230601
0.0235288
0.0240045
0.0245453
0.0250789
0.0255961
0.0261522
0.0267135
0.0272378
0.0277527
0.0282958
0.0288868
0.0295247
0.0301641
0.0307846
0.0313944
0.0320048
0.0326051
0.0331903
0.033817
0.0344888
0.0351244
0.0357773
0.0365118
0.037265
0.0380032
0.038784
0.039647
0.0404881
0.0410856
0.0415211
0.0422442
0.0432385
0.044226
0.045133
0.0460025
0.0468376
0.0477264
0.0486413
0.0495457
0.0504649
0.0514257
0.0524114
0.0533802
0.0543886
0.0554199
0.0564954
0.0575533
0.0586527
0.0597844
0.0609396
0.0621327
0.0633196
0.0645399
0.0657789
0.0670492
0.0683773
0.0696931
0.071053
0.0723795
0.0737677
0.0751616
0.0765851
0.0780199
0.0794477
0.0808832
0.0821908
0.0835254
0.0847257
0.0220563
0.0205231
0.0151705
0.00986983
0.00751125
0.00796702
0.00909886
0.00998264
0.0106894
0.0112476
0.0117733
0.0125633
0.0135709
0.0145102
0.0151791
0.0155646
0.0159307
0.0164544
0.0170449
0.0175755
0.0179409
0.0182298
0.0186475
0.0191339
0.0195471
0.0199563
0.0204973
0.0211594
0.0217321
0.0221371
0.022562
0.0230613
0.0235298
0.0240053
0.0245461
0.0250797
0.0255968
0.0261528
0.0267142
0.0272384
0.0277533
0.0282963
0.0288872
0.0295252
0.0301646
0.0307852
0.0313949
0.0320052
0.0326056
0.0331907
0.0338175
0.0344893
0.0351248
0.0357776
0.0365121
0.0372653
0.0380035
0.0387843
0.0396473
0.0404887
0.0410861
0.0415211
0.0422441
0.0432388
0.0442264
0.0451332
0.0460028
0.0468378
0.0477266
0.0486415
0.0495458
0.050465
0.0514258
0.0524115
0.0533803
0.0543887
0.05542
0.0564956
0.0575534
0.0586528
0.0597845
0.0609397
0.0621328
0.0633197
0.06454
0.065779
0.0670493
0.0683774
0.0696932
0.0710531
0.0723796
0.0737678
0.0751617
0.0765852
0.07802
0.0794477
0.0808833
0.0821909
0.0835255
0.084726
0.0215607
0.0203532
0.0153272
0.0102188
0.00778372
0.00807114
0.00914628
0.0100285
0.0107299
0.0112786
0.0118002
0.0125889
0.0135932
0.0145266
0.0151899
0.0155723
0.0159372
0.0164599
0.0170498
0.0175806
0.0179466
0.0182355
0.0186517
0.0191364
0.0195493
0.0199593
0.0205005
0.0211621
0.0217343
0.0221392
0.0225639
0.023063
0.0235311
0.0240064
0.0245473
0.0250807
0.0255976
0.0261536
0.0267149
0.0272391
0.0277539
0.0282969
0.0288877
0.0295257
0.0301652
0.0307859
0.0313955
0.0320058
0.0326061
0.0331912
0.0338179
0.0344897
0.0351252
0.035778
0.0365125
0.0372658
0.0380039
0.0387845
0.0396477
0.0404893
0.0410867
0.0415212
0.0422441
0.043239
0.0442268
0.0451336
0.0460031
0.046838
0.0477268
0.0486417
0.0495461
0.0504652
0.051426
0.0524117
0.0533805
0.0543888
0.0554201
0.0564957
0.0575536
0.058653
0.0597847
0.0609398
0.0621329
0.0633198
0.0645401
0.0657791
0.0670494
0.0683775
0.0696933
0.0710533
0.0723797
0.0737679
0.0751618
0.0765853
0.0780201
0.0794478
0.0808834
0.082191
0.0835256
0.0847263
0.0210596
0.0201534
0.0154754
0.010568
0.0080672
0.00818121
0.00919065
0.0100728
0.010773
0.011314
0.0118325
0.0126209
0.0136221
0.0145486
0.0152051
0.0155838
0.0159466
0.016467
0.0170547
0.0175853
0.0179534
0.0182439
0.0186582
0.0191399
0.0195524
0.0199639
0.0205051
0.0211653
0.0217369
0.0221421
0.022567
0.0230655
0.0235329
0.024008
0.0245488
0.0250821
0.0255988
0.0261546
0.0267156
0.0272397
0.0277546
0.0282976
0.0288882
0.0295262
0.0301659
0.0307866
0.0313962
0.0320063
0.0326066
0.0331917
0.0338184
0.0344902
0.0351256
0.0357784
0.036513
0.0372662
0.0380042
0.0387848
0.0396481
0.0404901
0.0410874
0.0415212
0.042244
0.0432394
0.0442272
0.0451339
0.0460034
0.0468383
0.047727
0.048642
0.0495463
0.0504654
0.0514262
0.0524119
0.0533807
0.054389
0.0554203
0.0564959
0.0575537
0.0586531
0.0597848
0.0609399
0.0621331
0.06332
0.0645403
0.0657792
0.0670495
0.0683776
0.0696934
0.0710534
0.0723798
0.0737679
0.0751619
0.0765854
0.0780202
0.079448
0.0808836
0.0821913
0.083526
0.0847268
0.0205612
0.0199288
0.0156143
0.0109146
0.00836065
0.00829863
0.0092325
0.0101136
0.0108159
0.0113511
0.0118676
0.0126565
0.013655
0.0145746
0.0152241
0.0155992
0.0159595
0.016476
0.0170598
0.017589
0.01796
0.0182538
0.0186666
0.0191444
0.0195569
0.0199707
0.0205116
0.0211692
0.0217395
0.0221456
0.0225711
0.0230689
0.0235355
0.0240102
0.0245508
0.0250839
0.0256005
0.026156
0.0267165
0.0272405
0.0277554
0.0282983
0.0288886
0.0295265
0.0301665
0.0307876
0.0313971
0.0320069
0.0326072
0.0331925
0.0338191
0.0344907
0.035126
0.0357788
0.0365134
0.0372666
0.0380046
0.0387852
0.0396487
0.040491
0.0410882
0.0415212
0.0422439
0.0432398
0.0442277
0.0451344
0.0460038
0.0468386
0.0477273
0.0486423
0.0495466
0.0504657
0.0514264
0.0524122
0.0533809
0.0543892
0.0554205
0.0564961
0.0575539
0.0586532
0.0597849
0.0609401
0.0621332
0.0633201
0.0645404
0.0657794
0.0670496
0.0683777
0.0696936
0.0710535
0.07238
0.0737681
0.075162
0.0765855
0.0780204
0.0794481
0.0808838
0.0821916
0.0835264
0.0847274
0.020073
0.0196794
0.0157411
0.0112582
0.00866491
0.00842593
0.0092739
0.0101515
0.0108581
0.0113888
0.0119037
0.0126938
0.0136904
0.0146033
0.0152458
0.0156176
0.0159756
0.0164874
0.0170652
0.0175914
0.0179654
0.0182638
0.0186755
0.0191496
0.0195628
0.01998
0.0205204
0.0211739
0.0217421
0.0221496
0.0225761
0.0230731
0.0235389
0.0240132
0.0245534
0.0250862
0.0256028
0.0261579
0.0267179
0.0272416
0.0277566
0.0282992
0.0288889
0.0295267
0.030167
0.0307886
0.0313982
0.0320076
0.0326079
0.0331934
0.03382
0.0344913
0.0351265
0.0357794
0.0365139
0.037267
0.0380049
0.0387856
0.0396493
0.0404919
0.041089
0.0415212
0.0422438
0.0432403
0.0442283
0.0451348
0.0460043
0.046839
0.0477277
0.0486427
0.049547
0.050466
0.0514267
0.0524125
0.0533811
0.0543894
0.0554207
0.0564963
0.0575541
0.0586534
0.0597851
0.0609402
0.0621334
0.0633203
0.0645405
0.0657795
0.0670497
0.0683779
0.0696937
0.0710537
0.0723801
0.0737682
0.0751622
0.0765856
0.0780206
0.0794483
0.0808841
0.0821922
0.0835272
0.0847282
0.0196008
0.0194059
0.0158534
0.0115985
0.00898012
0.00856564
0.00931778
0.010188
0.0109002
0.0114272
0.0119403
0.0127317
0.0137271
0.0146338
0.0152695
0.0156385
0.0159945
0.0165009
0.0170714
0.0175931
0.0179695
0.0182731
0.0186841
0.0191545
0.0195696
0.0199914
0.0205314
0.0211796
0.021745
0.0221538
0.0225813
0.0230776
0.0235429
0.024017
0.0245564
0.0250888
0.0256054
0.0261602
0.0267196
0.0272432
0.0277584
0.0283006
0.0288894
0.0295265
0.0301674
0.0307897
0.0313993
0.0320084
0.0326087
0.0331947
0.0338212
0.034492
0.0351271
0.0357802
0.0365145
0.0372672
0.0380051
0.0387859
0.0396499
0.040493
0.04109
0.0415214
0.0422439
0.0432408
0.0442288
0.0451353
0.0460048
0.0468394
0.0477281
0.0486432
0.0495474
0.0504664
0.0514271
0.0524129
0.0533815
0.0543897
0.055421
0.0564966
0.0575543
0.0586536
0.0597853
0.0609404
0.0621336
0.0633205
0.0645407
0.0657796
0.0670498
0.068378
0.0696939
0.0710538
0.0723802
0.0737683
0.0751624
0.0765858
0.0780208
0.0794486
0.0808845
0.082193
0.0835282
0.0847291
0.0191502
0.0191114
0.0159482
0.0119328
0.00930461
0.00872006
0.00936806
0.0102259
0.0109437
0.0114666
0.0119768
0.0127692
0.0137643
0.0146657
0.0152949
0.0156616
0.0160159
0.0165168
0.0170788
0.0175943
0.0179726
0.0182816
0.018692
0.0191587
0.0195763
0.0200041
0.0205441
0.0211866
0.0217484
0.0221582
0.0225866
0.0230822
0.0235472
0.0240213
0.0245597
0.0250914
0.0256081
0.0261628
0.0267215
0.0272453
0.027761
0.0283026
0.0288901
0.0295263
0.0301674
0.0307906
0.0314004
0.032009
0.0326096
0.0331962
0.0338227
0.034493
0.0351281
0.0357813
0.0365152
0.0372674
0.038005
0.0387858
0.0396503
0.040494
0.0410911
0.0415218
0.0422442
0.0432415
0.0442294
0.0451357
0.0460053
0.0468399
0.0477286
0.0486437
0.0495479
0.0504669
0.0514276
0.0524134
0.0533819
0.0543901
0.0554214
0.056497
0.0575546
0.0586538
0.0597856
0.0609406
0.0621338
0.0633207
0.0645409
0.0657798
0.06705
0.0683782
0.0696941
0.071054
0.0723804
0.0737685
0.0751626
0.0765859
0.0780211
0.0794489
0.0808849
0.0821942
0.0835295
0.0847302
0.0187278
0.0188009
0.0160208
0.0122561
0.00963523
0.00889067
0.00942849
0.0102684
0.0109908
0.0115086
0.0120134
0.0128056
0.0138008
0.0146981
0.0153218
0.0156868
0.0160402
0.0165354
0.0170877
0.0175957
0.0179753
0.01829
0.0186999
0.0191625
0.0195827
0.0200171
0.0205578
0.0211945
0.0217524
0.022163
0.0225922
0.0230867
0.0235517
0.024026
0.0245634
0.0250941
0.0256109
0.0261654
0.0267236
0.0272477
0.0277641
0.0283055
0.0288914
0.0295262
0.0301672
0.0307913
0.0314014
0.0320096
0.0326104
0.0331978
0.0338243
0.0344942
0.0351294
0.035783
0.0365165
0.0372678
0.0380048
0.0387853
0.03965
0.0404945
0.0410921
0.0415225
0.0422448
0.0432424
0.04423
0.045136
0.0460057
0.0468404
0.0477291
0.0486442
0.0495485
0.0504675
0.0514282
0.052414
0.0533825
0.0543907
0.0554219
0.0564975
0.057555
0.0586542
0.0597859
0.0609409
0.0621341
0.0633209
0.0645411
0.06578
0.0670501
0.0683784
0.0696943
0.0710542
0.0723806
0.0737687
0.0751628
0.0765861
0.0780215
0.0794493
0.0808854
0.0821957
0.0835313
0.0847314
0.0183391
0.0184804
0.016067
0.0125631
0.00996719
0.00907622
0.00950078
0.0103185
0.0110443
0.0115554
0.0120518
0.0128413
0.0138359
0.01473
0.0153496
0.0157141
0.0160672
0.0165567
0.0170985
0.0175977
0.0179781
0.0182991
0.0187086
0.0191664
0.0195887
0.02003
0.0205718
0.0212028
0.0217567
0.0221682
0.022598
0.0230914
0.0235564
0.024031
0.0245673
0.0250968
0.0256136
0.026168
0.0267256
0.02725
0.0277675
0.0283088
0.0288932
0.0295263
0.0301669
0.0307916
0.031402
0.0320101
0.0326112
0.0331995
0.033826
0.0344954
0.0351309
0.035785
0.0365182
0.0372687
0.0380049
0.0387845
0.039649
0.0404943
0.0410927
0.0415232
0.042246
0.0432438
0.0442308
0.0451363
0.046006
0.0468408
0.0477295
0.0486447
0.0495491
0.0504681
0.0514288
0.0524147
0.0533832
0.0543914
0.0554226
0.0564981
0.0575556
0.0586547
0.0597863
0.0609412
0.0621344
0.0633212
0.0645413
0.0657802
0.0670503
0.0683786
0.0696945
0.0710545
0.0723808
0.0737688
0.0751631
0.0765863
0.078022
0.0794498
0.080886
0.0821976
0.0835336
0.0847329
0.0179874
0.0181581
0.0160861
0.0128495
0.0102944
0.00927255
0.00958425
0.0103774
0.0111065
0.0116101
0.0120951
0.0128785
0.01387
0.0147605
0.0153773
0.0157428
0.0160963
0.0165802
0.0171109
0.0176007
0.0179818
0.0183096
0.0187187
0.019171
0.0195946
0.0200426
0.0205853
0.0212107
0.0217607
0.0221733
0.022604
0.0230964
0.0235613
0.0240362
0.0245713
0.0250994
0.0256161
0.0261706
0.0267276
0.0272523
0.0277709
0.0283126
0.0288954
0.0295266
0.0301665
0.0307917
0.0314025
0.0320104
0.032612
0.0332012
0.0338278
0.0344966
0.0351325
0.0357873
0.0365202
0.03727
0.0380052
0.0387835
0.0396472
0.0404929
0.0410924
0.0415235
0.0422474
0.0432459
0.044232
0.0451366
0.0460062
0.0468412
0.0477299
0.0486451
0.0495496
0.0504687
0.0514294
0.0524153
0.0533839
0.0543922
0.0554234
0.0564989
0.0575563
0.0586553
0.0597869
0.0609417
0.0621349
0.0633216
0.0645417
0.0657804
0.0670505
0.0683788
0.0696948
0.0710547
0.0723811
0.0737691
0.0751634
0.0765866
0.0780225
0.0794504
0.0808867
0.0821999