/*--------------------------------*- C++ -*----------------------------------*\
| =========                 |                                                 |
| \\      /  F ield         | OpenFOAM: The Open Source CFD Toolbox           |
|  \\    /   O peration     | Version:  v1912                                 |
|   \\  /    A nd           | Website:  www.openfoam.com                      |
|    \\/     M anipulation  |                                                 |
\*---------------------------------------------------------------------------*/
FoamFile
{
    version     2.0;
    format      ascii;
    class       surfaceScalarField;
    location    "2";
    object      phi;
}
// * * * * * * * * * * * * * * * * * * * * * * * * * * * * * * * * * * * * * //

dimensions      [0 3 -1 0 0 0 0];
oriented        oriented;


internalField   nonuniform List<scalar> 
19000
(
1.17585e-06
-1.56974e-06
1.26581e-06
1.54366e-06
1.22054e-06
7.00915e-07
1.13492e-06
-1.26105e-07
1.22579e-06
-3.48374e-06
1.2842e-06
-1.443e-06
1.26072e-06
-3.70631e-07
1.26288e-06
1.178e-06
1.27084e-06
1.20812e-07
1.33894e-06
1.87837e-07
1.34982e-06
-1.02687e-06
1.38141e-06
-7.63093e-07
1.41011e-06
-1.0455e-06
1.35686e-06
-3.60662e-07
1.30708e-06
-1.522e-07
1.26199e-06
2.34577e-07
1.23726e-06
2.69646e-07
1.21961e-06
2.99038e-07
1.22076e-06
2.92169e-07
1.55633e-07
1.20281e-06
1.23852e-06
-1.584e-06
1.36227e-06
1.41991e-06
1.30942e-06
7.53767e-07
1.20965e-06
-2.63321e-08
1.28231e-06
-3.5564e-06
1.33806e-06
-1.49876e-06
1.32063e-06
-3.53195e-07
1.35484e-06
1.14379e-06
1.35635e-06
1.19299e-07
1.42773e-06
1.16459e-07
1.42387e-06
-1.02301e-06
1.44381e-06
-7.83033e-07
1.47913e-06
-1.08082e-06
1.44144e-06
-3.22975e-07
1.38122e-06
-9.19803e-08
1.34384e-06
2.71956e-07
1.29837e-06
3.15123e-07
1.29756e-06
2.99849e-07
1.27236e-06
3.17367e-07
1.37234e-07
1.29076e-06
1.29635e-06
-1.59756e-06
1.46329e-06
1.25296e-06
1.41434e-06
8.02715e-07
1.29074e-06
9.7269e-08
1.32566e-06
-3.59133e-06
1.38722e-06
-1.56031e-06
1.38197e-06
-3.47946e-07
1.44836e-06
1.0774e-06
1.45538e-06
1.12282e-07
1.50781e-06
6.40273e-08
1.47747e-06
-9.92661e-07
1.48441e-06
-7.89979e-07
1.52035e-06
-1.11676e-06
1.51768e-06
-3.20302e-07
1.45644e-06
-3.07394e-08
1.42279e-06
3.05605e-07
1.37453e-06
3.63384e-07
1.36386e-06
3.1052e-07
1.34801e-06
3.33216e-07
1.38989e-07
1.34625e-06
1.35039e-06
-1.60385e-06
1.55037e-06
1.05298e-06
1.51517e-06
8.37915e-07
1.37448e-06
2.37956e-07
1.35543e-06
-3.57228e-06
1.42221e-06
-1.62709e-06
1.44295e-06
-3.68687e-07
1.53621e-06
9.84139e-07
1.55853e-06
8.99662e-08
1.58601e-06
3.65455e-08
1.53042e-06
-9.37072e-07
1.51666e-06
-7.76221e-07
1.54657e-06
-1.14667e-06
1.57304e-06
-3.46773e-07
1.52874e-06
1.35589e-08
1.49459e-06
3.39756e-07
1.4536e-06
4.04371e-07
1.43465e-06
3.29469e-07
1.42134e-06
3.46526e-07
1.47301e-07
1.41303e-06
1.40323e-06
-1.59872e-06
1.61807e-06
8.38145e-07
1.60281e-06
8.53171e-07
1.45444e-06
3.86324e-07
1.37798e-06
-3.49582e-06
1.4438e-06
-1.69291e-06
1.50418e-06
-4.29065e-07
1.62099e-06
8.67336e-07
1.66178e-06
4.91683e-08
1.66403e-06
3.43004e-08
1.58657e-06
-8.59614e-07
1.55007e-06
-7.39717e-07
1.56837e-06
-1.16497e-06
1.61436e-06
-3.92771e-07
1.59387e-06
3.40527e-08
1.56538e-06
3.68251e-07
1.53033e-06
4.39418e-07
1.51017e-06
3.49624e-07
1.49701e-06
3.59688e-07
1.58728e-07
1.48559e-06
1.45906e-06
-1.5821e-06
1.66988e-06
6.2732e-07
1.67592e-06
8.47132e-07
1.52961e-06
5.32633e-07
1.40664e-06
-3.37285e-06
1.4642e-06
-1.75047e-06
1.56761e-06
-5.32478e-07
1.70679e-06
7.28155e-07
1.76172e-06
-5.76188e-09
1.74358e-06
5.24361e-08
1.64815e-06
-7.64181e-07
1.5915e-06
-6.83066e-07
1.59328e-06
-1.16674e-06
1.64866e-06
-4.48158e-07
1.65104e-06
3.16719e-08
1.63513e-06
3.8416e-07
1.60741e-06
4.67141e-07
1.58984e-06
3.672e-07
1.57918e-06
3.70339e-07
1.71588e-07
1.56632e-06
1.52198e-06
-1.55786e-06
1.71346e-06
4.35841e-07
1.73736e-06
8.2323e-07
1.60267e-06
6.67327e-07
1.45309e-06
-3.22327e-06
1.49848e-06
-1.79586e-06
1.63559e-06
-6.69591e-07
1.79397e-06
5.69776e-07
1.85545e-06
-6.72386e-08
1.8226e-06
8.52835e-08
1.71313e-06
-6.54707e-07
1.64151e-06
-6.11452e-07
1.62451e-06
-1.14974e-06
1.68003e-06
-5.03684e-07
1.70131e-06
1.03959e-08
1.70233e-06
3.83138e-07
1.68603e-06
4.83442e-07
1.67471e-06
3.78524e-07
1.66898e-06
3.7607e-07
1.8434e-07
1.65622e-06
1.59378e-06
-1.53152e-06
1.75595e-06
2.73669e-07
1.7917e-06
7.87484e-07
1.6774e-06
7.81624e-07
1.52103e-06
-3.0669e-06
1.55456e-06
-1.8294e-06
1.70931e-06
-8.2434e-07
1.87916e-06
3.99924e-07
1.93992e-06
-1.27998e-07
1.89752e-06
1.27685e-07
1.77902e-06
-5.36208e-07
1.69851e-06
-5.30939e-07
1.66335e-06
-1.11458e-06
1.71202e-06
-5.52351e-07
1.74695e-06
-2.45327e-08
1.76639e-06
3.63697e-07
1.76531e-06
4.84525e-07
1.76376e-06
3.80073e-07
1.76516e-06
3.74664e-07
1.96003e-07
1.7535e-06
1.67314e-06
-1.50708e-06
1.80159e-06
1.45217e-07
1.84352e-06
7.45548e-07
1.75622e-06
8.68927e-07
1.60644e-06
-2.91712e-06
1.62977e-06
-1.85272e-06
1.78625e-06
-9.80822e-07
1.95688e-06
2.293e-07
2.01175e-06
-1.82866e-07
1.96495e-06
1.74481e-07
1.84405e-06
-4.15308e-07
1.76111e-06
-4.48e-07
1.71062e-06
-1.06409e-06
1.74841e-06
-5.90143e-07
1.79174e-06
-6.78614e-08
1.8286e-06
3.26841e-07
1.84449e-06
4.68633e-07
1.85451e-06
3.70055e-07
1.86422e-06
3.64951e-07
2.06002e-07
1.85422e-06
1.75718e-06
-1.48554e-06
1.85236e-06
5.00369e-08
1.89685e-06
7.01057e-07
1.8397e-06
9.26078e-07
1.70294e-06
-2.78036e-06
1.71601e-06
-1.86579e-06
1.86083e-06
-1.12564e-06
2.02171e-06
6.84185e-08
2.06825e-06
-2.29402e-07
2.0229e-06
2.19824e-07
1.90758e-06
-2.99986e-07
1.82879e-06
-3.69209e-07
1.76722e-06
-1.00252e-06
1.79294e-06
-6.15867e-07
1.84031e-06
-1.15225e-07
1.89171e-06
2.75442e-07
1.92363e-06
4.36707e-07
1.94433e-06
3.49357e-07
1.96148e-06
3.478e-07
2.14406e-07
1.95308e-06
1.8438e-06
-1.46559e-06
1.9098e-06
-1.59595e-08
1.95491e-06
6.55945e-07
1.9269e-06
9.54083e-07
1.80521e-06
-2.65867e-06
1.80678e-06
-1.86736e-06
1.92903e-06
-1.24789e-06
2.07163e-06
-7.4181e-08
2.10964e-06
-2.67409e-07
2.07183e-06
2.57632e-07
1.97022e-06
-1.98376e-07
1.90164e-06
-3.00632e-07
1.83408e-06
-9.34959e-07
1.84854e-06
-6.30331e-07
1.89631e-06
-1.62995e-07
1.95778e-06
2.13973e-07
2.00211e-06
3.92378e-07
2.03008e-06
3.2139e-07
2.05194e-06
3.25936e-07
2.21855e-07
2.04449e-06
1.93264e-06
-1.44538e-06
1.97559e-06
-5.89143e-08
2.01998e-06
6.11559e-07
2.01649e-06
9.57577e-07
1.90972e-06
-2.5519e-06
1.89991e-06
-1.85755e-06
1.99215e-06
-1.34013e-06
2.11049e-06
-1.92523e-07
2.14065e-06
-2.97568e-07
2.11519e-06
2.83093e-07
2.03367e-06
-1.16854e-07
1.97989e-06
-2.46853e-07
1.91168e-06
-8.66752e-07
1.91654e-06
-6.35187e-07
1.96093e-06
-2.0739e-07
2.02636e-06
1.48542e-07
2.07746e-06
3.41287e-07
2.10801e-06
2.90838e-07
2.13122e-06
3.02722e-07
2.28818e-07
2.12426e-06
2.02454e-06
-1.42373e-06
2.05097e-06
-8.53504e-08
2.09336e-06
5.69177e-07
2.10792e-06
9.43014e-07
2.01468e-06
-2.45866e-06
1.99604e-06
-1.83892e-06
2.05587e-06
-1.39996e-06
2.14724e-06
-2.8389e-07
2.16997e-06
-3.20294e-07
2.15899e-06
2.9407e-07
2.10045e-06
-5.83137e-08
2.06361e-06
-2.10013e-07
1.9995e-06
-8.02642e-07
1.99648e-06
-6.3217e-07
2.03333e-06
-2.44233e-07
2.09561e-06
8.62576e-08
2.1472e-06
2.89699e-07
2.17603e-06
2.62012e-07
2.1979e-06
2.80845e-07
2.34971e-07
2.19175e-06
2.12053e-06
-1.40026e-06
2.13606e-06
-1.00879e-07
2.17549e-06
5.29744e-07
2.20195e-06
9.16562e-07
2.1199e-06
-2.37662e-06
2.09628e-06
-1.8153e-06
2.12652e-06
-1.4302e-06
2.19198e-06
-3.49352e-07
2.20732e-06
-3.35629e-07
2.20998e-06
2.91406e-07
2.1733e-06
-2.16295e-08
2.15267e-06
-1.89382e-07
2.09591e-06
-7.45884e-07
2.08678e-06
-6.23041e-07
2.11276e-06
-2.70212e-07
2.16561e-06
3.341e-08
2.21242e-06
2.42884e-07
2.2367e-06
2.37732e-07
2.25582e-06
2.61729e-07
2.39379e-07
2.25141e-06
2.22133e-06
-1.3751e-06
2.2301e-06
-1.09652e-07
2.26628e-06
4.93564e-07
2.30002e-06
8.82818e-07
2.2263e-06
-2.3029e-06
2.20109e-06
-1.79009e-06
2.20802e-06
-1.43713e-06
2.25192e-06
-3.9325e-07
2.26011e-06
-3.43821e-07
2.27349e-06
2.78033e-07
2.25448e-06
-2.6264e-09
2.24698e-06
-1.81881e-07
2.19881e-06
-6.97709e-07
2.18558e-06
-6.09813e-07
2.19988e-06
-2.84517e-07
2.23985e-06
-6.55974e-09
2.2788e-06
2.03942e-07
2.29746e-06
2.19071e-07
2.31346e-06
2.4573e-07
2.41254e-07
2.31158e-06
2.32731e-06
-1.34854e-06
2.33211e-06
-1.14449e-07
2.36528e-06
4.60399e-07
2.40349e-06
8.44601e-07
2.33519e-06
-2.23459e-06
2.31036e-06
-1.76526e-06
2.30119e-06
-1.42797e-06
2.32953e-06
-4.21583e-07
2.33149e-06
-3.45787e-07
2.35201e-06
2.57521e-07
2.34532e-06
4.05967e-09
2.34677e-06
-1.83335e-07
2.30655e-06
-6.57486e-07
2.2913e-06
-5.94567e-07
2.29592e-06
-2.89133e-07
2.32313e-06
-3.37739e-08
2.35359e-06
1.73484e-07
2.36699e-06
2.05673e-07
2.38012e-06
2.32597e-07
2.40481e-07
2.3809e-06
2.43872e-06
-1.32087e-06
2.44132e-06
-1.17047e-07
2.4719e-06
4.29825e-07
2.5131e-06
8.03395e-07
2.44778e-06
-2.16927e-06
2.42393e-06
-1.74141e-06
2.40478e-06
-1.40881e-06
2.42335e-06
-4.40159e-07
2.42064e-06
-3.43072e-07
2.44526e-06
2.32898e-07
2.44608e-06
3.23756e-09
2.45255e-06
-1.89806e-07
2.41853e-06
-6.23464e-07
2.40282e-06
-5.78859e-07
2.4012e-06
-2.87507e-07
2.41832e-06
-5.09027e-08
2.44163e-06
1.50178e-07
2.45102e-06
1.96282e-07
2.46182e-06
2.21803e-07
2.37507e-07
2.46479e-06
2.55573e-06
-1.2923e-06
2.55727e-06
-1.18588e-07
2.5856e-06
4.01492e-07
2.62905e-06
7.59942e-07
2.56498e-06
-2.10519e-06
2.54191e-06
-1.71834e-06
2.51691e-06
-1.38382e-06
2.53018e-06
-4.53424e-07
2.52455e-06
-3.37446e-07
2.5513e-06
2.06148e-07
2.5563e-06
-1.75648e-09
2.56489e-06
-1.98395e-07
2.53506e-06
-5.9364e-07
2.51957e-06
-5.63364e-07
2.51488e-06
-2.82822e-07
2.52534e-06
-6.1364e-08
2.54371e-06
1.31811e-07
2.55067e-06
1.89326e-07
2.55973e-06
2.12744e-07
2.32908e-07
2.56433e-06
2.67847e-06
-1.26294e-06
2.67972e-06
-1.19844e-07
2.70606e-06
3.75151e-07
2.75135e-06
7.14657e-07
2.68743e-06
-2.04128e-06
2.66463e-06
-1.69554e-06
2.63618e-06
-1.35537e-06
2.64697e-06
-4.6421e-07
2.64004e-06
-3.30524e-07
2.66788e-06
1.78315e-07
2.67521e-06
-9.09032e-09
2.68417e-06
-2.07359e-07
2.65691e-06
-5.66375e-07
2.64155e-06
-5.48004e-07
2.63579e-06
-2.77064e-07
2.64236e-06
-6.7931e-08
2.65786e-06
1.16312e-07
2.66375e-06
1.83431e-07
2.6716e-06
2.04892e-07
2.27093e-07
2.67742e-06
2.80709e-06
-1.23276e-06
2.80863e-06
-1.21384e-07
2.83322e-06
3.50558e-07
2.88005e-06
6.67835e-07
2.81566e-06
-1.97689e-06
2.79261e-06
-1.67249e-06
2.76189e-06
-1.32465e-06
2.77174e-06
-4.74058e-07
2.76479e-06
-3.23574e-07
2.79322e-06
1.49884e-07
2.80211e-06
-1.79778e-08
2.81057e-06
-2.15823e-07
2.78481e-06
-5.40614e-07
2.76916e-06
-5.32358e-07
2.76314e-06
-2.71036e-07
2.76744e-06
-7.22384e-08
2.78144e-06
1.02315e-07
2.7872e-06
1.77672e-07
2.79421e-06
1.97885e-07
2.20288e-07
2.80101e-06
2.94181e-06
-1.20167e-06
2.94407e-06
-1.23645e-07
2.9672e-06
3.27429e-07
3.01532e-06
6.19712e-07
2.95009e-06
-1.91167e-06
2.92638e-06
-1.64878e-06
2.89398e-06
-1.29225e-06
2.90361e-06
-4.83683e-07
2.89754e-06
-3.17505e-07
2.9263e-06
1.21124e-07
2.93647e-06
-2.81486e-08
2.94408e-06
-2.23429e-07
2.91926e-06
-5.15797e-07
2.90293e-06
-5.16028e-07
2.89673e-06
-2.64841e-07
2.89948e-06
-7.49869e-08
2.91259e-06
8.92043e-08
2.91871e-06
1.71559e-07
2.92506e-06
1.91526e-07
2.12659e-07
2.93269e-06
3.08288e-06
-1.16955e-06
3.08619e-06
-1.2695e-07
3.10813e-06
3.05482e-07
3.15736e-06
5.70487e-07
3.09112e-06
-1.84543e-06
3.06647e-06
-1.62413e-06
3.03277e-06
-1.25855e-06
3.04241e-06
-4.93327e-07
3.03781e-06
-3.12906e-07
3.06664e-06
9.23008e-08
3.07796e-06
-3.94761e-08
3.08463e-06
-2.30094e-07
3.06052e-06
-4.91688e-07
3.04327e-06
-4.98777e-07
3.03679e-06
-2.58358e-07
3.03818e-06
-7.6379e-08
3.05049e-06
7.68895e-08
3.05718e-06
1.64878e-07
3.06297e-06
1.85726e-07
2.04405e-07
3.07123e-06
3.23065e-06
-1.13629e-06
3.23521e-06
-1.31505e-07
3.25618e-06
2.84511e-07
3.30634e-06
5.2033e-07
3.23909e-06
-1.77818e-06
3.21335e-06
-1.59838e-06
3.17871e-06
-1.22391e-06
3.18834e-06
-5.02957e-07
3.18553e-06
-3.10097e-07
3.21409e-06
6.37449e-08
3.22641e-06
-5.18011e-08
3.23219e-06
-2.35876e-07
3.20873e-06
-4.68226e-07
3.1905e-06
-4.80548e-07
3.18366e-06
-2.51512e-07
3.18376e-06
-7.64792e-08
3.19512e-06
6.55293e-08
3.20246e-06
1.57532e-07
3.20778e-06
1.8041e-07
1.95797e-07
3.21639e-06
3.3855e-06
-1.10186e-06
3.39141e-06
-1.37409e-07
3.4115e-06
2.64423e-07
3.46242e-06
4.69408e-07
3.39433e-06
-1.7101e-06
3.36744e-06
-1.57149e-06
3.33226e-06
-1.18874e-06
3.34169e-06
-5.12383e-07
3.34075e-06
-3.09161e-07
3.36867e-06
3.58278e-08
3.38177e-06
-6.4902e-08
3.3868e-06
-2.40905e-07
3.36401e-06
-4.45439e-07
3.34489e-06
-4.61424e-07
3.33771e-06
-2.44338e-07
3.33666e-06
-7.54303e-08
3.34685e-06
5.53409e-08
3.35493e-06
1.49453e-07
3.35989e-06
1.75452e-07
1.87192e-07
3.36849e-06
3.54782e-06
-1.06627e-06
3.55508e-06
-1.44677e-07
3.57429e-06
2.45221e-07
3.6258e-06
4.17894e-07
3.55715e-06
-1.64145e-06
3.52908e-06
-1.54342e-06
3.49379e-06
-1.15345e-06
3.50274e-06
-5.21328e-07
3.50354e-06
-3.09969e-07
3.53051e-06
8.86616e-09
3.54413e-06
-7.85289e-08
3.54857e-06
-2.45337e-07
3.52654e-06
-4.23409e-07
3.50669e-06
-4.4158e-07
3.49933e-06
-2.36978e-07
3.49739e-06
-7.3487e-08
3.50625e-06
4.6481e-08
3.5151e-06
1.40603e-07
3.51991e-06
1.70642e-07
1.78973e-07
3.52813e-06
3.71798e-06
-1.02954e-06
3.72658e-06
-1.53271e-07
3.74484e-06
2.26953e-07
3.79675e-06
3.65985e-07
3.72791e-06
-1.5726e-06
3.69857e-06
-1.51408e-06
3.66357e-06
-1.11845e-06
3.67175e-06
-5.2951e-07
3.67407e-06
-3.12286e-07
3.69987e-06
-1.69374e-08
3.71377e-06
-9.2424e-08
3.71776e-06
-2.4933e-07
3.69658e-06
-4.02228e-07
3.67624e-06
-4.21238e-07
3.66888e-06
-2.29621e-07
3.66639e-06
-7.09926e-08
3.67386e-06
3.90072e-08
3.68343e-06
1.31037e-07
3.68841e-06
1.65663e-07
1.71466e-07
3.69591e-06
3.89639e-06
-9.91748e-07
3.90624e-06
-1.63124e-07
3.92354e-06
2.09662e-07
3.97561e-06
3.1391e-07
3.90696e-06
-1.50395e-06
3.8762e-06
-1.48331e-06
3.84185e-06
-1.0841e-06
3.84903e-06
-5.36694e-07
3.85261e-06
-3.15861e-07
3.87717e-06
-4.14962e-08
3.89108e-06
-1.06339e-07
3.89477e-06
-2.53018e-07
3.87453e-06
-3.81987e-07
3.85389e-06
-4.00601e-07
3.8467e-06
-2.22432e-07
3.84403e-06
-6.8325e-08
3.85016e-06
3.28814e-08
3.86026e-06
1.20936e-07
3.86576e-06
1.60163e-07
1.64782e-07
3.87244e-06
4.08344e-06
-9.52935e-07
4.09447e-06
-1.74152e-07
4.11078e-06
1.93352e-07
4.16274e-06
2.61948e-07
4.09471e-06
-1.43593e-06
4.0623e-06
-1.4509e-06
4.0289e-06
-1.05071e-06
4.03492e-06
-5.42711e-07
4.03954e-06
-3.20484e-07
4.06286e-06
-6.48125e-08
4.07657e-06
-1.20048e-07
4.08003e-06
-2.56476e-07
4.06084e-06
-3.62804e-07
4.04005e-06
-3.79806e-07
4.03314e-06
-2.15518e-07
4.03064e-06
-6.58294e-08
4.03554e-06
2.79805e-08
4.04588e-06
1.10597e-07
4.05222e-06
1.53818e-07
1.58818e-07
4.05819e-06
4.27954e-06
-9.13171e-07
4.29165e-06
-1.86262e-07
4.30702e-06
1.77978e-07
4.35853e-06
2.10435e-07
4.29157e-06
-1.36896e-06
4.2573e-06
-1.41662e-06
4.22507e-06
-1.01848e-06
4.22982e-06
-5.47458e-07
4.23531e-06
-3.25976e-07
4.25745e-06
-8.69568e-08
4.27075e-06
-1.33347e-07
4.274e-06
-2.5972e-07
4.25601e-06
-3.44818e-07
4.23516e-06
-3.58957e-07
4.22853e-06
-2.08887e-07
4.22648e-06
-6.37792e-08
4.23036e-06
2.41059e-08
4.24057e-06
1.00384e-07
4.24798e-06
1.46406e-07
1.5332e-07
4.25348e-06
4.48514e-06
-8.72533e-07
4.49821e-06
-1.99341e-07
4.51274e-06
1.6345e-07
4.56341e-06
1.59765e-07
4.49795e-06
-1.3035e-06
4.46167e-06
-1.38035e-06
4.43075e-06
-9.87554e-07
4.43418e-06
-5.50886e-07
4.44038e-06
-3.32179e-07
4.46144e-06
-1.08017e-07
4.47416e-06
-1.46065e-07
4.47714e-06
-2.62703e-07
4.46052e-06
-3.28198e-07
4.43969e-06
-3.38126e-07
4.43326e-06
-2.0246e-07
4.43184e-06
-6.23613e-08
4.43494e-06
2.10066e-08
4.44472e-06
9.06072e-08
4.45314e-06
1.3799e-07
1.47897e-07
4.45856e-06
4.7007e-06
-8.31121e-07
4.71462e-06
-2.13258e-07
4.72843e-06
1.49636e-07
4.7778e-06
1.104e-07
4.71428e-06
-1.23998e-06
4.676e-06
-1.34207e-06
4.64638e-06
-9.57934e-07
4.6485e-06
-5.53005e-07
4.65523e-06
-3.38914e-07
4.6753e-06
-1.28081e-07
4.6873e-06
-1.58072e-07
4.68994e-06
-2.65337e-07
4.67484e-06
-3.13096e-07
4.65417e-06
-3.1746e-07
4.64773e-06
-1.96021e-07
4.64709e-06
-6.17257e-08
4.64966e-06
1.84362e-08
4.65874e-06
8.15335e-08
4.66797e-06
1.28759e-07
1.42221e-07
4.67364e-06
4.92673e-06
-7.89054e-07
4.94134e-06
-2.27865e-07
4.95461e-06
1.36361e-07
5.00215e-06
6.28608e-08
4.94101e-06
-1.17884e-06
4.90083e-06
-1.30188e-06
4.87243e-06
-9.29542e-07
4.87329e-06
-5.53865e-07
4.88037e-06
-3.45991e-07
4.89951e-06
-1.47222e-07
4.91072e-06
-1.69281e-07
4.9129e-06
-2.67515e-07
4.89941e-06
-2.99604e-07
4.87914e-06
-2.97192e-07
4.87244e-06
-1.89319e-07
4.87266e-06
-6.19454e-08
4.87492e-06
1.61713e-08
4.88308e-06
7.33769e-08
4.89288e-06
1.1896e-07
1.36094e-07
4.899e-06
5.16374e-06
-7.46475e-07
5.17886e-06
-2.42988e-07
5.19183e-06
1.23393e-07
5.23696e-06
1.77283e-08
5.1786e-06
-1.12048e-06
5.13672e-06
-1.26e-06
5.10943e-06
-9.02248e-07
5.10909e-06
-5.53535e-07
5.11632e-06
-3.5322e-07
5.13458e-06
-1.65482e-07
5.14495e-06
-1.79652e-07
5.14657e-06
-2.69133e-07
5.1347e-06
-2.87731e-07
5.1151e-06
-2.77589e-07
5.10798e-06
-1.82207e-07
5.10892e-06
-6.28855e-08
5.11115e-06
1.39413e-08
5.11827e-06
6.62627e-08
5.12824e-06
1.08993e-07
1.29275e-07
5.13506e-06
5.41226e-06
-7.03546e-07
5.4277e-06
-2.58428e-07
5.44066e-06
1.1043e-07
5.48276e-06
-2.43637e-08
5.4275e-06
-1.06523e-06
5.38423e-06
-1.21672e-06
5.35787e-06
-8.75896e-07
5.35644e-06
-5.521e-07
5.36364e-06
-3.60419e-07
5.38103e-06
-1.82874e-07
5.39056e-06
-1.89185e-07
5.39155e-06
-2.7012e-07
5.38122e-06
-2.77404e-07
5.36256e-06
-2.58923e-07
5.35498e-06
-1.74629e-07
5.35636e-06
-6.42632e-08
5.35881e-06
1.14901e-08
5.36489e-06
6.01794e-08
5.37466e-06
9.92238e-08
1.21671e-07
5.38227e-06
5.67286e-06
-6.60452e-07
5.68839e-06
-2.73951e-07
5.70174e-06
9.70736e-08
5.74013e-06
-6.27485e-08
5.68818e-06
-1.01328e-06
5.6439e-06
-1.17244e-06
5.61834e-06
-8.50333e-07
5.61588e-06
-5.49641e-07
5.62288e-06
-3.67418e-07
5.63938e-06
-1.9938e-07
5.64811e-06
-1.97914e-07
5.64843e-06
-2.70438e-07
5.63953e-06
-2.685e-07
5.62206e-06
-2.4146e-07
5.61404e-06
-1.66606e-07
5.61561e-06
-6.58341e-08
5.61839e-06
8.71114e-09
5.6236e-06
5.49687e-08
5.63276e-06
9.00624e-08
1.13322e-07
5.64111e-06
5.94614e-06
-6.17395e-07
5.96149e-06
-2.89301e-07
5.97575e-06
8.28109e-08
6.00975e-06
-9.67506e-08
5.96117e-06
-9.64699e-07
5.91631e-06
-1.12759e-06
5.89138e-06
-8.25402e-07
5.88799e-06
-5.46243e-07
5.89463e-06
-3.74058e-07
5.91021e-06
-2.14967e-07
5.91818e-06
-2.05883e-07
5.91783e-06
-2.70085e-07
5.9102e-06
-2.60868e-07
5.89419e-06
-2.25449e-07
5.88574e-06
-1.58156e-07
5.88734e-06
-6.74334e-08
5.89056e-06
5.48681e-09
5.89502e-06
5.05074e-08
5.90328e-06
8.18024e-08
1.04411e-07
5.91219e-06
6.23269e-06
-5.74596e-07
6.24757e-06
-3.04184e-07
6.2634e-06
6.69793e-08
6.29242e-06
-1.25771e-07
6.24699e-06
-9.19269e-07
6.20204e-06
-1.08263e-06
6.1776e-06
-8.00962e-07
6.17337e-06
-5.42017e-07
6.17949e-06
-3.80177e-07
6.19412e-06
-2.29595e-07
6.20137e-06
-2.13139e-07
6.20037e-06
-2.69087e-07
6.19385e-06
-2.54342e-07
6.17951e-06
-2.11106e-07
6.17072e-06
-1.49372e-07
6.17215e-06
-6.88658e-08
6.17588e-06
1.75489e-09
6.17989e-06
4.65015e-08
6.18704e-06
7.4654e-08
9.53829e-08
6.19607e-06
6.53316e-06
-5.3229e-07
6.54726e-06
-3.18283e-07
6.56522e-06
4.90191e-08
6.58894e-06
-1.49488e-07
6.54629e-06
-8.76617e-07
6.50164e-06
-1.03799e-06
6.47763e-06
-7.76946e-07
6.47265e-06
-5.37041e-07
6.4781e-06
-3.85629e-07
6.49173e-06
-2.43218e-07
6.49831e-06
-2.19721e-07
6.49671e-06
-2.67485e-07
6.49111e-06
-2.48749e-07
6.47861e-06
-1.98606e-07
6.46963e-06
-1.40391e-07
6.47076e-06
-6.9992e-08
6.47502e-06
-2.50342e-09
6.47886e-06
4.26563e-08
6.48489e-06
6.86217e-08
8.67207e-08
6.49356e-06
6.84822e-06
-4.90725e-07
6.8612e-06
-3.3126e-07
6.88144e-06
2.87845e-08
6.90006e-06
-1.68109e-07
6.85973e-06
-8.36295e-07
6.81575e-06
-9.94007e-07
6.79217e-06
-7.53362e-07
6.78648e-06
-5.31357e-07
6.79115e-06
-3.90291e-07
6.80373e-06
-2.55798e-07
6.80965e-06
-2.25645e-07
6.8075e-06
-2.65328e-07
6.80266e-06
-2.43918e-07
6.79209e-06
-1.88034e-07
6.7832e-06
-1.31494e-07
6.78377e-06
-7.0568e-08
6.78862e-06
-7.35179e-09
6.79264e-06
3.86345e-08
6.79767e-06
6.35909e-08
7.88311e-08
6.80556e-06
7.17857e-06
-4.50154e-07
7.19006e-06
-3.42751e-07
7.21199e-06
6.85148e-09
7.22651e-06
-1.82625e-07
7.18807e-06
-7.97862e-07
7.14501e-06
-9.50943e-07
7.12189e-06
-7.30246e-07
7.11554e-06
-5.25e-07
7.11932e-06
-3.94071e-07
7.13082e-06
-2.67301e-07
7.1361e-06
-2.30929e-07
7.13344e-06
-2.62664e-07
7.12921e-06
-2.39686e-07
7.12054e-06
-1.79365e-07
7.11211e-06
-1.23064e-07
7.11197e-06
-7.04323e-08
7.11735e-06
-1.27354e-08
7.12198e-06
3.40102e-08
7.12617e-06
5.93945e-08
7.19284e-08
7.13308e-06
7.52491e-06
-4.1084e-07
7.53454e-06
-3.52376e-07
7.55773e-06
-1.6338e-08
7.56903e-06
-1.9393e-07
7.5321e-06
-7.60931e-07
7.49011e-06
-9.08953e-07
7.46749e-06
-7.07628e-07
7.46052e-06
-5.1803e-07
7.46335e-06
-3.96895e-07
7.47372e-06
-2.77676e-07
7.4784e-06
-2.35611e-07
7.47526e-06
-2.59523e-07
7.47147e-06
-2.3589e-07
7.46463e-06
-1.72523e-07
7.45701e-06
-1.15449e-07
7.45613e-06
-6.95463e-08
7.46174e-06
-1.8354e-08
7.46758e-06
2.81739e-08
7.47147e-06
5.55061e-08
6.62881e-08
7.47711e-06
7.88802e-06
-3.73046e-07
7.89537e-06
-3.59732e-07
7.91952e-06
-4.04873e-08
7.92838e-06
-2.02792e-07
7.89264e-06
-7.25184e-07
7.85179e-06
-8.68106e-07
7.82969e-06
-6.85533e-07
7.8222e-06
-5.10532e-07
7.824e-06
-3.98698e-07
7.83319e-06
-2.86863e-07
7.83732e-06
-2.39743e-07
7.83375e-06
-2.55953e-07
7.83022e-06
-2.3236e-07
7.82509e-06
-1.67394e-07
7.81855e-06
-1.08913e-07
7.81706e-06
-6.80483e-08
7.82238e-06
-2.36735e-08
7.82962e-06
2.09325e-08
7.83407e-06
5.10483e-08
6.18536e-08
7.83851e-06
8.26867e-06
-3.37032e-07
8.27333e-06
-3.64397e-07
8.29823e-06
-6.53865e-08
8.30537e-06
-2.09933e-07
8.27053e-06
-6.90342e-07
8.23084e-06
-8.28416e-07
8.20929e-06
-6.63982e-07
8.20136e-06
-5.02599e-07
8.20207e-06
-3.99414e-07
8.21001e-06
-2.94796e-07
8.21364e-06
-2.43375e-07
8.2097e-06
-2.52019e-07
8.20627e-06
-2.28925e-07
8.20268e-06
-1.63809e-07
8.19741e-06
-1.03644e-07
8.19549e-06
-6.61198e-08
8.19998e-06
-2.81661e-08
8.20807e-06
1.28391e-08
8.21349e-06
4.56286e-08
5.81375e-08
8.21721e-06
8.66768e-06
-3.03048e-07
8.66921e-06
-3.65924e-07
8.69471e-06
-9.08926e-08
8.70082e-06
-2.16046e-07
8.66664e-06
-6.56159e-07
8.62812e-06
-7.89894e-07
8.60712e-06
-6.42986e-07
8.5988e-06
-4.94276e-07
8.5984e-06
-3.99011e-07
8.60502e-06
-3.01424e-07
8.60818e-06
-2.46528e-07
8.60396e-06
-2.478e-07
8.60045e-06
-2.25416e-07
8.59817e-06
-1.61529e-07
8.59428e-06
-9.97535e-08
8.59214e-06
-6.39825e-08
8.59537e-06
-3.1395e-08
8.60352e-06
4.68826e-09
8.6099e-06
3.92468e-08
5.46487e-08
8.61339e-06
9.0859e-06
-2.71326e-07
9.08382e-06
-3.63848e-07
9.10985e-06
-1.16917e-07
9.11559e-06
-2.21793e-07
9.08187e-06
-6.22433e-07
9.04451e-06
-7.52532e-07
9.02406e-06
-6.22541e-07
9.01535e-06
-4.85567e-07
9.01383e-06
-3.9749e-07
9.01911e-06
-3.067e-07
9.02178e-06
-2.49203e-07
9.01737e-06
-2.43393e-07
9.01365e-06
-2.21693e-07
9.01238e-06
-1.60257e-07
9.00979e-06
-9.71658e-08
9.00768e-06
-6.18699e-08
9.00953e-06
-3.3247e-08
9.01693e-06
-2.70601e-09
9.02425e-06
3.19227e-08
5.09292e-08
9.02797e-06
9.5242e-06
-2.42069e-07
9.51811e-06
-3.5776e-07
9.54456e-06
-1.4336e-07
9.55047e-06
-2.27704e-07
9.51713e-06
-5.8909e-07
9.48086e-06
-7.16263e-07
9.46097e-06
-6.02657e-07
9.4519e-06
-4.76495e-07
9.44926e-06
-3.94848e-07
9.45311e-06
-3.10549e-07
9.45531e-06
-2.51406e-07
9.45081e-06
-2.38888e-07
9.44675e-06
-2.17637e-07
9.44618e-06
-1.59687e-07
9.44467e-06
-9.56571e-08
9.44281e-06
-6.00115e-08
9.44359e-06
-3.40262e-08
9.4495e-06
-8.61592e-09
9.45755e-06
2.38717e-08
4.65069e-08
9.46198e-06
9.9835e-06
-2.15435e-07
9.97332e-06
-3.47582e-07
9.99981e-06
-1.6985e-07
1.00063e-05
-2.34156e-07
9.97338e-06
-5.56201e-07
9.938e-06
-6.80886e-07
9.9187e-06
-5.83356e-07
9.90937e-06
-4.67169e-07
9.90559e-06
-3.91069e-07
9.90795e-06
-3.12907e-07
9.90962e-06
-2.53081e-07
9.90512e-06
-2.34383e-07
9.90063e-06
-2.1315e-07
9.90042e-06
-1.59479e-07
9.89976e-06
-9.49908e-08
9.89824e-06
-5.84954e-08
9.89851e-06
-3.42982e-08
9.90268e-06
-1.278e-08
9.91083e-06
1.57204e-08
4.08866e-08
9.91645e-06
1.04647e-05
-1.91522e-07
1.0451e-05
-3.33821e-07
1.04766e-05
-1.95515e-07
1.04839e-05
-2.41415e-07
1.04517e-05
-5.24007e-07
1.0417e-05
-6.46157e-07
1.03981e-05
-5.6446e-07
1.03886e-05
-4.57689e-07
1.03838e-05
-3.86263e-07
1.03846e-05
-3.13716e-07
1.03855e-05
-2.54018e-07
1.03812e-05
-2.30028e-07
1.03762e-05
-2.08168e-07
1.0376e-05
-1.59306e-07
1.0376e-05
-9.50048e-08
1.03749e-05
-5.73175e-08
1.0375e-05
-3.44826e-08
1.03778e-05
-1.55799e-08
1.03851e-05
8.47946e-09
3.38155e-08
1.03922e-05
1.09688e-05
-1.70346e-07
1.09525e-05
-3.17527e-07
1.09761e-05
-2.1906e-07
1.09843e-05
-2.496e-07
1.09532e-05
-4.92931e-07
1.09189e-05
-6.11825e-07
1.08999e-05
-5.45523e-07
1.08904e-05
-4.48182e-07
1.08848e-05
-3.8067e-07
1.0884e-05
-3.12926e-07
1.08841e-05
-2.5407e-07
1.08799e-05
-2.25841e-07
1.08744e-05
-2.02702e-07
1.0874e-05
-1.58888e-07
1.08747e-05
-9.57034e-08
1.08739e-05
-5.64736e-08
1.08741e-05
-3.47213e-08
1.08763e-05
-1.77643e-08
1.08819e-05
2.87126e-09
2.5852e-08
1.08899e-05
1.14969e-05
-1.51846e-07
1.1479e-05
-2.99618e-07
1.14994e-05
-2.39476e-07
1.15084e-05
-2.58635e-07
1.14791e-05
-4.63625e-07
1.14451e-05
-5.77777e-07
1.1426e-05
-5.2648e-07
1.14161e-05
-4.38256e-07
1.14097e-05
-3.74281e-07
1.14075e-05
-3.10685e-07
1.14065e-05
-2.53136e-07
1.14025e-05
-2.21798e-07
1.13967e-05
-1.96932e-07
1.13957e-05
-1.57874e-07
1.13971e-05
-9.70663e-08
1.13967e-05
-5.61039e-08
1.13969e-05
-3.49297e-08
1.1399e-05
-1.989e-08
1.14031e-05
-1.24643e-09
1.81908e-08
1.14108e-05
1.20498e-05
-1.35874e-07
1.20311e-05
-2.80876e-07
1.20477e-05
-2.56043e-07
1.20573e-05
-2.68288e-07
1.20305e-05
-4.36839e-07
1.19967e-05
-5.43927e-07
1.19775e-05
-5.07246e-07
1.1967e-05
-4.27841e-07
1.19598e-05
-3.6699e-07
1.19561e-05
-3.07021e-07
1.19541e-05
-2.51147e-07
1.19503e-05
-2.17961e-07
1.19444e-05
-1.91033e-07
1.19425e-05
-1.5603e-07
1.19443e-05
-9.88735e-08
1.19447e-05
-5.64629e-08
1.19448e-05
-3.50179e-08
1.19469e-05
-2.19761e-08
1.19503e-05
-4.69786e-09
1.18416e-08
1.19567e-05
1.26289e-05
-1.22195e-07
1.26101e-05
-2.62029e-07
1.26222e-05
-2.68203e-07
1.26322e-05
-2.78284e-07
1.26085e-05
-4.13129e-07
1.2575e-05
-5.10457e-07
1.25553e-05
-4.8746e-07
1.25447e-05
-4.17317e-07
1.25365e-05
-3.58772e-07
1.25313e-05
-3.01781e-07
1.25282e-05
-2.48102e-07
1.25245e-05
-2.14205e-07
1.25187e-05
-1.85299e-07
1.2516e-05
-1.53311e-07
1.25179e-05
-1.00719e-07
1.25191e-05
-5.76843e-08
1.25192e-05
-3.51743e-08
1.2521e-05
-2.37696e-08
1.25244e-05
-8.04787e-09
6.83686e-09
1.25294e-05
1.32352e-05
-1.10504e-07
1.3217e-05
-2.43754e-07
1.32244e-05
-2.75587e-07
1.32343e-05
-2.88279e-07
1.3214e-05
-3.92796e-07
1.31813e-05
-4.77783e-07
1.31607e-05
-4.66806e-07
1.31501e-05
-4.06773e-07
1.31415e-05
-3.50127e-07
1.31346e-05
-2.94918e-07
1.31302e-05
-2.43695e-07
1.31264e-05
-2.10402e-07
1.31211e-05
-1.79989e-07
1.31178e-05
-1.49979e-07
1.31193e-05
-1.02256e-07
1.31212e-05
-5.96088e-08
1.31217e-05
-3.56032e-08
1.3123e-05
-2.51232e-08
1.31262e-05
-1.12263e-08
2.59315e-09
1.31304e-05
1.38701e-05
-1.00459e-07
1.3853e-05
-2.26596e-07
1.38557e-05
-2.78338e-07
1.3865e-05
-2.97604e-07
1.38482e-05
-3.75909e-07
1.38167e-05
-4.46372e-07
1.37951e-05
-4.45207e-07
1.37843e-05
-3.95965e-07
1.37758e-05
-3.41606e-07
1.37677e-05
-2.86829e-07
1.37617e-05
-2.37679e-07
1.37575e-05
-2.06146e-07
1.37527e-05
-1.75215e-07
1.37491e-05
-1.46374e-07
1.37501e-05
-1.03313e-07
1.37525e-05
-6.19695e-08
1.37533e-05
-3.63718e-08
1.37542e-05
-2.61146e-08
1.3757e-05
-1.39844e-08
-1.27027e-09
1.37609e-05
1.45349e-05
-9.17133e-08
1.45192e-05
-2.10925e-07
1.4518e-05
-2.7705e-07
1.45257e-05
-3.0533e-07
1.45121e-05
-3.62299e-07
1.44825e-05
-4.16786e-07
1.446e-05
-4.22712e-07
1.44485e-05
-3.84505e-07
1.44404e-05
-3.33507e-07
1.44319e-05
-2.78306e-07
1.44243e-05
-2.30049e-07
1.44191e-05
-2.00982e-07
1.44147e-05
-1.70793e-07
1.44111e-05
-1.42733e-07
1.44116e-05
-1.03832e-07
1.44142e-05
-6.45899e-08
1.44153e-05
-3.74617e-08
1.44161e-05
-2.68865e-08
1.44183e-05
-1.62621e-08
-4.69803e-09
1.44218e-05
1.52311e-05
-8.39314e-08
1.52171e-05
-1.96922e-07
1.52124e-05
-2.72389e-07
1.52177e-05
-3.10576e-07
1.52069e-05
-3.51493e-07
1.51798e-05
-3.89709e-07
1.51566e-05
-3.99544e-07
1.51441e-05
-3.71929e-07
1.51364e-05
-3.25863e-07
1.51283e-05
-2.702e-07
1.51195e-05
-2.21231e-07
1.5113e-05
-1.94502e-07
1.51086e-05
-1.66368e-07
1.51051e-05
-1.39208e-07
1.5105e-05
-1.03798e-07
1.51077e-05
-6.7299e-08
1.51092e-05
-3.89568e-08
1.51098e-05
-2.7473e-08
1.51117e-05
-1.81467e-08
-7.57146e-09
1.51146e-05
1.59602e-05
-7.68298e-08
1.59479e-05
-1.84626e-07
1.59404e-05
-2.64904e-07
1.59424e-05
-3.12496e-07
1.59337e-05
-3.4284e-07
1.59097e-05
-3.65655e-07
1.58863e-05
-3.76219e-07
1.58724e-05
-3.57998e-07
1.5865e-05
-3.18417e-07
1.58579e-05
-2.63189e-07
1.58487e-05
-2.11953e-07
1.58408e-05
-1.86595e-07
1.58358e-05
-1.6143e-07
1.58325e-05
-1.3586e-07
1.58319e-05
-1.0322e-07
1.58345e-05
-6.98807e-08
1.58365e-05
-4.09676e-08
1.5837e-05
-2.7979e-08
1.58385e-05
-1.96313e-08
-1.0027e-08
1.58409e-05
1.6724e-05
-7.01933e-08
1.67132e-05
-1.73873e-07
1.67036e-05
-2.55288e-07
1.67015e-05
-3.10417e-07
1.66944e-05
-3.35687e-07
1.66733e-05
-3.44619e-07
1.66505e-05
-3.53419e-07
1.66353e-05
-3.42721e-07
1.66274e-05
-3.10551e-07
1.66219e-05
-2.57716e-07
1.66132e-05
-2.03237e-07
1.6604e-05
-1.77416e-07
1.65982e-05
-1.55634e-07
1.65948e-05
-1.32431e-07
1.65938e-05
-1.02254e-07
1.65959e-05
-7.20029e-08
1.65985e-05
-4.34939e-08
1.65992e-05
-2.8674e-08
1.66002e-05
-2.06585e-08
-1.22592e-08
1.66024e-05
1.7524e-05
-6.38651e-08
1.75146e-05
-1.64403e-07
1.75036e-05
-2.443e-07
1.74975e-05
-3.04352e-07
1.7491e-05
-3.29187e-07
1.7473e-05
-3.26562e-07
1.7451e-05
-3.31494e-07
1.74345e-05
-3.26236e-07
1.74252e-05
-3.01237e-07
1.74213e-05
-2.53774e-07
1.74143e-05
-1.96204e-07
1.74043e-05
-1.67482e-07
1.73975e-05
-1.48801e-07
1.73937e-05
-1.28672e-07
1.73924e-05
-1.00938e-07
1.73939e-05
-7.35003e-08
1.73967e-05
-4.6248e-08
1.73978e-05
-2.98569e-08
1.73985e-05
-2.13251e-08
-1.4208e-08
1.74005e-05
1.83623e-05
-5.77774e-08
1.83538e-05
-1.55922e-07
1.83422e-05
-2.32673e-07
1.83326e-05
-2.94827e-07
1.83254e-05
-3.21955e-07
1.83105e-05
-3.11622e-07
1.82899e-05
-3.10978e-07
1.82724e-05
-3.08694e-07