/*--------------------------------*- C++ -*----------------------------------*\
| =========                 |                                                 |
| \\      /  F ield         | OpenFOAM: The Open Source CFD Toolbox           |
|  \\    /   O peration     | Version:  v1912                                 |
|   \\  /    A nd           | Website:  www.openfoam.com                      |
|    \\/     M anipulation  |                                                 |
\*---------------------------------------------------------------------------*/
FoamFile
{
    version     2.0;
    format      ascii;
    class       volVectorField;
    location    "2";
    object      U;
}
// * * * * * * * * * * * * * * * * * * * * * * * * * * * * * * * * * * * * * //

dimensions      [0 1 -1 0 0 0 0];


internalField   nonuniform List<vector> 
9600
(
(0.573778 -0.0157335 0)
(1.40941 0.0173785 0)
(0.787699 0.00792549 0)
(1.2791 -0.00259005 0)
(0.683191 -0.0480715 0)
(1.393 -0.0214003 0)
(0.823354 -0.00647343 0)
(1.31265 0.0211992 0)
(0.869258 0.00246447 0)
(1.29124 0.0051947 0)
(1.0112 -0.0239218 0)
(1.29005 -0.0187855 0)
(1.07664 -0.0282197 0)
(1.33432 -0.0120551 0)
(0.994645 -0.00636478 0)
(1.23987 0.00727002 0)
(0.925035 0.00962988 0)
(1.18718 0.0122988 0)
(0.902341 0.0132416 0)
(1.1847 0.00789418 0)
(0.603716 -0.015894 0)
(1.39017 0.0163609 0)
(0.85957 0.008684 0)
(1.26129 -0.00100892 0)
(0.729516 -0.0501946 0)
(1.34918 -0.0226578 0)
(0.852773 -0.0060795 0)
(1.28623 0.0212373 0)
(0.94193 0.00239774 0)
(1.26272 0.00311208 0)
(1.07559 -0.0242497 0)
(1.24592 -0.0198581 0)
(1.11172 -0.029864 0)
(1.30344 -0.0101034 0)
(1.05733 -0.00394318 0)
(1.19656 0.00914518 0)
(1.00386 0.0112866 0)
(1.11368 0.0127294 0)
(1.00726 0.0143472 0)
(1.07164 0.00634091 0)
(0.649107 -0.0160429 0)
(1.34664 0.0148251 0)
(0.953344 0.0093468 0)
(1.23851 0.00041515 0)
(0.784781 -0.0506001 0)
(1.272 -0.0234217 0)
(0.90131 -0.00578777 0)
(1.23902 0.0204477 0)
(1.02823 0.00233266 0)
(1.23498 0.00184036 0)
(1.11829 -0.0238123 0)
(1.18534 -0.0202639 0)
(1.12472 -0.0305657 0)
(1.24753 -0.00954383 0)
(1.11958 -0.00194052 0)
(1.15319 0.0103018 0)
(1.06558 0.0134016 0)
(1.0781 0.0128628 0)
(1.04684 0.0148942 0)
(1.05678 0.00687113 0)
(0.704909 -0.0161224 0)
(1.28429 0.0127856 0)
(1.0351 0.00983717 0)
(1.21092 0.00220438 0)
(0.841155 -0.0507683 0)
(1.17261 -0.0244983 0)
(0.947694 -0.00583659 0)
(1.18928 0.0189279 0)
(1.10032 0.00207165 0)
(1.21711 0.000946278 0)
(1.14299 -0.0227277 0)
(1.13768 -0.020188 0)
(1.11316 -0.0315454 0)
(1.19186 -0.00998555 0)
(1.14615 -0.000100084 0)
(1.13262 0.0115345 0)
(1.08983 0.0150036 0)
(1.07487 0.0134599 0)
(1.05839 0.0156387 0)
(1.05821 0.00730086 0)
(0.764507 -0.0160976 0)
(1.21383 0.0104069 0)
(1.09106 0.0101136 0)
(1.18038 0.0040924 0)
(0.888257 -0.0498192 0)
(1.07206 -0.0255175 0)
(0.976657 -0.00645984 0)
(1.15231 0.0169853 0)
(1.1495 0.00145177 0)
(1.21154 0.000657205 0)
(1.15069 -0.0211207 0)
(1.10762 -0.019509 0)
(1.08748 -0.0322347 0)
(1.14442 -0.011129 0)
(1.14361 0.000924337 0)
(1.12412 0.0126901 0)
(1.09675 0.0164635 0)
(1.07827 0.0143794 0)
(1.06537 0.0163286 0)
(1.06174 0.0077249 0)
(0.820915 -0.0159643 0)
(1.14764 0.00797279 0)
(1.11858 0.0101391 0)
(1.15071 0.00602798 0)
(0.922535 -0.0483137 0)
(0.992402 -0.0264626 0)
(0.986417 -0.00781588 0)
(1.13256 0.0146512 0)
(1.17818 0.000489784 0)
(1.21225 0.000854158 0)
(1.14969 -0.0190491 0)
(1.09015 -0.0182464 0)
(1.06109 -0.0325242 0)
(1.10353 -0.0127073 0)
(1.12547 0.00119596 0)
(1.11603 0.0135635 0)
(1.09768 0.0177643 0)
(1.08234 0.0152299 0)
(1.0721 0.0168891 0)
(1.06881 0.00832753 0)
(0.86895 -0.0157446 0)
(1.09529 0.00569569 0)
(1.12155 0.00993625 0)
(1.125 0.00784625 0)
(0.945791 -0.0463449 0)
(0.94541 -0.0272234 0)
(0.985082 -0.00988685 0)
(1.12544 0.0119101 0)
(1.19137 -0.000687471 0)
(1.21229 0.00143433 0)
(1.14397 -0.0166025 0)
(1.07838 -0.0165368 0)
(1.03961 -0.0322719 0)
(1.06744 -0.0144201 0)
(1.09979 0.000793322 0)
(1.10397 0.013887 0)
(1.09531 0.0186799 0)
(1.08646 0.0158799 0)
(1.08016 0.0172784 0)
(1.07869 0.00899233 0)
(0.906567 -0.0154868 0)
(1.05984 0.00372079 0)
(1.10725 0.00956316 0)
(1.10435 0.00946251 0)
(0.962283 -0.044239 0)
(0.928618 -0.0278445 0)
(0.981902 -0.0124401 0)
(1.12337 0.00884838 0)
(1.19231 -0.00192566 0)
(1.20673 0.00227023 0)
(1.13436 -0.0138881 0)
(1.06832 -0.014538 0)
(1.02351 -0.0314919 0)
(1.0362 -0.0159966 0)
(1.07131 -0.000137516 0)
(1.08774 0.0135394 0)
(1.08997 0.0190606 0)
(1.08947 0.0161964 0)
(1.08892 0.0174067 0)
(1.08971 0.00963343 0)
(0.934499 -0.0152369 0)
(1.038 0.00212986 0)
(1.08379 0.00910049 0)
(1.08793 0.0107778 0)
(0.975609 -0.0421395 0)
(0.930893 -0.0283376 0)
(0.980645 -0.015158 0)
(1.11946 0.00565065 0)
(1.18193 -0.00310625 0)
(1.19288 0.00324736 0)
(1.12058 -0.0110504 0)
(1.05839 -0.0124133 0)
(1.01173 -0.0302469 0)
(1.01048 -0.0172985 0)
(1.04365 -0.00144899 0)
(1.06919 0.0125269 0)
(1.08223 0.0187886 0)
(1.09032 0.0160469 0)
(1.09624 0.0171641 0)
(1.09938 0.0101875 0)
(0.954825 -0.0150146 0)
(1.02393 0.000932316 0)
(1.0583 0.00859386 0)
(1.0741 0.0117204 0)
(0.987609 -0.0401532 0)
(0.941255 -0.0286571 0)
(0.979948 -0.0177656 0)
(1.10876 0.00255539 0)
(1.16052 -0.00414864 0)
(1.16995 0.00425318 0)
(1.10268 -0.00826206 0)
(1.04827 -0.0103233 0)
(1.00337 -0.0286555 0)
(0.990888 -0.0182554 0)
(1.01964 -0.00297029 0)
(1.05096 0.0109183 0)
(1.07318 0.0178313 0)
(1.08849 0.0153783 0)
(1.09987 0.0165175 0)
(1.10479 0.0106434 0)
(0.9696 -0.0148135 0)
(1.01327 8.93269e-05 0)
(1.03573 0.00806035 0)
(1.06156 0.0122698 0)
(0.998198 -0.0383212 0)
(0.953096 -0.0287697 0)
(0.977927 -0.0200365 0)
(1.08955 -0.000211849 0)
(1.12981 -0.00500401 0)
(1.13913 0.00516433 0)
(1.08169 -0.00571547 0)
(1.03814 -0.00842995 0)
(0.997858 -0.0268483 0)
(0.977654 -0.0188613 0)
(1.00096 -0.0045604 0)
(1.03486 0.00883139 0)
(1.0634 0.0162735 0)
(1.08324 0.0142921 0)
(1.09779 0.0155544 0)
(1.10344 0.0110302 0)
(0.980284 -0.0146165 0)
(1.00436 -0.00047168 0)
(1.0185 0.00752929 0)
(1.04983 0.0124661 0)
(1.00635 -0.0366733 0)
(0.963553 -0.0286796 0)
(0.974857 -0.0218208 0)
(1.06407 -0.00257844 0)
(1.09388 -0.00567486 0)
(1.10362 0.00586928 0)
(1.05951 -0.00356915 0)
(1.02828 -0.00687027 0)
(0.99472 -0.0249486 0)
(0.970435 -0.0191716 0)
(0.987795 -0.00613272 0)
(1.02097 0.0064591 0)
(1.05214 0.0143009 0)
(1.0733 0.0129786 0)
(1.08845 0.0144477 0)
(1.09384 0.0113822 0)
(0.987844 -0.0144091 0)
(0.997155 -0.000825571 0)
(1.00682 0.00701983 0)
(1.03914 0.0123826 0)
(1.01141 -0.0352377 0)
(0.971725 -0.0284231 0)
(0.972264 -0.0230394 0)
(1.03716 -0.00448706 0)
(1.05825 -0.00617976 0)
(1.06795 0.00627622 0)
(1.03847 -0.00193463 0)
(1.01902 -0.00572317 0)
(0.993278 -0.0230969 0)
(0.968152 -0.0192121 0)
(0.97921 -0.00753304 0)
(1.00839 0.00408104 0)
(1.03834 0.0121926 0)
(1.05809 0.0116578 0)
(1.07182 0.0133668 0)
(1.07651 0.0117067 0)
(0.993009 -0.0141842 0)
(0.991899 -0.00103679 0)
(0.999621 0.00653598 0)
(1.03004 0.0120963 0)
(1.01367 -0.0340052 0)
(0.977588 -0.0280664 0)
(0.971166 -0.023729 0)
(1.01367 -0.00588116 0)
(1.02783 -0.00653241 0)
(1.03652 0.00636386 0)
(1.02057 -0.000838073 0)
(1.01071 -0.00500662 0)
(0.992662 -0.0214155 0)
(0.969134 -0.0190105 0)
(0.974009 -0.0085843 0)
(0.996806 0.00198099 0)
(1.02249 0.0102264 0)
(1.03911 0.0105028 0)
(1.05043 0.0124193 0)
(1.05441 0.0119817 0)
(0.9964 -0.0139407 0)
(0.988479 -0.0011606 0)
(0.995429 0.00608496 0)
(1.02293 0.0116869 0)
(1.01402 -0.0329271 0)
(0.981501 -0.0276711 0)
(0.9715 -0.0239912 0)
(0.996351 -0.00683717 0)
(1.00528 -0.00674438 0)
(1.01219 0.00617936 0)
(1.00692 -0.000209481 0)
(1.00375 -0.00467575 0)
(0.992107 -0.019959 0)
(0.971576 -0.0186486 0)
(0.971277 -0.00923072 0)
(0.98703 0.000335752 0)
(1.00694 0.00855587 0)
(1.0198 0.00959239 0)
(1.02861 0.0116374 0)
(1.03204 0.0121552 0)
(0.998537 -0.0136819 0)
(0.986526 -0.0012301 0)
(0.993039 0.00567137 0)
(1.01782 0.0112033 0)
(1.01343 -0.031949 0)
(0.983935 -0.0272802 0)
(0.972599 -0.0239471 0)
(0.985422 -0.00746344 0)
(0.99071 -0.00683271 0)
(0.995624 0.00579391 0)
(0.997582 6.44783e-05 0)
(0.998388 -0.00462759 0)
(0.991253 -0.0187429 0)
(0.974081 -0.0182014 0)
(0.970324 -0.00951148 0)
(0.98007 -0.000824408 0)
(0.994338 0.00723046 0)
(1.00366 0.00893188 0)
(1.01039 0.0109964 0)
(1.01338 0.0121867 0)
(0.999833 -0.0134106 0)
(0.985618 -0.00126774 0)
(0.991677 0.00529222 0)
(1.01434 0.0106789 0)
(1.01253 -0.0310272 0)
(0.985348 -0.0269063 0)
(0.973805 -0.0237004 0)
(0.979459 -0.00786862 0)
(0.982473 -0.00682117 0)
(0.985712 0.00528686 0)
(0.991843 0.000111294 0)
(0.994651 -0.00474909 0)
(0.990172 -0.0177363 0)
(0.975951 -0.0177227 0)
(0.970479 -0.00952703 0)
(0.976104 -0.00157864 0)
(0.985976 0.00622059 0)
(0.992472 0.00847671 0)
(0.997778 0.0104623 0)
(1.00039 0.0120818 0)
(1.00059 -0.013129 0)
(0.985384 -0.00128873 0)
(0.990913 0.00494224 0)
(1.012 0.010129 0)
(1.01162 -0.0301289 0)
(0.986118 -0.0265467 0)
(0.974757 -0.0233265 0)
(0.9766 -0.00814653 0)
(0.978381 -0.00673287 0)
(0.980521 0.00472085 0)
(0.988693 3.02789e-05 0)
(0.992346 -0.00495344 0)
(0.989144 -0.0168731 0)
(0.977106 -0.0172462 0)
(0.971126 -0.00940064 0)
(0.974411 -0.00204857 0)
(0.981437 0.00544157 0)
(0.985989 0.00815443 0)
(0.990461 0.0100115 0)
(0.992758 0.0118769 0)
(1.00101 -0.0128388 0)
(0.985535 -0.00130321 0)
(0.990526 0.0046171 0)
(1.01038 0.00954864 0)
(1.0108 -0.029234 0)
(0.986527 -0.0261978 0)
(0.975374 -0.0228797 0)
(0.975358 -0.00835695 0)
(0.976601 -0.00660338 0)
(0.978212 0.00412807 0)
(0.987195 -0.00012157 0)
(0.991145 -0.00518079 0)
(0.988404 -0.0160987 0)
(0.977799 -0.0167816 0)
(0.971867 -0.00921551 0)
(0.973983 -0.00234093 0)
(0.979432 0.00479965 0)
(0.982798 0.00789345 0)
(0.986835 0.00962289 0)
(0.988929 0.0116059 0)
(1.00121 -0.0125402 0)
(0.985866 -0.00131841 0)
(0.990395 0.0043146 0)
(1.00923 0.00894794 0)
(1.01007 -0.028333 0)
(0.986766 -0.0258472 0)
(0.975726 -0.0223839 0)
(0.974855 -0.00854023 0)
(0.975959 -0.0064612 0)
(0.977474 0.00352136 0)
(0.986653 -0.00031452 0)
(0.990697 -0.00540176 0)
(0.988027 -0.015372 0)
(0.978324 -0.0163189 0)
(0.972559 -0.00901609 0)
(0.974065 -0.00253099 0)
(0.978708 0.00422862 0)
(0.981397 0.00764843 0)
(0.985186 0.00928027 0)
(0.987196 0.0112865 0)
(1.00127 -0.0122328 0)
(0.986261 -0.00133819 0)
(0.990438 0.00403124 0)
(1.00843 0.00833197 0)
(1.00942 -0.0274187 0)
(0.986957 -0.0254889 0)
(0.97593 -0.0218534 0)
(0.974696 -0.00871639 0)
(0.975845 -0.00632827 0)
(0.977536 0.00290694 0)
(0.98662 -0.000540999 0)
(0.990702 -0.005603 0)
(0.987955 -0.0146735 0)
(0.978863 -0.0158384 0)
(0.973206 -0.00881245 0)
(0.974289 -0.00265623 0)
(0.978473 0.00369972 0)
(0.980753 0.00740054 0)
(0.984335 0.00897069 0)
(0.986359 0.0109207 0)
(1.00121 -0.0119155 0)
(0.986675 -0.0013685 0)
(0.990588 0.00376396 0)
(1.00789 0.007701 0)
(1.00882 -0.0264883 0)
(0.98717 -0.0251197 0)
(0.976097 -0.0213018 0)
(0.974755 -0.00889007 0)
(0.975993 -0.00622211 0)
(0.977993 0.00228965 0)
(0.986823 -0.000797813 0)
(0.990925 -0.00578185 0)
(0.988074 -0.0139937 0)
(0.97947 -0.0153335 0)
(0.973847 -0.00860409 0)
(0.974554 -0.00272538 0)
(0.978375 0.00320434 0)
(0.980361 0.00713876 0)
(0.983714 0.00868839 0)
(0.98581 0.0105115 0)
(1.00109 -0.0115873 0)
(0.987097 -0.00141196 0)
(0.990786 0.00350956 0)
(1.00751 0.0070571 0)
(1.00826 -0.025546 0)
(0.987436 -0.0247329 0)
(0.976314 -0.0207298 0)
(0.975015 -0.00906553 0)
(0.976295 -0.0061496 0)
(0.978627 0.00167231 0)
(0.987096 -0.00107788 0)
(0.991198 -0.00593954 0)
(0.988267 -0.0133307 0)
(0.980118 -0.014802 0)
(0.9745 -0.00838681 0)
(0.974867 -0.00275009 0)
(0.978327 0.0027388 0)
(0.980062 0.00684956 0)
(0.983156 0.00843427 0)
(0.985353 0.0100715 0)
(1.00092 -0.0112471 0)
(0.987533 -0.00146948 0)
(0.990991 0.00326704 0)
(1.00721 0.00640192 0)
(1.00771 -0.024592 0)
(0.987756 -0.0243278 0)
(0.976626 -0.0201437 0)
(0.975472 -0.00923973 0)
(0.976696 -0.0061156 0)
(0.979301 0.0010638 0)
(0.987342 -0.00137974 0)
(0.991408 -0.00607752 0)
(0.988444 -0.0126877 0)
(0.980756 -0.0142391 0)
(0.975164 -0.0081556 0)
(0.975256 -0.00273275 0)
(0.97835 0.0023138 0)
(0.979866 0.00652649 0)
(0.982675 0.00820756 0)
(0.984981 0.00961801 0)
(1.00075 -0.010895 0)
(0.987981 -0.00154201 0)
(0.991188 0.00303479 0)
(1.00691 0.00573659 0)
(1.00716 -0.0236253 0)
(0.988116 -0.0239084 0)
(0.97704 -0.0195532 0)
(0.976093 -0.009408 0)
(0.977156 -0.00611875 0)
(0.979922 0.000471082 0)
(0.987508 -0.00169776 0)
(0.991497 -0.00619663 0)
(0.988554 -0.0120638 0)
(0.981346 -0.0136509 0)
(0.975838 -0.00791634 0)
(0.975736 -0.00267579 0)
(0.978485 0.00194143 0)
(0.979822 0.00616964 0)
(0.98233 0.00800177 0)
(0.984735 0.00917069 0)
(1.00059 -0.0105314 0)
(0.988433 -0.00162942 0)
(0.991374 0.00281198 0)
(1.00658 0.00506533 0)
(1.00662 -0.0226522 0)
(0.988499 -0.0234713 0)
(0.977535 -0.0189649 0)
(0.976821 -0.00956594 0)
(0.977644 -0.00615421 0)
(0.980445 -0.000100861 0)
(0.987585 -0.0020239 0)
(0.991458 -0.00630273 0)
(0.988582 -0.0114596 0)
(0.981871 -0.0130439 0)
(0.976522 -0.00767417 0)
(0.976304 -0.00259223 0)
(0.978757 0.00162254 0)
(0.979962 0.00577694 0)
(0.982157 0.00780525 0)
(0.984634 0.008761 0)
(1.00046 -0.0101566 0)
(0.988879 -0.00172915 0)
(0.991556 0.00260037 0)
(1.0062 0.00439085 0)
(1.00608 -0.0216826 0)
(0.988892 -0.0230093 0)
(0.978085 -0.0183884 0)
(0.977596 -0.00970155 0)
(0.97815 -0.00621672 0)
(0.980872 -0.000638144 0)
(0.987595 -0.00235011 0)
(0.991321 -0.00640275 0)
(0.988543 -0.0108822 0)
(0.982332 -0.0124244 0)
(0.977218 -0.00743428 0)
(0.976942 -0.00249255 0)
(0.979155 0.00135802 0)
(0.980282 0.00534518 0)
(0.982162 0.00758869 0)
(0.984662 0.00842189 0)
(1.00036 -0.00977102 0)
(0.989312 -0.00184451 0)
(0.991741 0.00240084 0)
(1.00579 0.00371797 0)
(1.00556 -0.020718 0)
(0.989288 -0.0225244 0)
(0.978673 -0.0178273 0)
(0.978371 -0.00981769 0)
(0.978672 -0.00630232 0)
(0.98123 -0.00114732 0)
(0.987564 -0.00267349 0)
(0.991128 -0.00649769 0)
(0.98846 -0.0103314 0)
(0.98274 -0.0117999 0)
(0.977925 -0.00720502 0)
(0.977625 -0.00239257 0)
(0.979647 0.00114859 0)
(0.98074 0.00488651 0)
(0.982322 0.00731516 0)
(0.984784 0.00814758 0)
(1.00029 -0.00937568 0)
(0.98973 -0.00197238 0)
(0.991933 0.00221141 0)
(1.00534 0.00304465 0)
(1.00505 -0.0197671 0)
(0.989682 -0.0220124 0)
(0.979294 -0.0172805 0)
(0.979123 -0.00991237 0)
(0.979211 -0.00640373 0)
(0.98155 -0.00163567 0)
(0.987512 -0.00299128 0)
(0.990915 -0.00658578 0)
(0.988358 -0.00980652 0)
(0.983105 -0.011168 0)
(0.978636 -0.00698703 0)
(0.978332 -0.0023058 0)
(0.980196 0.000992149 0)
(0.981286 0.00443253 0)
(0.982601 0.00697388 0)
(0.984963 0.00789451 0)
(1.00023 -0.00897159 0)
(0.99014 -0.00210828 0)
(0.99213 0.00203425 0)
(1.00488 0.00237751 0)
(1.00454 -0.018834 0)
(0.990071 -0.0214686 0)
(0.979947 -0.0167549 0)
(0.979846 -0.00998357 0)
(0.979766 -0.00652037 0)
(0.981856 -0.00209919 0)
(0.987449 -0.00329601 0)
(0.990706 -0.00666763 0)
(0.988258 -0.00932045 0)
(0.983437 -0.0105315 0)
(0.979345 -0.00677762 0)
(0.979047 -0.00224451 0)
(0.980773 0.000874793 0)
(0.981873 0.00400913 0)
(0.982962 0.00658105 0)
(0.985174 0.00762276 0)
(1.0002 -0.00855823 0)
(0.990549 -0.00225834 0)
(0.992331 0.00186754 0)
(1.00441 0.00173044 0)
(1.00404 -0.0179249 0)
(0.990451 -0.020894 0)
(0.98063 -0.0162529 0)
(0.980546 -0.0100341 0)
(0.980334 -0.00665072 0)
(0.982165 -0.00253991 0)
(0.987383 -0.00358267 0)
(0.990513 -0.00674504 0)
(0.988174 -0.00888067 0)
(0.983743 -0.00989922 0)
(0.980041 -0.00656778 0)
(0.979763 -0.00221266 0)
(0.98136 0.000776015 0)
(0.982469 0.00362205 0)
(0.983375 0.00616094 0)
(0.9854 0.00732735 0)
(1.00017 -0.00813859 0)
(0.990964 -0.00241457 0)
(0.992535 0.00170712 0)
(1.00395 0.00110205 0)
(1.00354 -0.0170475 0)
(0.990818 -0.0202857 0)
(0.981338 -0.0157704 0)
(0.981234 -0.0100604 0)
(0.980915 -0.00678692 0)
(0.982486 -0.00296061 0)
(0.987318 -0.00385163 0)
(0.990342 -0.00681229 0)
(0.988114 -0.0084876 0)
(0.98403 -0.00927508 0)
(0.980718 -0.00634975 0)
(0.980473 -0.00220863 0)
(0.981946 0.000684716 0)
(0.983059 0.00326444 0)
(0.983822 0.00572534 0)
(0.985636 0.00702023 0)
(1.00014 -0.00771232 0)
(0.99139 -0.00257786 0)
(0.992742 0.0015521 0)
(1.00348 0.000499164 0)
(1.00306 -0.0162069 0)
(0.991173 -0.0196506 0)
(0.982063 -0.0153056 0)
(0.981918 -0.0100673 0)
(0.981507 -0.00692862 0)
(0.982823 -0.00336569 0)
(0.987262 -0.00410093 0)
(0.990196 -0.0068635 0)
(0.988085 -0.00814073 0)
(0.984305 -0.00866689 0)
(0.981368 -0.00612233 0)
(0.981176 -0.00222806 0)
(0.982526 0.00060162 0)
(0.983635 0.00293701 0)
(0.984295 0.00526702 0)
(0.985883 0.00669777 0)
(1.00011 -0.00728153 0)
(0.991828 -0.00274694 0)
(0.992951 0.00139754 0)
(1.00303 -6.79743e-05 0)
(1.00258 -0.0154118 0)
(0.991516 -0.0189928 0)
(0.982796 -0.0148552 0)
(0.982603 -0.0100553 0)
(0.98211 -0.00707122 0)
(0.983177 -0.00375172 0)
(0.987222 -0.00432881 0)
(0.990077 -0.00689636 0)
(0.988094 -0.00783709 0)
(0.984572 -0.00808572 0)
(0.981986 -0.00587915 0)
(0.981869 -0.00227254 0)
(0.983098 0.000518369 0)
(0.984185 0.00265567 0)
(0.984786 0.00479083 0)
(0.986151 0.00633735 0)
(1.00009 -0.00684929 0)
(0.992279 -0.0029164 0)
(0.993164 0.00124235 0)
(1.00259 -0.000586859 0)
(1.00213 -0.0146634 0)
(0.991851 -0.018314 0)
(0.983532 -0.0144176 0)
(0.983289 -0.010021 0)
(0.98272 -0.00721152 0)
(0.983548 -0.00411804 0)
(0.9872 -0.00454112 0)
(0.989987 -0.00691044 0)
(0.988141 -0.00757316 0)
(0.984839 -0.00754084 0)
(0.982568 -0.00561835 0)
(0.98255 -0.00233165 0)
(0.983667 0.00041991 0)
(0.984705 0.00242997 0)
(0.985277 0.00433093 0)
(0.986447 0.00592331 0)
(1.00006 -0.00641503 0)
(0.99274 -0.00308692 0)
(0.993382 0.00108041 0)
(1.00216 -0.00104944 0)
(1.00169 -0.01396 0)
(0.99218 -0.0176276 0)
(0.984267 -0.0139925 0)
(0.983974 -0.0099679 0)
(0.983335 -0.00735036 0)
(0.983934 -0.00446495 0)
(0.987201 -0.00473685 0)
(0.989923 -0.0069086 0)
(0.988229 -0.00734486 0)
(0.985113 -0.00703461 0)
(0.983116 -0.00534529 0)
(0.983215 -0.00238973 0)
(0.984237 0.000300546 0)
(0.985197 0.0022442 0)
(0.985751 0.00392186 0)
(0.986767 0.00546807 0)
(1.00003 -0.00598347 0)
(0.993208 -0.00325349 0)
(0.993606 0.000901393 0)
(1.00175 -0.00145117 0)
(1.00127 -0.0133005 0)
(0.992503 -0.0169413 0)
(0.984998 -0.0135774 0)
(0.984657 -0.0098944 0)
(0.983954 -0.00747674 0)
(0.984334 -0.00478988 0)
(0.987222 -0.00491419 0)
(0.989883 -0.00689202 0)
(0.988357 -0.0071515 0)
(0.985399 -0.0065721 0)
(0.983629 -0.00506074 0)
(0.98386 -0.00244788 0)
(0.984812 0.000160956 0)
(0.98567 0.00207887 0)
(0.986196 0.00357306 0)
(0.987099 0.00499716 0)
(1 -0.00555481 0)
(0.993681 -0.00341601 0)
(0.993839 0.000700545 0)
(1.00136 -0.00178617 0)
(1.00088 -0.0126816 0)
(0.992822 -0.0162556 0)
(0.985723 -0.0131711 0)
(0.985335 -0.00980872 0)
(0.984572 -0.00759008 0)
(0.984748 -0.00509616 0)
(0.987267 -0.00507683 0)
(0.989866 -0.00685666 0)
(0.988523 -0.00698727 0)
(0.985703 -0.00616478 0)
(0.984109 -0.0047611 0)
(0.984481 -0.00249851 0)
(0.985397 -2.3944e-06 0)
(0.986132 0.0019261 0)
(0.986607 0.00328254 0)
(0.98743 0.00453406 0)
(0.999976 -0.00513163 0)
(0.994155 -0.00356763 0)
(0.99408 0.000470678 0)
(1.00098 -0.00205622 0)
(1.00051 -0.0120961 0)
(0.993136 -0.0155769 0)
(0.986439 -0.0127735 0)
(0.986007 -0.00971282 0)
(0.985189 -0.00768996 0)
(0.985175 -0.00538043 0)
(0.987338 -0.00522435 0)
(0.989869 -0.00680744 0)
(0.988721 -0.00684471 0)
(0.986029 -0.00581858 0)
(0.98456 -0.004457 0)
(0.985069 -0.00253301 0)
(0.985992 -0.000187573 0)
(0.986599 0.00177077 0)
(0.986981 0.0030564 0)
(0.98774 0.00411016 0)
(0.999949 -0.00471847 0)
(0.994628 -0.0037026 0)
(0.994334 0.000214998 0)
(1.00063 -0.00226929 0)
(1.00015 -0.0115374 0)
(0.993446 -0.0149124 0)
(0.987145 -0.0123853 0)
(0.986671 -0.00960211 0)
(0.9858 -0.00777132 0)
(0.985615 -0.00563983 0)
(0.987436 -0.00535406 0)
(0.989892 -0.00674778 0)
(0.988948 -0.00672141 0)
(0.98638 -0.00553188 0)
(0.984986 -0.00416778 0)
(0.985618 -0.00253863 0)
(0.986594 -0.0003953 0)
(0.987083 0.00158508 0)
(0.987329 0.00287755 0)
(0.988015 0.00376133 0)
(0.999924 -0.00431627 0)
(0.995096 -0.00381855 0)
(0.9946 -5.74827e-05 0)
(1.00031 -0.00243462 0)
(0.999821 -0.0110017 0)
(0.993752 -0.0142635 0)
(0.98784 -0.0120043 0)
(0.987325 -0.00947939 0)
(0.986405 -0.00783631 0)
(0.986065 -0.0058758 0)
(0.98756 -0.00546888 0)
(0.989935 -0.00667326 0)
(0.989201 -0.00661466 0)
(0.986757 -0.00530075 0)
(0.985394 -0.00390092 0)
(0.98612 -0.00251204 0)
(0.987187 -0.000618032 0)
(0.987595 0.00135107 0)
(0.987672 0.00270814 0)
(0.988253 0.00348724 0)
(0.9999 -0.00392798 0)
(0.995558 -0.00391138 0)
(0.994879 -0.000344029 0)
(1.00001 -0.00256242 0)
(0.99951 -0.0104845 0)
(0.994053 -0.0136286 0)
(0.988524 -0.0116327 0)
(0.987969 -0.00934556 0)
(0.987002 -0.00788238 0)
(0.986525 -0.00608738 0)
(0.98771 -0.00557139 0)
(0.989996 -0.00658681 0)
(0.989476 -0.00651801 0)
(0.987164 -0.00512571 0)
(0.985792 -0.00366311 0)
(0.986572 -0.00246092 0)
(0.987758 -0.000835974 0)
(0.988134 0.00105316 0)
(0.988029 0.00251546 0)
(0.988466 0.00326208 0)
(0.999878 -0.00355647 0)
(0.996009 -0.00397697 0)
(0.995172 -0.000639604 0)
(0.999734 -0.00266276 0)
(0.999217 -0.00998413 0)
(0.994349 -0.0130086 0)
(0.989193 -0.0112685 0)
(0.988602 -0.00920712 0)
(0.98759 -0.00790683 0)
(0.986994 -0.0062722 0)
(0.987887 -0.00565857 0)
(0.990071 -0.0064881 0)
(0.989766 -0.00642257 0)
(0.987601 -0.00500334 0)
(0.986191 -0.00347045 0)
(0.986975 -0.00239304 0)
(0.988287 -0.00102649 0)
(0.988695 0.000704334 0)
(0.988421 0.0022734 0)
(0.988674 0.00306207 0)
(0.999858 -0.00320408 0)
(0.996446 -0.00400946 0)
(0.995479 -0.000943283 0)
(0.99949 -0.00274508 0)
(0.998944 -0.00949594 0)
(0.994637 -0.0124087 0)
(0.989848 -0.0109089 0)
(0.989223 -0.00906325 0)
(0.988168 -0.00790928 0)
(0.987471 -0.0064313 0)
(0.988092 -0.00573602 0)
(0.99016 -0.00637756 0)
(0.990065 -0.00632485 0)
(0.988064 -0.00491942 0)
(0.9866 -0.00332434 0)
(0.987343 -0.00231413 0)
(0.988764 -0.00117472 0)
(0.989259 0.000346986 0)
(0.988859 0.00198344 0)
(0.988898 0.00286725 0)
(0.99984 -0.00287351 0)
(0.996867 -0.00400509 0)
(0.995796 -0.00125344 0)
(0.999276 -0.00281792 0)
(0.99869 -0.00901327 0)
(0.994918 -0.0118322 0)
(0.990485 -0.0105623 0)
(0.98983 -0.00890485 0)
(0.988734 -0.00788784 0)
(0.987955 -0.00656048 0)
(0.988327 -0.00580652 0)
(0.990262 -0.00626287 0)
(0.990364 -0.00622302 0)
(0.988548 -0.00486978 0)
(0.987026 -0.00322354 0)
(0.987682 -0.00223277 0)
(0.989184 -0.001272 0)
(0.989813 1.67567e-05 0)
(0.989346 0.00165994 0)
(0.989149 0.00267996 0)
(0.999823 -0.00256639 0)
(0.997267 -0.00395906 0)
(0.996123 -0.00156849 0)
(0.999097 -0.00289218 0)
(0.998453 -0.00853287 0)
(0.995186 -0.0112731 0)
(0.991106 -0.010227 0)
(0.990426 -0.00874177 0)
(0.989286 -0.0078468 0)
(0.988443 -0.00665886 0)
(0.988594 -0.00586449 0)
(0.990383 -0.00614484 0)
(0.990658 -0.00611175 0)
(0.989046 -0.0048447 0)
(0.987476 -0.00316446 0)
(0.98801 -0.00216392 0)
(0.989551 -0.00131215 0)
(0.990338 -0.000264521 0)
(0.989883 0.0012885 0)
(0.989442 0.00248772 0)
(0.999809 -0.00228555 0)
(0.997643 -0.00386577 0)
(0.996453 -0.00188672 0)
(0.998954 -0.00297373 0)
(0.998237 -0.00805931 0)
(0.995439 -0.0107251 0)
(0.991706 -0.00989895 0)
(0.991008 -0.00857764 0)
(0.989827 -0.0077842 0)
(0.98893 -0.00672524 0)
(0.988891 -0.0059101 0)
(0.990525 -0.00602917 0)
(0.990944 -0.00599139 0)
(0.98955 -0.00483402 0)
(0.987948 -0.00313429 0)
(0.988338 -0.00211162 0)
(0.989873 -0.00131991 0)
(0.990807 -0.000473904 0)
(0.990458 0.000881759 0)
(0.989806 0.00224223 0)
(0.999798 -0.00203373 0)
(0.99799 -0.00372724 0)
(0.996783 -0.00220097 0)
(0.99885 -0.00306388 0)
(0.998042 -0.007595 0)
(0.995674 -0.0101875 0)
(0.992283 -0.00958413 0)
(0.991578 -0.00840617 0)
(0.990355 -0.00769893 0)
(0.989415 -0.00675992 0)
(0.989211 -0.00593996 0)
(0.990692 -0.00591334 0)
(0.991223 -0.00585687 0)
(0.990055 -0.00483077 0)
(0.988445 -0.0031266 0)
(0.988674 -0.00207118 0)
(0.990164 -0.00132751 0)
(0.991208 -0.000608942 0)
(0.991034 0.000505443 0)
(0.990264 0.00189923 0)
(0.999789 -0.00181007 0)
(0.998305 -0.00355494 0)
(0.997104 -0.00249685 0)
(0.998786 -0.00317037 0)
(0.99787 -0.00714181 0)
(0.995889 -0.00965807 0)
(0.992833 -0.00927185 0)
(0.992134 -0.00822734 0)
(0.990872 -0.00759639 0)
(0.989897 -0.00676625 0)
(0.989553 -0.00595503 0)
(0.990882 -0.00579798 0)
(0.991496 -0.00570857 0)
(0.990556 -0.00482602 0)
(0.988967 -0.00313801 0)
(0.989019 -0.00203342 0)
(0.990435 -0.00134391 0)
(0.991549 -0.00070187 0)
(0.991565 0.000217813 0)
(0.990806 0.00147592 0)
(0.999783 -0.00161216 0)
(0.998587 -0.00336402 0)
(0.997412 -0.00275818 0)
(0.998762 -0.00329321 0)
(0.997724 -0.0067119 0)
(0.996083 -0.0091314 0)
(0.993355 -0.00895826 0)
(0.992673 -0.00804576 0)
(0.991375 -0.00747188 0)
(0.990373 -0.0067369 0)
(0.989914 -0.00595438 0)
(0.991097 -0.00569266 0)
(0.991763 -0.00554652 0)
(0.991052 -0.00480925 0)
(0.989518 -0.00317626 0)
(0.989377 -0.00200573 0)
(0.990691 -0.0013571 0)
(0.991852 -0.000790807 0)
(0.992024 1.81206e-05 0)
(0.991381 0.00105345 0)
(0.999778 -0.00144093 0)
(0.998834 -0.00315905 0)
(0.9977 -0.0029787 0)
(0.998774 -0.00342508 0)
(0.997608 -0.00631388 0)
(0.996254 -0.00860223 0)
(0.993844 -0.00865093 0)
(0.993196 -0.00786137 0)
(0.991866 -0.00732333 0)
(0.990842 -0.00667066 0)
(0.990289 -0.0059315 0)
(0.991337 -0.00559927 0)
(0.992025 -0.00537428 0)
(0.991531 -0.00476162 0)
(0.990093 -0.00323647 0)
(0.989762 -0.00200417 0)
(0.990931 -0.00135793 0)
(0.992129 -0.000887935 0)
(0.992421 -0.000139908 0)
(0.99193 0.000703748 0)
(0.999775 -0.00129431 0)
(0.999047 -0.00294931 0)
(0.997964 -0.00314842 0)
(0.998821 -0.00356086 0)
(0.997525 -0.00595775 0)
(0.996404 -0.00807684 0)
(0.994297 -0.00832986 0)
(0.993704 -0.00767932 0)
(0.992346 -0.00716029 0)
(0.9913 -0.0065639 0)
(0.99067 -0.00587673 0)
(0.991601 -0.00551583 0)
(0.992288 -0.00521114 0)
(0.991986 -0.0046843 0)
(0.99068 -0.00329966 0)
(0.99018 -0.00203803 0)
(0.991162 -0.00135688 0)
(0.992379 -0.000973332 0)
(0.992777 -0.000294165 0)
(0.992417 0.000439885 0)
(0.999774 -0.00116829 0)
(0.99923 -0.00274504 0)
(0.9982 -0.00326104 0)
(0.998895 -0.00369603 0)
(0.997476 -0.00565029 0)
(0.996536 -0.00755888 0)
(0.994708 -0.00799011 0)
(0.994191 -0.00750102 0)
(0.99282 -0.00699242 0)
(0.991749 -0.00641867 0)
(0.991049 -0.00578511 0)
(0.991881 -0.00543138 0)
(0.992558 -0.00506664 0)
(0.992415 -0.00458849 0)
(0.991265 -0.00335211 0)
(0.990632 -0.00209955 0)
(0.991399 -0.00136948 0)
(0.9926 -0.00103678 0)
(0.993106 -0.000450149 0)
(0.992842 0.000224483 0)
(0.999774 -0.00105997 0)
(0.999383 -0.00255141 0)
(0.998405 -0.00331632 0)
(0.99899 -0.003825 0)
(0.997465 -0.00539417 0)
(0.996655 -0.00705717 0)
(0.995075 -0.00763527 0)
(0.994655 -0.00731721 0)
(0.99329 -0.00682644 0)
(0.992192 -0.00624505 0)
(0.991421 -0.00565328 0)
(0.992171 -0.0053321 0)
(0.992835 -0.00493647 0)
(0.992822 -0.00448423 0)
(0.991839 -0.00339236 0)
(0.991112 -0.00217733 0)
(0.991652 -0.00139528 0)
(0.992795 -0.00108304 0)
(0.993407 -0.000589172 0)
(0.993227 2.43055e-05 0)
(0.999775 -0.00096626 0)
(0.999513 -0.00237233 0)
(0.998576 -0.00331833 0)
(0.999097 -0.00393834 0)
(0.997493 -0.00518787 0)
(0.996767 -0.0065854 0)
(0.995396 -0.00725966 0)
(0.995089 -0.00712402 0)
(0.993758 -0.00667099 0)
(0.992635 -0.00605799 0)
(0.991784 -0.00548024 0)
(0.992459 -0.00520991 0)
(0.993117 -0.00480994 0)
(0.993207 -0.00437608 0)
(0.992391 -0.00342102 0)
(0.991617 -0.00226811 0)
(0.991929 -0.0014309 0)
(0.992972 -0.00111955 0)
(0.993674 -0.0007009 0)
(0.99358 -0.000160601 0)
(0.999775 -0.000884926 0)
(0.999623 -0.00221052 0)
(0.998714 -0.0032727 0)
(0.999209 -0.00402297 0)
(0.997558 -0.00502849 0)
(0.996878 -0.00614895 0)
(0.995671 -0.0068676 0)
(0.995487 -0.00691188 0)
(0.994222 -0.00653049 0)
(0.993084 -0.00587424 0)
(0.992137 -0.00527082 0)
(0.992737 -0.00505929 0)
(0.993401 -0.00468653 0)
(0.993571 -0.00426518 0)
(0.992916 -0.00343371 0)
(0.99214 -0.00237023 0)
(0.992238 -0.00148038 0)
(0.99314 -0.00114808 0)
(0.993908 -0.00079358 0)
(0.993893 -0.000317429 0)
(0.999776 -0.000809706 0)
(0.999718 -0.00207116 0)
(0.998822 -0.00318929 0)
(0.999316 -0.00406669 0)
(0.997657 -0.00490787 0)
(0.996998 -0.0057581 0)
(0.995904 -0.00646163 0)
(0.995839 -0.00667052 0)
(0.994677 -0.00640308 0)
(0.99355 -0.00571428 0)
(0.992487 -0.00504142 0)
(0.992994 -0.00486453 0)
(0.993676 -0.00456295 0)
(0.993916 -0.00415498 0)
(0.993403 -0.0034202 0)
(0.99267 -0.00247324 0)
(0.992584 -0.00155078 0)
(0.993305 -0.00116743 0)
(0.994112 -0.000870781 0)
(0.994167 -0.000445279 0)
(0.999775 -0.000740445 0)
(0.999801 -0.00194721 0)
(0.998904 -0.00308289 0)
(0.999411 -0.0040613 0)
(0.997785 -0.00480708 0)
(0.997135 -0.0054224 0)
(0.996103 -0.00605645 0)
(0.996137 -0.00639304 0)
(0.99511 -0.00627106 0)
(0.994034 -0.0056015 0)
(0.992849 -0.00482078 0)
(0.993226 -0.00462214 0)
(0.99393 -0.00441787 0)
(0.994246 -0.00405964 0)
(0.993852 -0.0033869 0)
(0.99319 -0.00256209 0)
(0.992971 -0.00164956 0)
(0.99348 -0.00118995 0)
(0.994288 -0.000928704 0)
(0.99441 -0.000558177 0)
(0.999772 -0.000676837 0)
(0.999875 -0.00183744 0)
(0.998965 -0.00295711 0)
(0.999491 -0.00400387 0)
(0.99793 -0.00471435 0)
(0.997292 -0.00513841 0)
(0.996279 -0.00567681 0)
(0.99638 -0.00607498 0)
(0.995503 -0.00610271 0)
(0.994535 -0.00553603 0)
(0.993244 -0.00464174 0)
(0.993443 -0.00435837 0)
(0.99414 -0.00422432 0)
(0.994552 -0.00396271 0)
(0.99427 -0.00334977 0)
(0.993685 -0.00262182 0)
(0.993391 -0.0017621 0)
(0.993684 -0.00123289 0)
(0.994438 -0.00096583 0)
(0.994629 -0.00066454 0)
(0.999769 -0.000612813 0)
(0.99994 -0.00174516 0)
(0.999012 -0.00281983 0)
(0.999552 -0.00389529 0)
(0.998083 -0.0046197 0)
(0.997467 -0.00489758 0)
(0.996446 -0.00533308 0)
(0.996579 -0.00573536 0)
(0.995835 -0.00587656 0)
(0.995029 -0.00548196 0)
(0.993686 -0.00453808 0)
(0.993669 -0.00410659 0)
(0.994308 -0.00399314 0)
(0.994813 -0.00383026 0)
(0.994657 -0.00330872 0)
(0.99415 -0.00266097 0)
(0.993823 -0.00186662 0)
(0.993926 -0.00130259 0)
(0.994572 -0.000991625 0)
(0.994824 -0.00075576 0)
(0.999765 -0.000552703 0)
(0.999998 -0.00165996 0)
(0.999052 -0.00268266 0)
(0.999594 -0.00374062 0)
(0.998235 -0.00450439 0)
(0.99766 -0.00469836 0)
(0.99661 -0.00501578 0)
(0.996747 -0.00541044 0)
(0.996105 -0.00558963 0)
(0.995487 -0.00538193 0)
(0.994171 -0.0045043 0)