/*--------------------------------*- C++ -*----------------------------------*\
| =========                 |                                                 |
| \\      /  F ield         | OpenFOAM: The Open Source CFD Toolbox           |
|  \\    /   O peration     | Version:  v1912                                 |
|   \\  /    A nd           | Website:  www.openfoam.com                      |
|    \\/     M anipulation  |                                                 |
\*---------------------------------------------------------------------------*/
FoamFile
{
    version     2.0;
    format      ascii;
    class       volVectorField;
    location    "9.5";
    object      U;
}
// * * * * * * * * * * * * * * * * * * * * * * * * * * * * * * * * * * * * * //

dimensions      [0 1 -1 0 0 0 0];


internalField   nonuniform List<vector> 
9600
(
(0.950273 0.00606791 0)
(1.07214 -0.0043734 0)
(0.900652 0.000572771 0)
(1.09802 -0.0116571 0)
(0.80747 0.00287441 0)
(1.1696 0.0164881 0)
(0.942926 0.00425919 0)
(0.99565 0.00482865 0)
(0.946195 0.0132751 0)
(1.05689 -0.0210666 0)
(0.873873 0.00151518 0)
(1.12009 -0.0268035 0)
(0.840122 -0.0114148 0)
(1.1765 -0.0100184 0)
(0.802568 0.00433205 0)
(1.19577 0.0100227 0)
(0.790063 0.00816863 0)
(1.16564 0.0200324 0)
(0.8257 0.0150494 0)
(1.13711 0.0245478 0)
(0.95382 0.00588688 0)
(1.06466 -0.00389062 0)
(0.907168 0.000188931 0)
(1.08831 -0.0106466 0)
(0.817019 0.00207146 0)
(1.15686 0.0152635 0)
(0.958508 0.00636543 0)
(0.990978 0.00512935 0)
(0.956191 0.0122999 0)
(1.04147 -0.0195611 0)
(0.894793 -0.0002421 0)
(1.09276 -0.0256216 0)
(0.860772 -0.0131731 0)
(1.14705 -0.00871011 0)
(0.833015 0.0035883 0)
(1.15584 0.0106284 0)
(0.851511 0.0090697 0)
(1.09568 0.0185719 0)
(0.929539 0.017033 0)
(1.01627 0.0222403 0)
(0.960813 0.00573253 0)
(1.05291 -0.00349297 0)
(0.919981 -1.64491e-05 0)
(1.07287 -0.00979777 0)
(0.841238 0.00116772 0)
(1.12824 0.0141259 0)
(0.980901 0.00778192 0)
(0.984014 0.00512084 0)
(0.968612 0.0116509 0)
(1.02472 -0.0189058 0)
(0.924812 -0.000849465 0)
(1.06297 -0.0249137 0)
(0.900906 -0.0141577 0)
(1.09899 -0.00814982 0)
(0.891631 0.00308413 0)
(1.08992 0.0103616 0)
(0.92714 0.0104019 0)
(1.02391 0.016673 0)
(0.981932 0.0186837 0)
(0.983263 0.0213046 0)
(0.970083 0.00562994 0)
(1.03933 -0.00316613 0)
(0.937118 -0.000232663 0)
(1.05468 -0.00914771 0)
(0.876629 0.000584796 0)
(1.09052 0.0129827 0)
(1.00034 0.00900107 0)
(0.979324 0.00539428 0)
(0.978509 0.011161 0)
(1.01157 -0.0183461 0)
(0.953852 -0.00157953 0)
(1.03649 -0.0244808 0)
(0.940842 -0.0147146 0)
(1.05297 -0.0081451 0)
(0.947046 0.00335192 0)
(1.03915 0.00961698 0)
(0.974716 0.0116508 0)
(0.994934 0.0159005 0)
(0.99093 0.0191589 0)
(0.98571 0.0217456 0)
(0.979954 0.0055575 0)
(1.02624 -0.00290327 0)
(0.955175 -0.000381181 0)
(1.03718 -0.00866988 0)
(0.914731 0.000274487 0)
(1.05423 0.0119256 0)
(1.01138 0.00995286 0)
(0.979125 0.00578814 0)
(0.985425 0.0107698 0)
(1.00511 -0.0180527 0)
(0.974534 -0.00204215 0)
(1.01913 -0.0241923 0)
(0.967981 -0.0148708 0)
(1.02212 -0.00847893 0)
(0.980727 0.00374109 0)
(1.01641 0.00901104 0)
(0.995961 0.0125904 0)
(0.993975 0.0159357 0)
(0.992857 0.0191879 0)
(0.989963 0.0223965 0)
(0.988834 0.00550532 0)
(1.01541 -0.00270308 0)
(0.970968 -0.000478822 0)
(1.02294 -0.00837275 0)
(0.947914 0.000146302 0)
(1.02706 0.0111112 0)
(1.01364 0.010558 0)
(0.982049 0.0061817 0)
(0.990984 0.0104376 0)
(1.00459 -0.0179032 0)
(0.985975 -0.00233225 0)
(1.01036 -0.0239526 0)
(0.982078 -0.0148404 0)
(1.00545 -0.0088692 0)
(0.994905 0.00384729 0)
(1.00957 0.00871053 0)
(1.00377 0.0130981 0)
(0.998794 0.0161515 0)
(0.996217 0.0192942 0)
(0.992805 0.0228684 0)
(0.995734 0.00546625 0)
(1.00761 -0.00255488 0)
(0.982786 -0.000538491 0)
(1.01288 -0.00823647 0)
(0.972477 0.000142443 0)
(1.01101 0.0105843 0)
(1.01009 0.0108823 0)
(0.985427 0.00649779 0)
(0.996377 0.0101285 0)
(1.00711 -0.017783 0)
(0.991466 -0.00249498 0)
(1.00687 -0.0237307 0)
(0.987836 -0.0146784 0)
(0.996667 -0.00923486 0)
(0.997791 0.00371673 0)
(1.00638 0.00851814 0)
(1.00513 0.0132527 0)
(1.00071 0.0164708 0)
(0.997901 0.019443 0)
(0.993859 0.0231793 0)
(1.00042 0.00543284 0)
(1.00268 -0.00244238 0)
(0.990538 -0.000573427 0)
(1.00646 -0.00821708 0)
(0.988413 0.000197843 0)
(1.00371 0.0103232 0)
(1.00444 0.0110388 0)
(0.987684 0.00667536 0)
(1.00161 0.00980353 0)
(1.00992 -0.0176323 0)
(0.994694 -0.00257885 0)
(1.00571 -0.0234745 0)
(0.989384 -0.0144225 0)
(0.991222 -0.00952673 0)
(0.995469 0.00348744 0)
(1.00242 0.00831306 0)
(1.00288 0.0132891 0)
(0.999265 0.016881 0)
(0.99691 0.0195202 0)
(0.993066 0.0234775 0)
(1.00319 0.00539963 0)
(0.999988 -0.00235024 0)
(0.995132 -0.00059137 0)
(1.00256 -0.00827381 0)
(0.997571 0.000261679 0)
(1.00144 0.0102695 0)
(0.999415 0.0111214 0)
(0.988794 0.0067005 0)
(1.00617 0.00943973 0)
(1.01164 -0.0174447 0)
(0.99761 -0.00262144 0)
(1.00522 -0.0231436 0)
(0.989324 -0.0140901 0)
(0.987165 -0.00969167 0)
(0.991341 0.00320192 0)
(0.997632 0.0081306 0)
(0.998958 0.0132763 0)
(0.996277 0.0172813 0)
(0.994919 0.0195333 0)
(0.991955 0.0237781 0)
(1.00452 0.00536353 0)
(0.998886 -0.00226827 0)
(0.997741 -0.000595502 0)
(1.00019 -0.00837364 0)
(1.00202 0.000310228 0)
(1.00126 0.0103513 0)
(0.996322 0.0111838 0)
(0.989505 0.00659361 0)
(1.00968 0.00905601 0)
(1.01218 -0.0172319 0)
(1.00039 -0.00264828 0)
(1.00483 -0.0227143 0)
(0.989083 -0.0136917 0)
(0.98396 -0.00971216 0)
(0.987169 0.00288589 0)
(0.992835 0.0080078 0)
(0.994798 0.0131557 0)
(0.993327 0.0176141 0)
(0.993504 0.0194705 0)
(0.991931 0.0239491 0)
(1.00485 0.00532269 0)
(0.99884 -0.00219274 0)
(0.99934 -0.000585547 0)
(0.998703 -0.00848769 0)
(1.00333 0.000338263 0)
(1.00148 0.0104994 0)
(0.995374 0.0112424 0)
(0.990529 0.00639684 0)
(1.01211 0.00867046 0)
(1.01209 -0.0170044 0)
(1.00242 -0.00267576 0)
(1.00446 -0.0221802 0)
(0.989179 -0.0132541 0)
(0.981635 -0.00958709 0)
(0.983724 0.00256337 0)
(0.988579 0.00792869 0)
(0.991044 0.012903 0)
(0.990934 0.0178521 0)
(0.992869 0.0192872 0)
(0.992911 0.0238979 0)
(1.00452 0.00527601 0)
(0.99944 -0.00212505 0)
(1.00054 -0.000559506 0)
(0.997748 -0.00859001 0)
(1.00257 0.000350182 0)
(1.00138 0.0106544 0)
(0.996151 0.0112881 0)
(0.992193 0.00615815 0)
(1.01366 0.00829073 0)
(1.01193 -0.0167552 0)
(1.00322 -0.00270958 0)
(1.00413 -0.0215691 0)
(0.989547 -0.0127978 0)
(0.980276 -0.00931325 0)
(0.981228 0.00224506 0)
(0.985113 0.00788705 0)
(0.987799 0.0125481 0)
(0.988836 0.0179762 0)
(0.992306 0.0189856 0)
(0.993805 0.0236198 0)
(1.00379 0.00522312 0)
(1.00037 -0.00206893 0)
(1.00161 -0.000516512 0)
(0.997171 -0.00865816 0)
(1.00051 0.000355033 0)
(1.00076 0.0107699 0)
(0.997966 0.0113011 0)
(0.994416 0.00591483 0)
(1.01462 0.00793054 0)
(1.01198 -0.0164653 0)
(1.00287 -0.00274851 0)
(1.00381 -0.0209152 0)
(0.989942 -0.0123443 0)
(0.979779 -0.0089048 0)
(0.97969 0.00193653 0)
(0.982587 0.00790357 0)
(0.985141 0.0121362 0)
(0.986753 0.0179928 0)
(0.991243 0.0186219 0)
(0.993773 0.0231397 0)
(1.00287 0.0051643 0)
(1.00137 -0.00202784 0)
(1.00259 -0.0004581 0)
(0.996923 -0.00867525 0)
(0.99784 0.000361531 0)
(0.999681 0.010815 0)
(1.00013 0.0112604 0)
(0.996857 0.00569065 0)
(1.01523 0.00759269 0)
(1.01217 -0.016117 0)
(1.00187 -0.00279063 0)
(1.00343 -0.0202401 0)
(0.990209 -0.0119157 0)
(0.979847 -0.00838494 0)
(0.979046 0.00163638 0)
(0.981127 0.00798995 0)
(0.983342 0.0117193 0)
(0.984855 0.0179258 0)
(0.989811 0.0182683 0)
(0.992896 0.0224917 0)
(1.00195 0.00510026 0)
(1.00228 -0.00200324 0)
(1.0034 -0.000387751 0)
(0.996979 -0.00863309 0)
(0.995148 0.000377448 0)
(0.998319 0.0107768 0)
(1.00209 0.0111525 0)
(0.999102 0.00549351 0)
(1.0156 0.00727977 0)
(1.01233 -0.0157036 0)
(1.00082 -0.00283343 0)
(1.00295 -0.0195466 0)
(0.990343 -0.0115239 0)
(0.980147 -0.0077906 0)
(0.97915 0.00133584 0)
(0.980747 0.00812809 0)
(0.982656 0.0113462 0)
(0.983616 0.017794 0)
(0.988613 0.0179841 0)
(0.991893 0.0217254 0)
(1.00114 0.00503172 0)
(1.003 -0.00199327 0)
(1.00397 -0.000311137 0)
(0.997285 -0.00853261 0)
(0.992905 0.000409766 0)
(0.996886 0.0106591 0)
(1.00352 0.0109739 0)
(1.00083 0.00532249 0)
(1.01572 0.00699092 0)
(1.01231 -0.0152317 0)
(1.00009 -0.00287613 0)
(1.00243 -0.0188263 0)
(0.99043 -0.0111699 0)
(0.98046 -0.00715415 0)
(0.979764 0.00102075 0)
(0.981254 0.00828154 0)
(0.983035 0.0110487 0)
(0.983361 0.0175991 0)
(0.98815 0.0178001 0)
(0.99142 0.0208941 0)
(1.00052 0.00495933 0)
(1.00349 -0.00199391 0)
(1.00426 -0.000234609 0)
(0.997756 -0.0083823 0)
(0.991373 0.000463374 0)
(0.995581 0.0104795 0)
(1.00432 0.0107291 0)
(1.00192 0.00517373 0)
(1.01556 0.00671719 0)
(1.01209 -0.014718 0)
(0.999748 -0.00292106 0)
(1.00199 -0.0180686 0)
(0.990558 -0.0108513 0)
(0.980726 -0.00648654 0)
(0.980616 0.000673709 0)
(0.982285 0.00841022 0)
(0.984084 0.0108452 0)
(0.984 0.0173253 0)
(0.988488 0.017712 0)
(0.991656 0.0200468 0)
(1.00007 0.00488359 0)
(1.0038 -0.00200012 0)
(1.00429 -0.000163596 0)
(0.998292 -0.00819469 0)
(0.99059 0.000539207 0)
(0.994544 0.0102629 0)
(1.00455 0.0104292 0)
(1.00239 0.00504178 0)
(1.01512 0.00644959 0)
(1.01171 -0.0141794 0)
(0.999683 -0.00297637 0)
(1.0017 -0.0172613 0)
(0.990785 -0.0105647 0)
(0.980995 -0.00580382 0)
(0.981496 0.000291405 0)
(0.98344 0.00847795 0)
(0.985278 0.0107388 0)
(0.98513 0.0169614 0)
(0.989321 0.0176888 0)
(0.992372 0.019233 0)
(0.999778 0.00480456 0)
(1.00398 -0.00200617 0)
(1.00412 -0.000102289 0)
(0.998811 -0.00798191 0)
(0.99043 0.000634077 0)
(0.993833 0.0100323 0)
(1.00438 0.01009 0)
(1.00237 0.00492325 0)
(1.01445 0.00618129 0)
(1.01125 -0.0136297 0)
(0.999719 -0.00304927 0)
(1.00156 -0.0164042 0)
(0.991126 -0.0102974 0)
(0.98135 -0.00511845 0)
(0.982299 -9.0836e-05 0)
(0.984423 0.00846894 0)
(0.98622 0.0107297 0)
(0.986323 0.0165066 0)
(0.99025 0.0176802 0)
(0.993212 0.0184903 0)
(0.999597 0.00472164 0)
(1.00407 -0.00200703 0)
(1.0038 -5.24073e-05 0)
(0.999255 -0.00775454 0)
(0.990695 0.00074276 0)
(0.993436 0.00980804 0)
(1.00399 0.00972395 0)
(1.00205 0.00481608 0)
(1.01363 0.00590342 0)
(1.01078 -0.0130762 0)
(0.99972 -0.00314158 0)
(1.00152 -0.0155079 0)
(0.991566 -0.0100413 0)
(0.981857 -0.00443513 0)
(0.983 -0.000468779 0)
(0.985105 0.00837223 0)
(0.986765 0.0108129 0)
(0.987324 0.0159719 0)
(0.991009 0.0176392 0)
(0.993926 0.0178423 0)
(0.999494 0.00463436 0)
(1.00413 -0.0019999 0)
(1.00342 -1.37067e-05 0)
(0.999606 -0.00751947 0)
(0.991194 0.000859284 0)
(0.993288 0.00960284 0)
(1.00353 0.00934056 0)
(1.00157 0.00471787 0)
(1.01274 0.00560944 0)
(1.01033 -0.0125222 0)
(0.999616 -0.00325648 0)
(1.00149 -0.0145799 0)
(0.992073 -0.00979904 0)
(0.98254 -0.00375232 0)
(0.983613 -0.000807778 0)
(0.985515 0.00818354 0)
(0.986992 0.0109661 0)
(0.988098 0.0153857 0)
(0.991539 0.0175259 0)
(0.994438 0.0172977 0)
(0.999444 0.00454216 0)
(1.00417 -0.00198244 0)
(1.00303 1.31554e-05 0)
(0.999868 -0.00727882 0)
(0.99178 0.000976911 0)
(0.993305 0.00942181 0)
(1.0031 0.00894605 0)
(1.00105 0.00462888 0)
(1.01182 0.00529887 0)
(1.0099 -0.01197 0)
(0.999393 -0.00338762 0)
(1.00141 -0.0136389 0)
(0.992609 -0.00956324 0)
(0.983383 -0.00308911 0)
(0.98416 -0.00104139 0)
(0.985763 0.00791429 0)
(0.987077 0.0111546 0)
(0.988732 0.0147853 0)
(0.991923 0.0173049 0)
(0.994799 0.0168525 0)
(0.999433 0.00444418 0)
(1.00418 -0.00195336 0)
(1.00268 2.89183e-05 0)
(1.00006 -0.00703447 0)
(0.992355 0.00109174 0)
(0.993415 0.00926635 0)
(1.00277 0.00854435 0)
(1.00055 0.00454986 0)
(1.01091 0.00497156 0)
(1.00949 -0.0114202 0)
(0.999066 -0.00352936 0)
(1.00125 -0.0126993 0)
(0.993136 -0.00933418 0)
(0.984338 -0.00245096 0)
(0.984669 -0.00114449 0)
(0.985972 0.00757369 0)
(0.987179 0.0113397 0)
(0.989324 0.0142084 0)
(0.99228 0.0169623 0)
(0.995093 0.0164986 0)
(0.999457 0.00434046 0)
(1.00414 -0.00191281 0)
(1.00241 3.32257e-05 0)
(1.00018 -0.00678418 0)
(0.992865 0.00120041 0)
(0.993572 0.00913336 0)
(1.00256 0.00814172 0)
(1.00014 0.00447971 0)
(1.01003 0.00463198 0)
(1.00906 -0.010875 0)
(0.998663 -0.00367606 0)
(1.00099 -0.0117636 0)
(0.993625 -0.00911741 0)
(0.985341 -0.00184852 0)
(0.98517 -0.00110264 0)
(0.986233 0.00717549 0)
(0.987377 0.0114918 0)
(0.989916 0.0136847 0)
(0.992685 0.016498 0)
(0.995377 0.016207 0)
(0.999517 0.00423077 0)
(1.00404 -0.00186008 0)
(1.00222 2.51687e-05 0)
(1.00024 -0.00652514 0)
(0.993286 0.00129931 0)
(0.993767 0.00901823 0)
(1.00249 0.0077393 0)
(0.999859 0.00442172 0)
(1.00919 0.0042914 0)
(1.00864 -0.0103356 0)
(0.998224 -0.00382012 0)
(1.00064 -0.0108449 0)
(0.994064 -0.00890326 0)
(0.986314 -0.00131459 0)
(0.985686 -0.00091632 0)
(0.986595 0.0067297 0)
(0.987686 0.0115806 0)
(0.990496 0.0132343 0)
(0.993148 0.0159251 0)
(0.995664 0.0159286 0)
(0.999613 0.00411577 0)
(1.00387 -0.0017967 0)
(1.00212 5.58956e-06 0)
(1.00019 -0.00625422 0)
(0.993612 0.00138524 0)
(0.994014 0.0089145 0)
(1.00256 0.00733477 0)
(0.999737 0.00437789 0)
(1.00844 0.00396191 0)
(1.00822 -0.0098012 0)
(0.997794 -0.0039557 0)
(1.0002 -0.00994814 0)
(0.994453 -0.0086906 0)
(0.987191 -0.000853162 0)
(0.986223 -0.000586993 0)
(0.987069 0.00625452 0)
(0.988093 0.011582 0)
(0.991032 0.0128643 0)
(0.993649 0.0152755 0)
(0.995952 0.0156168 0)
(0.99974 0.00399597 0)
(1.00364 -0.00172235 0)
(1.00213 -2.71465e-05 0)
(1.00002 -0.00596493 0)
(0.993854 0.00145179 0)
(0.994331 0.00881385 0)
(1.00272 0.00693285 0)
(0.999796 0.00434347 0)
(1.00781 0.00364265 0)
(1.00783 -0.00927351 0)
(0.99742 -0.00407051 0)
(0.999678 -0.00907343 0)
(0.9948 -0.00847556 0)
(0.987927 -0.000477438 0)
(0.986761 -0.000143704 0)
(0.98764 0.00578331 0)
(0.988592 0.0114899 0)
(0.991506 0.0125695 0)
(0.994159 0.0145872 0)
(0.996243 0.0152351 0)
(0.999882 0.00387233 0)
(1.00335 -0.00163999 0)
(1.00221 -6.90873e-05 0)
(0.999728 -0.00565459 0)
(0.994028 0.00149499 0)
(0.99472 0.00870707 0)
(1.00296 0.00653305 0)
(1.00003 0.00431343 0)
(1.00733 0.00334891 0)
(1.00751 -0.00875708 0)
(0.997149 -0.00416243 0)
(0.999087 -0.00822855 0)
(0.99512 -0.00824151 0)
(0.988506 -0.000193547 0)
(0.98727 0.000379179 0)
(0.98827 0.00533951 0)
(0.989175 0.0112958 0)
(0.991914 0.0123431 0)
(0.994658 0.0139081 0)
(0.996549 0.0147574 0)
(1.00002 0.00374496 0)
(1.00305 -0.00154892 0)
(1.00236 -0.000119277 0)
(0.999334 -0.00532096 0)
(0.994156 0.00151034 0)
(0.995158 0.00858706 0)
(1.00321 0.00613601 0)
(1.0004 0.00428334 0)
(1.00698 0.00309906 0)
(1.00725 -0.00824999 0)
(0.997008 -0.00422799 0)
(0.998462 -0.0074133 0)
(0.995426 -0.00798152 0)
(0.988948 -3.24403e-06 0)
(0.987717 0.000949023 0)
(0.98891 0.0049407 0)
(0.989824 0.0109863 0)
(0.992263 0.012169 0)
(0.995116 0.0132866 0)
(0.996882 0.0141702 0)
(1.00015 0.00361452 0)
(1.00277 -0.00145106 0)
(1.00255 -0.000175461 0)
(0.99889 -0.00495976 0)
(0.994262 0.00149152 0)
(0.995605 0.00845068 0)
(1.00343 0.00574685 0)
(1.00086 0.00423772 0)
(1.00675 0.00289576 0)
(1.00704 -0.0077504 0)
(0.997007 -0.00425625 0)
(0.997841 -0.0066174 0)
(0.99573 -0.00768236 0)
(0.9893 9.70368e-05 0)
(0.988088 0.00153801 0)
(0.989511 0.00461464 0)
(0.990508 0.0105609 0)
(0.992562 0.0120101 0)
(0.995498 0.0127543 0)
(0.997235 0.013489 0)
(1.00024 0.00348072 0)
(1.00252 -0.00134718 0)
(1.00274 -0.000236001 0)
(0.998457 -0.00457055 0)
(0.994375 0.00144053 0)
(0.996018 0.00829256 0)
(1.00358 0.00536646 0)
(1.00131 0.00416461 0)
(1.00658 0.00274718 0)
(1.00688 -0.00724964 0)
(0.997137 -0.00424137 0)
(0.997265 -0.00584467 0)
(0.996037 -0.00733083 0)
(0.989622 0.000116459 0)
(0.988389 0.00211072 0)
(0.990044 0.00437373 0)
(0.991193 0.0100368 0)
(0.992825 0.0118312 0)
(0.99577 0.0123294 0)
(0.997582 0.0127521 0)
(1.0003 0.00334265 0)
(1.00232 -0.00123753 0)
(1.0029 -0.000296436 0)
(0.998086 -0.00416066 0)
(0.994518 0.00136383 0)
(0.996368 0.00810504 0)
(1.00366 0.00500587 0)
(1.00171 0.00405602 0)
(1.00642 0.00264555 0)
(1.00673 -0.00674287 0)
(0.997367 -0.00419478 0)
(0.996768 -0.00510231 0)
(0.996347 -0.00691795 0)
(0.989975 7.61574e-05 0)
(0.988645 0.00264453 0)
(0.990504 0.00422101 0)
(0.99186 0.0094295 0)
(0.993072 0.0115917 0)
(0.995913 0.0120102 0)
(0.997882 0.012023 0)
(1.00034 0.00320183 0)
(1.00216 -0.00112445 0)
(1.00302 -0.000360224 0)
(0.99781 -0.00372907 0)
(0.994709 0.00126728 0)
(0.996646 0.00789093 0)
(1.00364 0.00467571 0)
(1.002 0.0039029 0)
(1.00622 0.00258455 0)
(1.00656 -0.00623774 0)
(0.99766 -0.00411947 0)
(0.996373 -0.00438291 0)
(0.996657 -0.00644375 0)
(0.99041 -7.92467e-06 0)
(0.988891 0.00312297 0)
(0.9909 0.00417079 0)
(0.992503 0.00878022 0)
(0.993335 0.0112617 0)
(0.995943 0.0117674 0)
(0.998094 0.0113823 0)
(1.00036 0.00305592 0)
(1.00204 -0.00100386 0)
(1.00307 -0.000427363 0)
(0.997638 -0.00328459 0)
(0.994956 0.00116014 0)
(0.996865 0.00764998 0)
(1.00355 0.00438359 0)
(1.00218 0.00369859 0)
(1.00596 0.00255114 0)
(1.00636 -0.00573105 0)
(0.99798 -0.00401857 0)
(0.996083 -0.00369168 0)
(0.996958 -0.00590961 0)
(0.990954 -0.000124811 0)
(0.989169 0.00351364 0)
(0.991252 0.00420928 0)
(0.99313 0.00813933 0)
(0.993646 0.0108414 0)
(0.995905 0.0115551 0)
(0.998194 0.0108834 0)
(1.00038 0.0029053 0)
(1.00193 -0.00087789 0)
(1.00307 -0.000492943 0)
(0.997563 -0.00284014 0)
(0.995257 0.0010545 0)
(0.997044 0.00737314 0)
(1.00342 0.00414186 0)
(1.00226 0.00345417 0)
(1.00564 0.00253261 0)
(1.0061 -0.00521033 0)
(0.998297 -0.00390413 0)
(0.995895 -0.00304764 0)
(0.997236 -0.00531329 0)
(0.991607 -0.000232503 0)
(0.98951 0.00382008 0)
(0.991579 0.00432405 0)
(0.99375 0.00753657 0)
(0.994028 0.0103353 0)
(0.99586 0.0113096 0)
(0.998182 0.0105272 0)
(1.00039 0.00275104 0)
(1.00182 -0.000745412 0)
(1.00303 -0.000562305 0)
(0.997564 -0.00239779 0)
(0.9956 0.000962121 0)
(0.997204 0.0070616 0)
(1.00325 0.00395381 0)
(1.00227 0.0031815 0)
(1.00526 0.00251841 0)
(1.0058 -0.0046804 0)
(0.99859 -0.00376227 0)
(0.995794 -0.00245083 0)
(0.997485 -0.0046789 0)
(0.99235 -0.000333796 0)
(0.989934 0.00403174 0)
(0.991891 0.00450516 0)
(0.994361 0.00701396 0)
(0.994487 0.00977951 0)
(0.995861 0.0109985 0)
(0.998084 0.0102715 0)
(1.00041 0.00259219 0)
(1.00171 -0.000604679 0)
(1.00295 -0.000632329 0)
(0.997619 -0.00196992 0)
(0.99597 0.000891352 0)
(0.99736 0.00672153 0)
(1.00306 0.00380163 0)
(1.00223 0.00289957 0)
(1.00486 0.00248381 0)
(1.00546 -0.00415299 0)
(0.998856 -0.00361569 0)
(0.995763 -0.00190892 0)
(0.997692 -0.0039996 0)
(0.993149 -0.000415767 0)
(0.99045 0.00413813 0)
(0.992198 0.00470903 0)
(0.994955 0.00657205 0)
(0.995015 0.00919923 0)
(0.995941 0.010631 0)
(0.997947 0.0100554 0)
(1.00043 0.00242968 0)
(1.00158 -0.000457812 0)
(1.00286 -0.000702098 0)
(0.997707 -0.00156323 0)
(0.996352 0.000847545 0)
(0.997519 0.00635173 0)
(1.00288 0.00367982 0)
(1.00216 0.00263131 0)
(1.00445 0.00242847 0)
(1.0051 -0.0036229 0)
(0.999095 -0.00345062 0)
(0.995795 -0.00143537 0)
(0.997858 -0.00331219 0)
(0.993961 -0.000444322 0)
(0.991048 0.004185 0)
(0.9925 0.00494906 0)
(0.995515 0.00621481 0)
(0.995598 0.00859472 0)
(0.996111 0.0102132 0)
(0.997815 0.00980343 0)
(1.00046 0.00226608 0)
(1.00145 -0.000307872 0)
(1.00277 -0.000769591 0)
(0.997813 -0.00119347 0)
(0.99673 0.000846509 0)
(0.997686 0.0059656 0)
(1.00269 0.00358149 0)
(1.00209 0.00239096 0)
(1.00406 0.00235312 0)
(1.00472 -0.00310015 0)
(0.999315 -0.00326514 0)
(0.995872 -0.00101093 0)
(0.997984 -0.00260891 0)
(0.994763 -0.000443354 0)
(0.991723 0.00412317 0)
(0.992793 0.00520709 0)
(0.996011 0.00598925 0)
(0.996211 0.00799023 0)
(0.996362 0.00976624 0)
(0.997715 0.00949364 0)
(1.00049 0.00210071 0)
(1.00131 -0.000155427 0)
(1.00268 -0.000826659 0)
(0.997926 -0.000867431 0)
(0.997095 0.00087988 0)
(0.997857 0.00556736 0)
(1.00252 0.00349938 0)
(1.00201 0.00218235 0)
(1.00369 0.00225774 0)
(1.00433 -0.00258902 0)
(0.999525 -0.00306678 0)
(0.996003 -0.000671523 0)
(0.998073 -0.00191254 0)
(0.995507 -0.000345358 0)
(0.992461 0.00398647 0)
(0.993106 0.00538849 0)
(0.996424 0.00589202 0)
(0.996823 0.00744262 0)
(0.996681 0.00930083 0)
(0.997655 0.00916271 0)
(1.00051 0.00193532 0)
(1.00117 -5.32774e-06 0)
(1.00259 -0.0008767 0)
(0.99804 -0.00059469 0)
(0.997436 0.00096164 0)
(0.998032 0.0051694 0)
(1.00234 0.00340768 0)
(1.00194 0.00201792 0)
(1.00336 0.00214833 0)
(1.00396 -0.00210641 0)
(0.999723 -0.0028264 0)
(0.996176 -0.000380279 0)
(0.998154 -0.00128765 0)
(0.996196 -0.00019745 0)
(0.993224 0.00383368 0)
(0.993439 0.00553216 0)
(0.996765 0.00588137 0)
(0.997402 0.0070083 0)
(0.997046 0.0088325 0)
(0.99762 0.00887882 0)
(1.00053 0.00177366 0)
(1.00103 0.00014 0)
(1.00251 -0.00090126 0)
(0.998158 -0.000379955 0)
(0.997752 0.00106348 0)
(0.998199 0.004782 0)
(1.00218 0.0033238 0)
(1.00187 0.00187856 0)
(1.00307 0.00203256 0)
(1.0036 -0.001638 0)
(0.999921 -0.00259535 0)
(0.99639 -0.000141271 0)
(0.998215 -0.000657321 0)
(0.996817 -2.1025e-05 0)
(0.994021 0.00360786 0)
(0.993807 0.00556414 0)
(0.99703 0.00590947 0)
(0.997927 0.00666296 0)
(0.997451 0.00836032 0)
(0.997621 0.00863764 0)
(1.00054 0.00161066 0)
(1.00089 0.000281791 0)
(1.00243 -0.00091246 0)
(0.998275 -0.00021019 0)
(0.998041 0.00118759 0)
(0.998364 0.0044288 0)
(1.00202 0.00320878 0)
(1.0018 0.00178856 0)
(1.00282 0.00190434 0)
(1.00324 -0.00119999 0)
(1.0001 -0.00229742 0)
(0.996657 5.189e-06 0)
(0.998286 -0.000141341 0)
(0.997351 0.0002314 0)
(0.994804 0.00337589 0)
(0.994229 0.00547553 0)
(0.997255 0.00585896 0)
(0.998373 0.00625309 0)
(0.997879 0.00779596 0)
(0.997658 0.00831167 0)
(1.00055 0.00146051 0)
(1.00076 0.00040969 0)
(1.00236 -0.000893484 0)
(0.998402 -8.60348e-05 0)
(0.998309 0.00130537 0)
(0.998509 0.00410486 0)
(1.00187 0.00310265 0)
(1.00173 0.0017107 0)
(1.0026 0.00178927 0)
(1.00292 -0.000795887 0)
(1.00027 -0.00201561 0)
(0.996939 0.0001803 0)
(0.998375 0.000321932 0)
(0.997829 0.000427038 0)
(0.995572 0.00307661 0)
(0.994671 0.00528626 0)
(0.997413 0.00578089 0)
(0.998752 0.00583063 0)
(0.998346 0.00717117 0)
(0.997844 0.00790461 0)
(1.00056 0.00130635 0)
(1.00062 0.000528886 0)
(1.00228 -0.000850933 0)
(0.998526 3.01276e-06 0)
(0.998558 0.00139996 0)
(0.998654 0.0038352 0)
(1.00172 0.00297965 0)
(1.00165 0.0016667 0)
(1.00242 0.00167941 0)
(1.00261 -0.000419353 0)
(1.00042 -0.00170135 0)
(0.997272 0.000255488 0)
(0.998453 0.000720013 0)
(0.998201 0.000693123 0)
(0.996309 0.00282592 0)
(0.995186 0.00494343 0)
(0.997559 0.005621 0)
(0.999032 0.00546339 0)
(0.998818 0.0065967 0)
(0.99816 0.00750989 0)
(1.00057 0.00117069 0)
(1.00049 0.000625268 0)
(1.0022 -0.000774071 0)
(0.998662 5.1801e-05 0)
(0.998795 0.00148259 0)
(0.998775 0.00359457 0)
(1.00158 0.00286009 0)
(1.00158 0.00163388 0)
(1.00227 0.00158235 0)
(1.00233 -9.97013e-05 0)
(1.00053 -0.00136959 0)
(0.997597 0.000355341 0)
(0.998594 0.000990239 0)
(0.998535 0.000929048 0)
(0.996956 0.00266612 0)
(0.995686 0.00472174 0)
(0.997707 0.00553517 0)
(0.999283 0.00536116 0)
(0.999326 0.00631504 0)
(0.998609 0.00724552 0)
(1.00057 0.00104097 0)
(1.00036 0.000701909 0)
(1.00211 -0.000664341 0)
(0.998794 8.2849e-05 0)
(0.999018 0.00151808 0)
(0.998895 0.00338422 0)
(1.00144 0.00276057 0)
(1.00149 0.00160979 0)
(1.00214 0.00149324 0)
(1.00207 0.000198985 0)
(1.00064 -0.00103801 0)
(0.997943 0.000414414 0)
(0.998708 0.00121946 0)
(0.998806 0.0011581 0)
(0.997609 0.00250938 0)
(0.99627 0.00443942 0)
(0.997896 0.00542934 0)
(0.999482 0.00528766 0)
(0.999747 0.0060598 0)
(0.99901 0.00694232 0)
(1.00057 0.000918958 0)
(1.00024 0.000757891 0)
(1.00201 -0.000538386 0)
(0.99893 0.000102571 0)
(0.999238 0.00152735 0)
(0.998997 0.00320725 0)
(1.00131 0.00265572 0)
(1.0014 0.00161334 0)
(1.00203 0.00141664 0)
(1.00185 0.000450528 0)
(1.00069 -0.000695178 0)
(0.998265 0.000491745 0)
(0.998901 0.00140337 0)
(0.999044 0.00138752 0)
(0.998143 0.00242651 0)
(0.996831 0.00413551 0)
(0.998125 0.00525342 0)
(0.999679 0.00516339 0)
(1.00019 0.00574553 0)
(0.99951 0.00657228 0)
(1.00057 0.000820587 0)
(1.00012 0.000779951 0)
(1.00191 -0.00038108 0)
(0.999056 0.000115929 0)
(0.999448 0.00150204 0)
(0.999104 0.00303042 0)
(1.00118 0.00259089 0)
(1.00131 0.00161706 0)
(1.00194 0.00136343 0)
(1.00164 0.000674735 0)
(1.00075 -0.000359713 0)
(0.998591 0.000633958 0)
(0.999059 0.00150846 0)
(0.999244 0.00161781 0)
(0.998664 0.00251928 0)
(0.997425 0.00399875 0)
(0.9984 0.0051386 0)
(0.999833 0.00516351 0)
(1.00054 0.00555105 0)
(0.999972 0.00621064 0)
(1.00057 0.000722246 0)
(1.00002 0.000788404 0)
(1.0018 -0.000229313 0)
(0.999179 0.000148831 0)
(0.999654 0.00145629 0)
(0.999202 0.00286793 0)
(1.00106 0.00252165 0)
(1.0012 0.00165792 0)
(1.00186 0.00131258 0)
(1.00148 0.000867296 0)
(1.00077 1.12235e-05 0)
(0.998866 0.000745146 0)
(0.99929 0.00164349 0)
(0.999489 0.00189515 0)
(0.999104 0.00261187 0)
(0.997954 0.00385224 0)
(0.998698 0.0049772 0)
(0.999983 0.00509642 0)
(1.00082 0.00538318 0)
(1.0004 0.00588333 0)
(1.00057 0.000646461 0)
(0.999922 0.000772996 0)
(1.00169 -7.2754e-05 0)
(0.999287 0.000202819 0)
(0.999848 0.00137949 0)
(0.999309 0.00269476 0)
(1.00096 0.00247174 0)
(1.00109 0.00170338 0)
(1.0018 0.00130301 0)
(1.00136 0.00102432 0)
(1.0008 0.000333622 0)
(0.999146 0.000958255 0)
(0.999507 0.00176929 0)
(0.999677 0.00202645 0)
(0.999503 0.00267647 0)
(0.998494 0.00376523 0)
(0.999029 0.00483588 0)
(1.00014 0.0049892 0)
(1.00105 0.00521504 0)
(1.00076 0.00560637 0)
(1.00056 0.00057667 0)
(0.999839 0.000741622 0)
(1.00158 7.02088e-05 0)
(0.999384 0.000280609 0)
(1.00003 0.00130623 0)
(0.999419 0.00251696 0)
(1.00087 0.00240954 0)
(1.00098 0.00178325 0)
(1.00174 0.00131142 0)
(1.00127 0.00115687 0)
(1.00083 0.000644658 0)
(0.999378 0.00113486 0)
(0.999723 0.00184637 0)
(0.999913 0.00218691 0)
(0.999887 0.00278427 0)
(0.998978 0.00366299 0)
(0.999339 0.00464066 0)
(1.00027 0.00484316 0)
(1.00125 0.00498671 0)
(1.00104 0.00532249 0)
(1.00056 0.0005188 0)
(0.999769 0.000703172 0)
(1.00149 0.000204259 0)
(0.999465 0.000373169 0)
(1.0002 0.00123079 0)
(0.999538 0.00232768 0)
(1.00081 0.00234664 0)
(1.00087 0.00186544 0)
(1.00168 0.0013485 0)
(1.00121 0.00127251 0)
(1.00087 0.000900522 0)
(0.999601 0.00132915 0)
(0.999949 0.00197361 0)
(1.00012 0.0022967 0)
(1.0002 0.00279831 0)
(0.999425 0.00353501 0)
(0.999675 0.00443295 0)
(1.00041 0.00473952 0)
(1.00141 0.00479022 0)
(1.00133 0.00505335 0)
(1.00055 0.000469622 0)
(0.99971 0.000659628 0)
(1.00139 0.00030993 0)
(0.999534 0.000471231 0)
(1.00035 0.00117507 0)
(0.99966 0.00214878 0)
(1.00077 0.0022556 0)
(1.00077 0.00194834 0)
(1.00162 0.00141939 0)
(1.00117 0.0013737 0)
(1.00092 0.00112292 0)
(0.999803 0.00151618 0)
(1.00015 0.00205881 0)
(1.00032 0.00236227 0)
(1.00051 0.00283708 0)
(0.999842 0.00347079 0)
(1.00003 0.00423822 0)
(1.00055 0.00461476 0)
(1.00152 0.00468269 0)
(1.00162 0.00479173 0)
(1.00055 0.000426216 0)
(0.999661 0.000617803 0)
(1.00131 0.000395735 0)
(0.999592 0.000569185 0)
(1.00048 0.00113792 0)
(0.999782 0.00197646 0)
(1.00076 0.00214708 0)
(1.00068 0.002023 0)
(1.00156 0.00149919 0)
(1.00115 0.00147148 0)
(1.00098 0.00131812 0)
(0.99999 0.00167576 0)
(1.00034 0.0021565 0)
(1.00052 0.002449 0)
(1.00079 0.00285149 0)
(1.00021 0.00340667 0)
(1.00036 0.00405145 0)
(1.00075 0.00442868 0)
(1.0016 0.00461401 0)
(1.00185 0.0045691 0)
(1.00054 0.000389179 0)
(0.99962 0.000579218 0)
(1.00124 0.000459481 0)
(0.999644 0.000656747 0)
(1.00059 0.00112303 0)
(0.999899 0.00182777 0)
(1.00078 0.00202445 0)
(1.00061 0.00206678 0)
(1.0015 0.00159216 0)
(1.00114 0.00157985 0)
(1.00105 0.00148284 0)
(1.00017 0.00182363 0)
(1.00053 0.0022464 0)
(1.0007 0.00251096 0)
(1.00104 0.00284663 0)
(1.00055 0.0033437 0)
(1.00067 0.00392876 0)
(1.00098 0.00423491 0)
(1.00169 0.00449666 0)
(1.002 0.00443582 0)
(1.00053 0.000356993 0)
(0.999587 0.000543717 0)
(1.00118 0.000510865 0)
(0.999691 0.000733064 0)
(1.00068 0.00112269 0)
(1.00001 0.00170498 0)
(1.00083 0.00189504 0)
(1.00057 0.00208245 0)
(1.00145 0.0016804 0)
(1.00114 0.00167505 0)
(1.00112 0.00162573 0)
(1.00034 0.0019572 0)
(1.0007 0.00231621 0)
(1.00087 0.00257326 0)
(1.00128 0.00286127 0)
(1.00087 0.00326758 0)
(1.00096 0.00381408 0)
(1.0012 0.00406636 0)
(1.00181 0.0043104 0)
(1.00211 0.00434048 0)
(1.00052 0.000329104 0)
(0.999559 0.000511981 0)
(1.00113 0.000552115 0)
(0.999736 0.000797177 0)
(1.00076 0.0011266 0)
(1.0001 0.00162151 0)
(1.00089 0.00177474 0)
(1.00056 0.00206433 0)
(1.0014 0.00174256 0)
(1.00115 0.00176399 0)
(1.0012 0.00174664 0)
(1.00049 0.00207176 0)
(1.00086 0.00238557 0)
(1.00103 0.00261351 0)
(1.00148 0.00286891 0)
(1.00117 0.00319313 0)
(1.00124 0.0036757 0)
(1.0014 0.00394759 0)
(1.00196 0.004131 0)
(1.00222 0.0042213 0)
(1.00052 0.000305382 0)
(0.999537 0.000485125 0)
(1.00109 0.000584332 0)
(0.999779 0.000850739 0)
(1.00083 0.00113486 0)
(1.00019 0.00156953 0)
(1.00095 0.00166806 0)
(1.00057 0.00202351 0)
(1.00138 0.00178863 0)
(1.00116 0.00184171 0)
(1.00129 0.00183615 0)
(1.00065 0.00215702 0)
(1.00101 0.00244462 0)
(1.00118 0.00263745 0)
(1.00167 0.00285762 0)
(1.00144 0.00314724 0)
(1.00152 0.0035438 0)
(1.0016 0.00382699 0)
(1.0021 0.00398614 0)
(1.00233 0.00405645 0)
(1.00051 0.000284753 0)
(0.999519 0.000461949 0)
(1.00105 0.000612591 0)
(0.999822 0.000896212 0)
(1.00088 0.00114075 0)
(1.00026 0.00153836 0)
(1.00102 0.00158728 0)
(1.0006 0.00197459 0)
(1.00137 0.00181111 0)
(1.00118 0.0018944 0)
(1.00138 0.00190368 0)
(1.0008 0.00221274 0)
(1.00115 0.00247906 0)
(1.00131 0.00266778 0)
(1.00184 0.00283564 0)
(1.00168 0.00309584 0)
(1.00177 0.00342935 0)
(1.00181 0.0036756 0)
(1.00222 0.00385837 0)
(1.00243 0.00390153 0)
(1.0005 0.000267555 0)
(0.999505 0.000442028 0)
(1.00102 0.000638707 0)
(0.999863 0.000933068 0)
(1.00093 0.00114431 0)
(1.00032 0.00151912 0)
(1.00108 0.00152843 0)
(1.00064 0.00192266 0)
(1.00137 0.00181202 0)
(1.00121 0.00193388 0)
(1.00147 0.00194892 0)
(1.00095 0.00224743 0)
(1.00129 0.00249018 0)
(1.00143 0.00267973 0)
(1.00199 0.00281069 0)
(1.0019 0.00301877 0)
(1.002 0.00332763 0)
(1.00201 0.00353426 0)
(1.00236 0.00372166 0)
(1.00253 0.00377999 0)
(1.0005 0.000253261 0)
(0.999494 0.000425976 0)
(1.001 0.000662103 0)
(0.999903 0.000963265 0)
(1.00098 0.00114714 0)
(1.00037 0.00150196 0)
(1.00114 0.00148261 0)
(1.00069 0.00187932 0)
(1.00139 0.00180073 0)
(1.00124 0.00195728 0)
(1.00156 0.00197358 0)
(1.00109 0.00226351 0)
(1.00142 0.002486 0)
(1.00154 0.00266656 0)
(1.00211 0.00278601 0)
(1.0021 0.00294469 0)
(1.00222 0.00321705 0)