/*--------------------------------*- C++ -*----------------------------------*\
| =========                 |                                                 |
| \\      /  F ield         | OpenFOAM: The Open Source CFD Toolbox           |
|  \\    /   O peration     | Version:  v1912                                 |
|   \\  /    A nd           | Website:  www.openfoam.com                      |
|    \\/     M anipulation  |                                                 |
\*---------------------------------------------------------------------------*/
FoamFile
{
    version     2.0;
    format      ascii;
    class       volVectorField;
    location    "4.6";
    object      U;
}
// * * * * * * * * * * * * * * * * * * * * * * * * * * * * * * * * * * * * * //

dimensions      [0 1 -1 0 0 0 0];


internalField   nonuniform List<vector> 
9600
(
(0.963677 0.00938532 0)
(1.06835 -0.0125487 0)
(0.884513 0.0106769 0)
(1.13612 -0.00423416 0)
(0.860911 -0.0138191 0)
(1.00543 0.0126644 0)
(0.999877 0.0270266 0)
(1.07037 -0.0200407 0)
(0.804382 0.027549 0)
(1.1875 -0.00403598 0)
(0.675279 0.00318687 0)
(1.22873 0.0210546 0)
(0.717246 -0.00218157 0)
(1.17129 0.0120158 0)
(0.837096 -0.0152626 0)
(1.13713 -0.00290223 0)
(0.876405 -0.013889 0)
(1.14086 -0.00341782 0)
(0.890309 -0.0034791 0)
(1.14956 0.00120512 0)
(0.96583 0.00914549 0)
(1.06262 -0.0118088 0)
(0.888975 0.0100845 0)
(1.12354 -0.00382266 0)
(0.869128 -0.0127043 0)
(1.0033 0.0117063 0)
(1.00257 0.0262236 0)
(1.06694 -0.017142 0)
(0.814367 0.0261517 0)
(1.1665 -0.00120554 0)
(0.69878 0.00200051 0)
(1.19659 0.02085 0)
(0.786522 -0.00123433 0)
(1.11923 0.00991896 0)
(0.914793 -0.0144787 0)
(1.07965 -0.00389863 0)
(0.958759 -0.0137629 0)
(1.06494 -0.00422069 0)
(0.994926 -0.0030617 0)
(1.03973 0.00152974 0)
(0.970029 0.00891982 0)
(1.05464 -0.0111842 0)
(0.898861 0.00942671 0)
(1.10376 -0.00349996 0)
(0.887491 -0.0118098 0)
(0.995924 0.0102894 0)
(1.00737 0.0255103 0)
(1.05804 -0.0150057 0)
(0.837693 0.0243459 0)
(1.13412 0.0005079 0)
(0.753865 0.000996654 0)
(1.13186 0.0197641 0)
(0.872797 -0.000113637 0)
(1.05197 0.0076463 0)
(0.965996 -0.0137189 0)
(1.02593 -0.0049775 0)
(0.990115 -0.0132337 0)
(1.02074 -0.00539995 0)
(1.0125 -0.00229873 0)
(1.01764 0.0015663 0)
(0.975734 0.0087387 0)
(1.04541 -0.0106275 0)
(0.913678 0.00895821 0)
(1.07955 -0.00331297 0)
(0.914035 -0.0110004 0)
(0.983722 0.00913905 0)
(1.0103 0.0248205 0)
(1.0452 -0.0131128 0)
(0.872097 0.023102 0)
(1.09622 0.00175378 0)
(0.824767 0.000934915 0)
(1.05991 0.0179249 0)
(0.937112 0.00107652 0)
(1.0046 0.00620165 0)
(0.982374 -0.0133519 0)
(0.998912 -0.00552032 0)
(0.989543 -0.013081 0)
(1.00212 -0.00605441 0)
(1.00505 -0.00210514 0)
(1.00746 0.00168523 0)
(0.982156 0.00857883 0)
(1.03586 -0.0101329 0)
(0.931473 0.00865293 0)
(1.05468 -0.003268 0)
(0.942252 -0.0102213 0)
(0.970975 0.00831384 0)
(1.00905 0.0241275 0)
(1.03207 -0.0116143 0)
(0.909414 0.0224093 0)
(1.0609 0.0024955 0)
(0.889041 0.00152395 0)
(1.00754 0.0162071 0)
(0.971256 0.00187106 0)
(0.985009 0.00551356 0)
(0.983819 -0.0132179 0)
(0.988129 -0.00585271 0)
(0.986476 -0.0129058 0)
(0.992641 -0.00674816 0)
(0.999213 -0.00197406 0)
(1.00108 0.00170046 0)
(0.988453 0.00843466 0)
(1.02691 -0.0097174 0)
(0.949519 0.00847519 0)
(1.03302 -0.00333451 0)
(0.965587 -0.00949518 0)
(0.96278 0.00777199 0)
(1.0049 0.0234306 0)
(1.0219 -0.0105448 0)
(0.940345 0.0220226 0)
(1.03453 0.00285664 0)
(0.935123 0.00232776 0)
(0.983048 0.0149723 0)
(0.985678 0.00219991 0)
(0.983148 0.00523536 0)
(0.984424 -0.0130122 0)
(0.98391 -0.00622243 0)
(0.98582 -0.0126964 0)
(0.988566 -0.00736429 0)
(0.995363 -0.00204005 0)
(0.999439 0.00162792 0)
(0.993967 0.0083057 0)
(1.01924 -0.00938586 0)
(0.96546 0.00840417 0)
(1.01691 -0.00344958 0)
(0.980773 -0.00887054 0)
(0.961435 0.00746825 0)
(1.001 0.0227425 0)
(1.01557 -0.00984122 0)
(0.960236 0.021835 0)
(1.01871 0.00299913 0)
(0.963458 0.00304375 0)
(0.978264 0.014196 0)
(0.992198 0.00225984 0)
(0.988125 0.00509377 0)
(0.987277 -0.0126398 0)
(0.983003 -0.00658517 0)
(0.985227 -0.01249 0)
(0.986841 -0.00789389 0)
(0.992396 -0.002213 0)
(0.998693 0.00145765 0)
(0.998367 0.00818921 0)
(1.01311 -0.00912807 0)
(0.978098 0.00840632 0)
(1.00663 -0.00355211 0)
(0.988229 -0.00837431 0)
(0.965579 0.00732049 0)
(0.999702 0.022101 0)
(1.01187 -0.00935417 0)
(0.970308 0.0217666 0)
(1.01114 0.00301719 0)
(0.979488 0.00358612 0)
(0.982064 0.0137158 0)
(0.997115 0.00222931 0)
(0.994328 0.0049672 0)
(0.991422 -0.0121195 0)
(0.984281 -0.00681855 0)
(0.98454 -0.0122321 0)
(0.98513 -0.00837548 0)
(0.989639 -0.00243741 0)
(0.996785 0.00116196 0)
(1.00162 0.00808215 0)
(1.00844 -0.0089278 0)
(0.987395 0.00844211 0)
(1.00101 -0.00359768 0)
(0.990455 -0.00800739 0)
(0.972114 0.00722547 0)
(1.00135 0.0215427 0)
(1.00911 -0.00894055 0)
(0.974769 0.0217249 0)
(1.00832 0.0029434 0)
(0.988436 0.00396026 0)
(0.987896 0.0133752 0)
(1.0021 0.00217786 0)
(0.999953 0.00483681 0)
(0.995987 -0.0114775 0)
(0.986912 -0.00688381 0)
(0.984696 -0.0118876 0)
(0.9835 -0.00875349 0)
(0.986853 -0.00268072 0)
(0.99379 0.000766784 0)
(1.00385 0.00798255 0)
(1.00496 -0.00877005 0)
(0.993947 0.00848147 0)
(0.998504 -0.00356603 0)
(0.990174 -0.0077529 0)
(0.97841 0.00710091 0)
(1.0048 0.0210892 0)
(1.00639 -0.00851623 0)
(0.977469 0.0216418 0)
(1.00758 0.00281056 0)
(0.993763 0.00419111 0)
(0.993426 0.0130705 0)
(1.00685 0.00211995 0)
(1.0046 0.00472387 0)
(1.00046 -0.0107626 0)
(0.990266 -0.00682582 0)
(0.986075 -0.0114081 0)
(0.982892 -0.00895706 0)
(0.984548 -0.0028882 0)
(0.990527 0.000329492 0)
(1.00524 0.00788943 0)
(1.00243 -0.00864296 0)
(0.99843 0.00850643 0)
(0.997883 -0.00345816 0)
(0.989286 -0.00758248 0)
(0.983183 0.00690923 0)
(1.00859 0.020741 0)
(1.00373 -0.00805803 0)
(0.980341 0.021486 0)
(1.00756 0.00264824 0)
(0.997367 0.00430583 0)
(0.998126 0.01275 0)
(1.0107 0.00207282 0)
(1.00813 0.00462749 0)
(1.00432 -0.0100278 0)
(0.993805 -0.00666305 0)
(0.988418 -0.0107854 0)
(0.983679 -0.00898855 0)
(0.983345 -0.00302736 0)
(0.98785 -6.0486e-05 0)
(1.00595 0.00780228 0)
(1.00066 -0.00853721 0)
(1.00134 0.00850651 0)
(0.998355 -0.00328685 0)
(0.988728 -0.00746352 0)
(0.986214 0.00664985 0)
(1.01167 0.020478 0)
(1.00164 -0.00757263 0)
(0.983573 0.0212543 0)
(1.0079 0.00249718 0)
(1.00009 0.00431284 0)
(1.00185 0.0124266 0)
(1.01328 0.00203674 0)
(1.01041 0.00453458 0)
(1.00715 -0.00930372 0)
(0.997017 -0.00641754 0)
(0.99117 -0.0100905 0)
(0.985537 -0.00888203 0)
(0.983408 -0.00304701 0)
(0.986261 -0.000316261 0)
(1.00613 0.00772056 0)
(0.999509 -0.00844492 0)
(1.00301 0.0084757 0)
(0.999457 -0.00307001 0)
(0.988789 -0.00736526 0)
(0.987803 0.00634181 0)
(1.01355 0.0202661 0)
(1.00053 -0.00707422 0)
(0.98656 0.0209555 0)
(1.00857 0.00238266 0)
(1.00218 0.00423029 0)
(1.00446 0.012125 0)
(1.01464 0.00202175 0)
(1.0114 0.00445596 0)
(1.00877 -0.00862072 0)
(0.99952 -0.00615124 0)
(0.993752 -0.00936965 0)
(0.987845 -0.00865651 0)
(0.984444 -0.00293522 0)
(0.985781 -0.000432109 0)
(1.0059 0.00764333 0)
(0.998919 -0.00835879 0)
(1.00369 0.00841096 0)
(1.00089 -0.00282618 0)
(0.989449 -0.00726371 0)
(0.988387 0.00601082 0)
(1.01423 0.0200675 0)
(1.00034 -0.00657175 0)
(0.988822 0.0206022 0)
(1.00944 0.00230466 0)
(1.00364 0.00409212 0)
(1.00591 0.0118545 0)
(1.01509 0.00203085 0)
(1.01134 0.00439369 0)
(1.00929 -0.00799739 0)
(1.00119 -0.00590194 0)
(0.995773 -0.00863955 0)
(0.990035 -0.008351 0)
(0.985985 -0.00272776 0)
(0.986105 -0.000426789 0)
(1.00537 0.00756879 0)
(0.998857 -0.00827166 0)
(1.00359 0.00831185 0)
(1.0024 -0.00257209 0)
(0.990591 -0.00714391 0)
(0.988347 0.00568315 0)
(1.01399 0.0198504 0)
(1.00068 -0.00606745 0)
(0.990383 0.0202012 0)
(1.01026 0.00226386 0)
(1.00448 0.00392063 0)
(1.00633 0.0116192 0)
(1.01504 0.0020553 0)
(1.01064 0.00435217 0)
(1.00901 -0.0074343 0)
(1.00215 -0.00568183 0)
(0.997138 -0.00791581 0)
(0.991788 -0.00801762 0)
(0.987643 -0.00245373 0)
(0.986841 -0.000315268 0)
(1.00463 0.00749418 0)
(0.999269 -0.00817688 0)
(1.00289 0.00818162 0)
(1.00374 -0.00232361 0)
(0.992075 -0.00699621 0)
(0.98794 0.00537875 0)
(1.01314 0.0195986 0)
(1.00109 -0.00556581 0)
(0.991564 0.0197553 0)
(1.01076 0.00226332 0)
(1.00477 0.00373869 0)
(1.00607 0.0114113 0)
(1.01476 0.00209164 0)
(1.00976 0.00434158 0)
(1.0083 -0.00692391 0)
(1.00262 -0.00550045 0)
(0.997986 -0.00719651 0)
(0.993047 -0.0076957 0)
(0.989196 -0.0021426 0)
(0.987689 -0.000130256 0)
(1.00378 0.00741615 0)
(1.00003 -0.00806888 0)
(1.00182 0.00802688 0)
(1.00473 -0.00209409 0)
(0.993739 -0.00681734 0)
(0.987347 0.00511365 0)
(1.01189 0.019305 0)
(1.00134 -0.00507431 0)
(0.99256 0.0192721 0)
(1.01087 0.00231075 0)
(1.00465 0.00354785 0)
(1.00546 0.0112273 0)
(1.0144 0.00212646 0)
(1.00901 0.00436492 0)
(1.00747 -0.00644061 0)
(1.00277 -0.00536839 0)
(0.998515 -0.00646741 0)
(0.993917 -0.00739877 0)
(0.990556 -0.00184145 0)
(0.988493 0.000111641 0)
(1.00293 0.00733169 0)
(1.00094 -0.00794393 0)
(1.00061 0.00785595 0)
(1.0053 -0.00189277 0)
(0.995396 -0.0066089 0)
(0.986739 0.00489898 0)
(1.01038 0.01897 0)
(1.00145 -0.00459809 0)
(0.993315 0.018758 0)
(1.01063 0.00241447 0)
(1.0043 0.00334442 0)
(1.00471 0.0110557 0)
(1.01398 0.00214999 0)
(1.00848 0.00440956 0)
(1.0067 -0.00595942 0)
(1.00272 -0.00530003 0)
(0.99885 -0.0057224 0)
(0.994533 -0.00711537 0)
(0.991702 -0.00157732 0)
(0.989215 0.000425154 0)
(1.00219 0.00723884 0)
(1.0018 -0.00780021 0)
(0.999506 0.00767539 0)
(1.00551 -0.00172164 0)
(0.996872 -0.00637778 0)
(0.986287 0.00474331 0)
(1.00877 0.0185947 0)
(1.00149 -0.00413545 0)
(0.993705 0.0182147 0)
(1.01017 0.00257375 0)
(1.00389 0.00312879 0)
(1.0039 0.010888 0)
(1.01349 0.00215431 0)
(1.00817 0.0044716 0)
(1.00609 -0.00546251 0)
(1.00255 -0.00528217 0)
(0.999046 -0.00497406 0)
(0.994998 -0.00682244 0)
(0.992641 -0.00137516 0)
(0.989864 0.000812335 0)
(1.00161 0.00713698 0)
(1.0025 -0.0076376 0)
(0.998636 0.0074881 0)
(1.00546 -0.00157571 0)
(0.998056 -0.00613342 0)
(0.986099 0.00464773 0)
(1.00725 0.0181826 0)
(1.00151 -0.00368034 0)
(0.99373 0.0176446 0)
(1.00961 0.00277123 0)
(1.00357 0.00289867 0)
(1.00311 0.0107244 0)
(1.01292 0.00213624 0)
(1.00802 0.00452709 0)
(1.00569 -0.00491837 0)
(1.00236 -0.00530626 0)
(0.999141 -0.00424202 0)
(0.995376 -0.00649206 0)
(0.993396 -0.00126481 0)
(0.990456 0.00125499 0)
(1.00119 0.00702642 0)
(1.00299 -0.00745746 0)
(0.99804 0.00729562 0)
(1.0053 -0.00144823 0)
(0.998924 -0.0058833 0)
(0.986188 0.0046049 0)
(1.00599 0.0177417 0)
(1.00152 -0.00322457 0)
(0.993524 0.0170475 0)
(1.00903 0.00300005 0)
(1.00336 0.00265545 0)
(1.0024 0.0105606 0)
(1.01226 0.00210483 0)
(1.008 0.00454576 0)
(1.00548 -0.00431367 0)
(1.00224 -0.00536461 0)
(0.999187 -0.00354575 0)
(0.995717 -0.00609647 0)
(0.994007 -0.00124997 0)
(0.991005 0.00171847 0)
(1.00092 0.00690768 0)
(1.00329 -0.00726072 0)
(0.997676 0.00709623 0)
(1.0051 -0.00132947 0)
(0.999522 -0.00563541 0)
(0.986485 0.00460704 0)
(1.00505 0.017278 0)
(1.0015 -0.00275813 0)
(0.99325 0.0164286 0)
(1.00848 0.00324819 0)
(1.00323 0.00240167 0)
(1.00179 0.0104007 0)
(1.01153 0.00206395 0)
(1.00804 0.00450999 0)
(1.00542 -0.00364682 0)
(1.00221 -0.00542086 0)
(0.99924 -0.00290582 0)
(0.996063 -0.00560775 0)
(0.994518 -0.00132425 0)
(0.99152 0.00215454 0)
(1.00076 0.00678123 0)
(1.00344 -0.00704792 0)
(0.997477 0.00688694 0)
(1.00491 -0.00121162 0)
(0.999923 -0.00539403 0)
(0.986892 0.00464456 0)
(1.00436 0.0167954 0)
(1.00149 -0.00227221 0)
(0.993027 0.0157848 0)
(1.00799 0.00350623 0)
(1.00311 0.00213894 0)
(1.00127 0.0102389 0)
(1.01076 0.00202269 0)
(1.0081 0.00439632 0)
(1.00545 -0.00291941 0)
(1.00231 -0.00545045 0)
(0.999335 -0.00235006 0)
(0.996438 -0.00499993 0)
(0.994981 -0.00146622 0)
(0.992023 0.00250915 0)
(1.00068 0.00664735 0)
(1.00348 -0.00681942 0)
(0.997384 0.00666574 0)
(1.00474 -0.00109137 0)
(1.00019 -0.00515742 0)
(0.987321 0.00470515 0)
(1.00386 0.0163014 0)
(1.00154 -0.0017717 0)
(0.992919 0.0151197 0)
(1.00756 0.00377859 0)
(1.00297 0.00187506 0)
(1.00081 0.0100696 0)
(1.00996 0.00198998 0)
(1.00815 0.00419016 0)
(1.00551 -0.00214928 0)
(1.00251 -0.00543069 0)
(0.999491 -0.00190541 0)
(0.996838 -0.00427225 0)
(0.995438 -0.00161426 0)
(0.992545 0.00274177 0)
(1.00069 0.00650634 0)
(1.00343 -0.00657527 0)
(0.997363 0.00642969 0)
(1.00459 -0.000964144 0)
(1.00037 -0.00492687 0)
(0.987722 0.00478719 0)
(1.00344 0.0157905 0)
(1.00169 -0.00125764 0)
(0.992951 0.0144425 0)
(1.00717 0.00406233 0)
(1.00282 0.00161855 0)
(1.00036 0.00988695 0)
(1.00915 0.00197619 0)
(1.00814 0.00389108 0)
(1.00551 -0.00135739 0)
(1.00278 -0.00532909 0)
(0.999714 -0.0015874 0)
(0.997243 -0.00345216 0)
(0.995915 -0.00170212 0)
(0.993115 0.00281933 0)
(1.00075 0.00635839 0)
(1.00329 -0.00631501 0)
(0.997405 0.00617771 0)
(1.00442 -0.000827818 0)
(1.00046 -0.00470248 0)
(0.98808 0.00488919 0)
(1.00306 0.0152621 0)
(1.00195 -0.00073725 0)
(0.993134 0.0137572 0)
(1.00681 0.00435551 0)
(1.00271 0.00137599 0)
(0.999921 0.00968529 0)
(1.00836 0.00199549 0)
(1.00807 0.00350523 0)
(1.00539 -0.000577208 0)
(1.00305 -0.00512487 0)
(0.999997 -0.00139524 0)
(0.997623 -0.00259114 0)
(0.996409 -0.00166816 0)
(0.993756 0.00272669 0)
(1.00087 0.00620324 0)
(1.00311 -0.0060369 0)
(0.997515 0.00590683 0)
(1.00422 -0.000677761 0)
(1.00046 -0.00448127 0)
(0.988412 0.00500017 0)
(1.0027 0.0147203 0)
(1.00232 -0.000222462 0)
(0.993463 0.0130771 0)
(1.00647 0.00466027 0)
(1.0027 0.00115752 0)
(0.999515 0.00945349 0)
(1.00761 0.00206084 0)
(1.00792 0.00304058 0)
(1.00515 0.000143712 0)
(1.00324 -0.00480778 0)
(1.00032 -0.00131701 0)
(0.997956 -0.0017491 0)
(0.996893 -0.00145948 0)
(0.994466 0.0024851 0)
(1.00102 0.00604052 0)
(1.00288 -0.00574198 0)
(0.997699 0.00561838 0)
(1.00398 -0.000511702 0)
(1.00037 -0.00426306 0)
(0.988748 0.00511763 0)
(1.00236 0.0141582 0)
(1.00273 0.000277812 0)
(0.993926 0.0124135 0)
(1.00615 0.0049733 0)
(1.00284 0.000969906 0)
(0.999172 0.00919002 0)
(1.00692 0.00216809 0)
(1.00772 0.00253066 0)
(1.00478 0.000802986 0)
(1.00331 -0.00437104 0)
(1.00065 -0.00133129 0)
(0.998234 -0.000978791 0)
(0.997318 -0.00107207 0)
(0.995215 0.00215341 0)
(1.00117 0.00587131 0)
(1.00265 -0.0054325 0)
(0.997956 0.00531393 0)
(1.00368 -0.000327748 0)
(1.0002 -0.00404829 0)
(0.989112 0.00523651 0)
(1.00205 0.0135817 0)
(1.00315 0.000749268 0)
(0.994495 0.0117714 0)
(1.00584 0.00528111 0)
(1.00314 0.000817382 0)
(0.998918 0.00889777 0)
(1.00632 0.00233064 0)
(1.00748 0.00200219 0)
(1.00433 0.00137948 0)
(1.00321 -0.00381546 0)
(1.00095 -0.00140503 0)
(0.998459 -0.000329889 0)
(0.997641 -0.000538204 0)
(0.995956 0.00182335 0)
(1.00131 0.00569475 0)
(1.00243 -0.0051085 0)
(0.998272 0.00499374 0)
(1.00334 -0.000118794 0)
(0.999969 -0.003841 0)
(0.989515 0.0053482 0)
(1.00178 0.0129979 0)
(1.00353 0.00118449 0)
(0.99513 0.0111647 0)
(1.00557 0.00557288 0)
(1.00358 0.000705555 0)
(0.998774 0.00857742 0)
(1.00581 0.00254576 0)
(1.00723 0.00148412 0)
(1.00384 0.00183992 0)
(1.00294 -0.00314694 0)
(1.00119 -0.00150225 0)
(0.998644 0.000180462 0)
(0.997835 0.000118475 0)
(0.996628 0.00160018 0)
(1.0014 0.00551054 0)
(1.00226 -0.00477203 0)
(0.998624 0.00466087 0)
(1.00296 0.00011608 0)
(0.999733 -0.00364127 0)
(0.989954 0.00544667 0)
(1.00154 0.0124164 0)
(1.00383 0.00157474 0)
(0.995786 0.0105919 0)
(1.00532 0.00584665 0)
(1.0041 0.000642169 0)
(0.998742 0.00823203 0)
(1.00535 0.00280873 0)
(1.00699 0.00101192 0)
(1.00338 0.00218235 0)
(1.00254 -0.00239265 0)
(1.00136 -0.00156883 0)
(0.998823 0.000523277 0)
(0.997911 0.000829929 0)
(0.997173 0.00155497 0)
(1.00144 0.00531889 0)
(1.00213 -0.00442492 0)
(0.998987 0.00431688 0)
(1.00258 0.000376958 0)
(0.999529 -0.00344758 0)
(0.990415 0.00552587 0)
(1.00132 0.0118468 0)
(1.00406 0.00190919 0)
(0.996418 0.0100557 0)
(1.00509 0.00609836 0)
(1.00465 0.000618719 0)
(0.998818 0.00786067 0)
(1.00494 0.00311774 0)
(1.00679 0.000607831 0)
(1.00299 0.00239818 0)
(1.00206 -0.00158888 0)
(1.00145 -0.00155416 0)
(0.999025 0.000687464 0)
(0.997913 0.00150119 0)
(0.99756 0.0017031 0)
(1.00145 0.00511922 0)
(1.00204 -0.00406931 0)
(0.999336 0.00396719 0)
(1.0022 0.00065872 0)
(0.999385 -0.00325738 0)
(0.990887 0.00557638 0)
(1.00112 0.0113008 0)
(1.0042 0.00218642 0)
(0.996996 0.00955598 0)
(1.00485 0.0063185 0)
(1.00516 0.000641639 0)
(0.998986 0.00747347 0)
(1.00454 0.00345981 0)
(1.00663 0.00029069 0)
(1.0027 0.00249419 0)
(1.00155 -0.000763893 0)
(1.00148 -0.0014304 0)
(0.999277 0.000707905 0)
(0.997908 0.0020707 0)
(0.99779 0.0020395 0)
(1.00141 0.00491219 0)
(1.00199 -0.00370796 0)
(0.999657 0.00361403 0)
(1.00184 0.000959439 0)
(0.999313 -0.00306809 0)
(0.991365 0.00559879 0)
(1.00094 0.0107848 0)
(1.00428 0.00240503 0)
(0.997505 0.00907685 0)
(1.00459 0.00650899 0)
(1.00558 0.000704873 0)
(0.999227 0.00706309 0)
(1.00413 0.00382489 0)
(1.0065 7.82554e-05 0)
(1.00254 0.00248165 0)
(1.00106 3.40615e-05 0)
(1.00145 -0.00117861 0)
(0.999594 0.00064 0)
(0.997969 0.00248197 0)
(0.997906 0.00249358 0)
(1.00136 0.00469662 0)
(1.00195 -0.00333844 0)
(0.999944 0.00325785 0)
(1.00152 0.00127246 0)
(0.999308 -0.00287507 0)
(0.991851 0.0055822 0)
(1.00076 0.0103106 0)
(1.00431 0.00257114 0)
(0.997946 0.00861863 0)
(1.0043 0.00666813 0)
(1.0059 0.000802035 0)
(0.999524 0.00662854 0)
(1.00372 0.00419348 0)
(1.00638 -1.24189e-05 0)
(1.0025 0.00237661 0)
(1.00063 0.000786971 0)
(1.00138 -0.000802475 0)
(0.999966 0.000550172 0)
(0.998142 0.00272243 0)
(0.997972 0.00295401 0)
(1.0013 0.00447358 0)
(1.00191 -0.00296479 0)
(1.0002 0.0029028 0)
(1.00125 0.00158813 0)
(0.999358 -0.00266651 0)
(0.992347 0.00552382 0)
(1.00058 0.00987922 0)
(1.0043 0.00269751 0)
(0.99833 0.00817464 0)
(1.00397 0.0068047 0)
(1.00611 0.000935505 0)
(0.999859 0.00619022 0)
(1.0033 0.0045413 0)
(1.00625 2.33705e-05 0)
(1.00258 0.00219324 0)
(1.00029 0.00148031 0)
(1.00126 -0.000317461 0)
(1.00037 0.000487005 0)
(0.998446 0.00282365 0)
(0.998053 0.00335627 0)
(1.00125 0.00424432 0)
(1.00187 -0.00258593 0)
(1.00042 0.00254803 0)
(1.00101 0.0018991 0)
(0.999448 -0.00244111 0)
(0.992858 0.0054211 0)
(1.00042 0.00950475 0)
(1.00425 0.00278615 0)
(0.998675 0.00773732 0)
(1.00362 0.00691825 0)
(1.00621 0.00109994 0)
(1.00022 0.00574567 0)
(1.00288 0.0048563 0)
(1.00609 0.000179174 0)
(1.00276 0.00196193 0)
(1.00006 0.00207587 0)
(1.0011 0.000249666 0)
(1.00078 0.000471679 0)
(0.998872 0.00280407 0)
(0.998198 0.00364591 0)
(1.00119 0.00400699 0)
(1.0018 -0.00220272 0)
(1.00062 0.00220217 0)
(1.00081 0.0021971 0)
(0.999563 -0.00219226 0)
(0.993387 0.00526048 0)
(1.00027 0.00917326 0)
(1.00419 0.00286386 0)
(0.998999 0.00728859 0)
(1.00326 0.00701257 0)
(1.00622 0.00130499 0)
(1.0006 0.00528928 0)
(1.00249 0.00512844 0)
(1.00588 0.000448165 0)
(1.00301 0.00171353 0)
(0.999936 0.00252181 0)
(1.00091 0.000890016 0)
(1.00114 0.000550329 0)
(0.999392 0.0027181 0)
(0.998445 0.003789 0)
(1.00115 0.00376606 0)
(1.00173 -0.00181972 0)
(1.0008 0.00186523 0)
(1.00063 0.0024691 0)
(0.999687 -0.00190272 0)
(0.993932 0.00506329 0)
(1.00013 0.00887538 0)
(1.00412 0.00293406 0)
(0.999316 0.00683096 0)
(1.00291 0.0070693 0)
(1.00615 0.00154623 0)
(1.00099 0.00484394 0)
(1.00215 0.0053207 0)
(1.00562 0.00081845 0)
(1.0033 0.00150749 0)
(0.999942 0.00281141 0)
(1.00069 0.00155882 0)
(1.00144 0.000721676 0)
(0.999953 0.00261796 0)
(0.998778 0.00383247 0)
(1.00111 0.00351983 0)
(1.00163 -0.00143694 0)
(1.00096 0.00154618 0)
(1.00047 0.00271407 0)
(0.999809 -0.00158075 0)
(0.994491 0.00481656 0)
(1.00001 0.00860513 0)
(1.00403 0.00302057 0)
(0.999635 0.0063675 0)
(1.00258 0.00709315 0)
(1.00603 0.00181295 0)
(1.00139 0.00441906 0)
(1.00186 0.00545212 0)
(1.00531 0.00123356 0)
(1.00361 0.00135259 0)
(1.00006 0.00297882 0)
(1.00048 0.0022226 0)
(1.00164 0.00101522 0)
(1.00053 0.00252388 0)
(0.999181 0.00383166 0)
(1.00108 0.00327121 0)
(1.00153 -0.00105735 0)
(1.00112 0.0012424 0)
(1.00033 0.00290905 0)
(0.999917 -0.0012048 0)
(0.995057 0.00454295 0)
(0.999911 0.00833191 0)
(1.00392 0.00313444 0)
(0.999962 0.00590202 0)
(1.00229 0.00706927 0)
(1.00586 0.00212319 0)
(1.00178 0.00400528 0)
(1.00164 0.00550277 0)
(1.00496 0.00172506 0)
(1.0039 0.00127448 0)
(1.00031 0.00301258 0)
(1.0003 0.00280986 0)
(1.00174 0.00141839 0)
(1.00107 0.00248273 0)
(0.999633 0.00379418 0)
(1.00105 0.00302208 0)
(1.00141 -0.000690904 0)
(1.00126 0.000977601 0)
(1.00021 0.00304908 0)
(1.00001 -0.000797262 0)
(0.99562 0.00425043 0)
(0.999837 0.00805932 0)
(1.00379 0.00328816 0)
(1.00029 0.00545498 0)
(1.00205 0.00698901 0)
(1.00564 0.0024538 0)
(1.00217 0.00365359 0)
(1.00151 0.00543124 0)
(1.00458 0.00219597 0)
(1.00414 0.00132751 0)
(1.00065 0.00297278 0)
(1.00017 0.0033364 0)
(1.00176 0.00190264 0)
(1.00156 0.00250359 0)
(1.00011 0.00371348 0)
(1.00103 0.00277198 0)
(1.00128 -0.000327969 0)
(1.0014 0.000728209 0)
(1.00012 0.00312386 0)
(1.00007 -0.000338394 0)
(0.996174 0.00396032 0)
(0.999799 0.00774781 0)
(1.00365 0.00347279 0)
(1.00062 0.00503549 0)
(1.00186 0.00684951 0)
(1.0054 0.00278516 0)
(1.00253 0.00335263 0)
(1.00144 0.00532793 0)
(1.00421 0.00263995 0)
(1.00433 0.00142956 0)
(1.00107 0.00284286 0)
(1.00013 0.00372528 0)
(1.00169 0.00243664 0)
(1.00194 0.00258817 0)
(1.00057 0.00356048 0)
(1.00101 0.00252857 0)
(1.00114 1.48099e-06 0)
(1.00152 0.000544205 0)
(1.00005 0.00311599 0)
(1.00012 0.000149148 0)
(0.996701 0.00368533 0)
(0.999791 0.00741227 0)
(1.0035 0.00367112 0)
(1.00094 0.00466675 0)
(1.00172 0.00664324 0)
(1.00512 0.00311257 0)
(1.00286 0.00311148 0)
(1.00147 0.0051218 0)
(1.00383 0.00302382 0)
(1.00443 0.00159558 0)
(1.00154 0.00262008 0)
(1.00022 0.00378651 0)
(1.00159 0.00284449 0)
(1.0022 0.00265578 0)
(1.00103 0.0034249 0)
(1.00099 0.00228637 0)
(1.00099 0.00032064 0)
(1.00163 0.000381865 0)
(1.00001 0.00305452 0)
(1.00015 0.00064882 0)
(0.9972 0.00347586 0)
(0.999826 0.00701483 0)
(1.00333 0.00387855 0)
(1.00124 0.00435097 0)
(1.00164 0.00639389 0)
(1.00484 0.00339594 0)
(1.00314 0.0029626 0)
(1.00155 0.00487643 0)
(1.0035 0.00334656 0)
(1.00445 0.00171419 0)
(1.00198 0.0023399 0)
(1.00039 0.00358613 0)
(1.0015 0.00306552 0)
(1.00239 0.00270042 0)
(1.00155 0.00334776 0)
(1.00098 0.00205712 0)
(1.00083 0.000603176 0)
(1.00172 0.000291737 0)
(1.00001 0.0029252 0)
(1.00017 0.00112363 0)
(0.997645 0.00330339 0)
(0.999885 0.0066127 0)
(1.00317 0.004053 0)
(1.00151 0.00411786 0)
(1.00161 0.00610351 0)
(1.00455 0.00365381 0)
(1.00338 0.00284245 0)
(1.0017 0.00460578 0)
(1.00316 0.00357218 0)
(1.00435 0.00196563 0)
(1.00238 0.00228915 0)
(1.00065 0.00367154 0)
(1.00147 0.00347332 0)
(1.00255 0.00308996 0)
(1.00211 0.00349554 0)
(1.00096 0.00183651 0)
(1.00068 0.000857469 0)
(1.00178 0.000250164 0)
(1.00003 0.00275821 0)
(1.00018 0.00154635 0)
(0.998053 0.00322121 0)
(0.999978 0.00618626 0)
(1.00301 0.00418313 0)
(1.00175 0.00395792 0)
(1.00162 0.00580645 0)
(1.00426 0.0038413 0)
(1.00354 0.00280106 0)
(1.00188 0.00430934 0)
(1.00294 0.00374634 0)
(1.00427 0.00226448 0)
(1.0028 0.00219903 0)
(1.00101 0.00359262 0)
(1.00148 0.00369491 0)
(1.00262 0.00339307 0)
(1.00242 0.00361217 0)
(1.00095 0.0016295 0)
(1.00052 0.00107918 0)
(1.00182 0.000252119 0)
(1.0001 0.00257407 0)
(1.0002 0.0018994 0)
(0.998396 0.00322083 0)
(1.00007 0.00575411 0)
(1.00286 0.00427603 0)
(1.00196 0.00382429 0)
(1.00166 0.00550535 0)
(1.004 0.00399567 0)
(1.00367 0.0028028 0)
(1.0021 0.00403289 0)
(1.00273 0.00387878 0)
(1.00405 0.00254805 0)
(1.0031 0.00215007 0)
(1.00142 0.00337273 0)
(1.0016 0.0037649 0)
(1.00272 0.00351734 0)
(1.00284 0.00365244 0)
(1.00094 0.00144227 0)
(1.00037 0.00124612 0)
(1.00182 0.000332628 0)
(1.00016 0.00235441 0)
(1.00022 0.00217274 0)
(0.998701 0.00325612 0)
(1.00019 0.00538361 0)
(1.00272 0.00428724 0)
(1.00213 0.00374354 0)
(1.00174 0.00522538 0)
(1.00374 0.00411395 0)
(1.00372 0.00282466 0)
(1.00233 0.00380156 0)
(1.00265 0.0039182 0)
(1.00388 0.00292903 0)
(1.00335 0.00236219 0)
(1.00185 0.00337877 0)
(1.00175 0.00398073 0)
(1.00277 0.00383891 0)
(1.00315 0.00379993 0)
(1.00093 0.00126915 0)
(1.00021 0.00138434 0)
(1.0018 0.000418002 0)
(1.00026 0.00215989 0)
(1.00027 0.0023588 0)
(0.99895 0.0033488 0)
(1.00028 0.00503805 0)
(1.00261 0.00426185 0)
(1.00228 0.00368465 0)
(1.00183 0.00495555 0)
(1.00351 0.00417464 0)
(1.00375 0.00293698 0)
(1.00257 0.00364668 0)
(1.00261 0.00392094 0)
(1.00368 0.00321459 0)
(1.0035 0.00261059 0)
(1.00229 0.00334905 0)
(1.00202 0.00401635 0)
(1.00282 0.00406309 0)
(1.00336 0.00385517 0)
(1.00091 0.00111906 0)
(1.00008 0.00146604 0)
(1.00176 0.000561619 0)
(1.00034 0.00197586 0)
(1.00033 0.00243894 0)
(0.999174 0.00343996 0)
(1.00038 0.00478315 0)
(1.0025 0.00421409 0)
(1.0024 0.00362322 0)
(1.00194 0.00472071 0)
(1.00331 0.00423164 0)
(1.00373 0.00306834 0)
(1.00278 0.00350519 0)
(1.00265 0.00387166 0)
(1.00356 0.00347695 0)
(1.00362 0.00288865 0)
(1.00266 0.00334184 0)
(1.00229 0.00394307 0)
(1.00286 0.00416763 0)
(1.00347 0.00393577 0)
(1.0009 0.000989352 0)
(0.99995 0.00151077 0)
(1.00168 0.000692568 0)
(1.00043 0.00182923 0)
(1.00043 0.00247877 0)
(0.999371 0.00353026 0)
(1.00045 0.0045714 0)
(1.0024 0.00414676 0)
(1.0025 0.00358115 0)
(1.00206 0.00450193 0)
(1.00315 0.00423649 0)
(1.00368 0.00321013 0)
(1.00297 0.00344875 0)
(1.00275 0.00382756 0)
(1.00344 0.0036094 0)
(1.00364 0.00305751 0)
(1.00295 0.00336336 0)
(1.00263 0.00388798 0)
(1.00298 0.00421048 0)
(1.00355 0.00407128 0)
(1.00089 0.000877833 0)
(0.999841 0.00151265 0)
(1.0016 0.000850561 0)
(1.00051 0.00173478 0)
(1.00053 0.00243712 0)
(0.999553 0.00356762 0)
(1.00052 0.0044256 0)
(1.00232 0.00410219 0)
(1.00258 0.00352984 0)
(1.00219 0.00429247 0)
(1.00302 0.00422182 0)
(1.00361 0.00335022 0)
(1.00312 0.00341913 0)
(1.00285 0.00373605 0)
(1.00338 0.00368557 0)
(1.00369 0.00325918 0)
(1.00322 0.00346802 0)
(1.00292 0.00384883 0)
(1.00312 0.00414563 0)
(1.00359 0.00412048 0)
(1.00088 0.000790051 0)
(0.999746 0.00148161 0)
(1.0015 0.000986242 0)
(1.00057 0.00167328 0)
(1.00066 0.00237751 0)
(0.999738 0.00358301 0)
(1.00057 0.00431058 0)
(1.00222 0.00404903 0)
(1.00264 0.00349296 0)
(1.00232 0.00411577 0)
(1.00294 0.00417182 0)
(1.00353 0.00345829 0)
(1.00323 0.00342199 0)
(1.00299 0.00367866 0)
(1.00336 0.00375019 0)
(1.0037 0.00339557 0)
(1.0034 0.00348104 0)
(1.00317 0.0037873 0)
(1.00329 0.00408934 0)
(1.00368 0.00412857 0)
(1.00086 0.000715705 0)
(0.999671 0.00142557 0)
(1.00141 0.00111751 0)
(1.00062 0.00166898 0)
(1.00078 0.00228794 0)
(0.999918 0.00352065 0)
(1.00062 0.00420077 0)
(1.00213 0.00404041 0)
(1.00267 0.00348064 0)
(1.00245 0.0039419 0)
(1.00289 0.0040846 0)
(1.00345 0.00354285 0)
(1.00331 0.00345229 0)
(1.00311 0.00362967 0)
(1.00336 0.00375168 0)
(1.00371 0.00349792 0)
(1.00357 0.00353203 0)
(1.00344 0.00377798 0)
(1.00347 0.00407806 0)
(1.00378 0.00411565 0)
(1.00085 0.000658728 0)
(0.999612 0.00136086 0)
(1.00131 0.0012153 0)
(1.00065 0.00168471 0)
(1.00091 0.00219542 0)
(1.00011 0.0034322 0)
(1.00069 0.00410271 0)
(1.00204 0.00402846 0)
(1.00268 0.00346947 0)
(1.00257 0.00379446 0)
(1.00287 0.00398761 0)
(1.00338 0.0035954 0)
(1.00336 0.00348215 0)
(1.00323 0.00359135 0)
(1.00339 0.00373798 0)
(1.00373 0.00358384 0)
(1.00368 0.00359593 0)
(1.00365 0.00371999 0)
(1.00364 0.00400842 0)
(1.00386 0.00409656 0)
(1.00084 0.000611211 0)
(0.999568 0.00128845 0)
(1.00123 0.00128523 0)
(1.00066 0.00173683 0)
(1.00102 0.00211609 0)
(1.0003 0.00330074 0)
(1.00076 0.00396802 0)
(1.00197 0.00401804 0)
(1.00267 0.00349534 0)
(1.00266 0.00368286 0)
(1.00288 0.00387566 0)
(1.00333 0.00360197 0)
(1.0034 0.00349406 0)
(1.00333 0.0035702 0)
(1.00344 0.00372066 0)
(1.00376 0.00362229 0)
(1.00376 0.0036638 0)
(1.00384 0.00370774 0)
(1.00385 0.00392895 0)
(1.00397 0.00409773 0)
(1.00082 0.000572404 0)
(0.999538 0.00122348 0)
(1.00115 0.00132167 0)
(1.00066 0.00179287 0)
(1.00112 0.00206562 0)
(1.0005 0.00315187 0)
(1.00086 0.00381399 0)
(1.00191 0.003999 0)
(1.00263 0.00351437 0)
(1.00274 0.00359125 0)
(1.0029 0.00375777 0)
(1.0033 0.00359016 0)
(1.00343 0.00350469 0)
(1.00343 0.00355335 0)
(1.0035 0.00370981 0)
(1.00381 0.00363517 0)
(1.00384 0.00369761 0)
(1.00396 0.00373295 0)
(1.00404 0.00382087 0)
(1.00409 0.00402172 0)
(1.00081 0.000540894 0)
(0.999517 0.00116067 0)
(1.00109 0.00133315 0)
(1.00066 0.00184866 0)
(1.0012 0.00205494 0)
(1.00068 0.00301852 0)
(1.00098 0.00362863 0)
(1.00187 0.00393309 0)
(1.00259 0.00352379 0)
(1.00279 0.00353533 0)
(1.00294 0.00365376 0)
(1.00329 0.00355504 0)
(1.00345 0.00349847 0)
(1.00352 0.00351579 0)
(1.00357 0.00367653 0)
(1.00386 0.00363808 0)
(1.00392 0.00367711 0)
(1.00404 0.00375844 0)
(1.00418 0.00376766 0)
(1.00425 0.00391664 0)
(1.00079 0.000512098 0)
(0.999505 0.00110783 0)
(1.00104 0.00132967 0)
(1.00065 0.00189299 0)
(1.00126 0.00205905 0)
(1.00085 0.00291897 0)
(1.00112 0.00343884 0)
(1.00187 0.0038219 0)
(1.00255 0.00350991 0)
(1.00283 0.00348556 0)
(1.00296 0.0035645 0)
(1.00329 0.00349575 0)
(1.00347 0.00346772 0)
(1.00361 0.00347908 0)
(1.00364 0.00362781 0)
(1.00391 0.00364477 0)
(1.00401 0.00365048 0)
(1.00413 0.00374494 0)
(1.00427 0.00376785 0)
(1.0044 0.0038058 0)
(1.00078 0.000488109 0)
(0.999498 0.00106125 0)
(1.001 0.00131409 0)
(1.00065 0.00192302 0)
(1.00131 0.00206782 0)
(1.00099 0.00285123 0)
(1.00124 0.00326212 0)
(1.00189 0.00367614 0)
(1.00251 0.00345838 0)
(1.00285 0.00343316 0)
(1.00299 0.00348787 0)
(1.0033 0.00344207 0)
(1.0035 0.00342297 0)
(1.00368 0.00343746 0)
(1.00373 0.00355801 0)
(1.00396 0.00361381 0)
(1.00407 0.00362797 0)
(1.00423 0.00367681 0)
(1.00433 0.00375539 0)
(1.00451 0.00373597 0)
(1.00077 0.000466694 0)
(0.999496 0.00101913 0)
(1.00097 0.00129292 0)
(1.00065 0.00193958 0)
(1.00135 0.0020675 0)
(1.00111 0.00279695 0)
(1.00136 0.00310406 0)
(1.00192 0.00352306 0)
(1.00249 0.0033766 0)
(1.00286 0.00337629 0)
(1.00301 0.00341291 0)
(1.0033 0.00339061 0)
(1.00352 0.00336998 0)
(1.00375 0.00338028 0)
(1.00381 0.00348156 0)
(1.00403 0.0035444 0)
(1.00413 0.00360617 0)
(1.00433 0.00361093 0)
(1.0044 0.00369856 0)
(1.00456 0.00371433 0)
(1.00075 0.000447315 0)
(0.999498 0.000982691 0)
(1.00095 0.00126571 0)
(1.00066 0.00194252 0)
(1.00138 0.00205581 0)
(1.00122 0.00274104 0)
(1.00146 0.0029687 0)
(1.00196 0.0033739 0)
(1.00249 0.0032729 0)
(1.00288 0.00330279 0)