/*--------------------------------*- C++ -*----------------------------------*\
| =========                 |                                                 |
| \\      /  F ield         | OpenFOAM: The Open Source CFD Toolbox           |
|  \\    /   O peration     | Version:  v1912                                 |
|   \\  /    A nd           | Website:  www.openfoam.com                      |
|    \\/     M anipulation  |                                                 |
\*---------------------------------------------------------------------------*/
FoamFile
{
    version     2.0;
    format      ascii;
    class       volVectorField;
    location    "2.5";
    object      U;
}
// * * * * * * * * * * * * * * * * * * * * * * * * * * * * * * * * * * * * * //

dimensions      [0 1 -1 0 0 0 0];


internalField   nonuniform List<vector> 
9600
(
(0.745244 0.00152881 0)
(1.2281 0.00121901 0)
(0.615357 -0.0276131 0)
(1.45347 0.00560055 0)
(0.79288 0.0116446 0)
(1.1793 0.00542211 0)
(0.83814 -0.0182047 0)
(1.21861 -0.00454025 0)
(0.808721 -0.00311697 0)
(1.24143 0.00549147 0)
(0.773083 0.00920783 0)
(1.21083 0.0123684 0)
(0.866314 0.000301468 0)
(1.20798 0.000181854 0)
(0.877035 -0.00446145 0)
(1.20541 0.00103252 0)
(0.870708 -0.00381396 0)
(1.16386 0.00270989 0)
(0.869034 -0.00348585 0)
(1.14519 0.00547465 0)
(0.758505 0.00157859 0)
(1.21347 0.00279777 0)
(0.63574 -0.0303091 0)
(1.44029 0.00415287 0)
(0.821206 0.013752 0)
(1.16764 0.00524418 0)
(0.874277 -0.0192057 0)
(1.21269 -0.00385134 0)
(0.838879 -0.00381087 0)
(1.22834 0.00636222 0)
(0.808638 0.00937534 0)
(1.18001 0.0112859 0)
(0.917531 -0.000202945 0)
(1.17241 0.000367435 0)
(0.940121 -0.00474492 0)
(1.15555 0.00145733 0)
(0.955529 -0.00236383 0)
(1.08832 0.00246489 0)
(0.981138 -0.00192391 0)
(1.02811 0.00374905 0)
(0.784282 0.00168191 0)
(1.18776 0.00368892 0)
(0.671435 -0.0322446 0)
(1.40723 0.0031509 0)
(0.87804 0.0159638 0)
(1.15046 0.00503941 0)
(0.918645 -0.0198547 0)
(1.19143 -0.00329067 0)
(0.893244 -0.00420323 0)
(1.19723 0.00718181 0)
(0.877064 0.00977065 0)
(1.13102 0.00977318 0)
(0.9836 -0.00028621 0)
(1.12501 -7.4437e-06 0)
(1.00717 -0.00426119 0)
(1.1036 0.00104242 0)
(1.02087 -0.000830331 0)
(1.04612 0.0018712 0)
(1.02081 -0.000393391 0)
(1.01135 0.00391169 0)
(0.820216 0.00177346 0)
(1.15349 0.00461802 0)
(0.720591 -0.0341799 0)
(1.35282 0.00180891 0)
(0.949387 0.0178402 0)
(1.1324 0.00501368 0)
(0.962335 -0.020353 0)
(1.15541 -0.00301566 0)
(0.953849 -0.00432274 0)
(1.15365 0.00754195 0)
(0.950068 0.01054 0)
(1.08892 0.00836242 0)
(1.03095 -0.000369599 0)
(1.09029 -0.000380649 0)
(1.04336 -0.00376603 0)
(1.07417 0.000696973 0)
(1.04535 0.000390609 0)
(1.03865 0.00219823 0)
(1.02796 0.000468422 0)
(1.0172 0.00458078 0)
(0.862249 0.00187985 0)
(1.11489 0.00545099 0)
(0.776591 -0.0358514 0)
(1.28184 -7.70831e-05 0)
(1.01814 0.0194095 0)
(1.11873 0.00527683 0)
(0.99631 -0.0205131 0)
(1.11318 -0.0030299 0)
(1.00159 -0.00427304 0)
(1.11089 0.00761678 0)
(1.00436 0.0113115 0)
(1.06661 0.00732852 0)
(1.05258 -0.000492578 0)
(1.07151 -0.000569741 0)
(1.05355 -0.00332144 0)
(1.05937 0.000601448 0)
(1.04815 0.00121882 0)
(1.03861 0.00268411 0)
(1.02979 0.00122627 0)
(1.0198 0.0052885 0)
(0.904727 0.0019884 0)
(1.07812 0.00614894 0)
(0.830798 -0.0371975 0)
(1.20454 -0.00221815 0)
(1.07053 0.0205216 0)
(1.11141 0.0058682 0)
(1.01669 -0.02024 0)
(1.07466 -0.00325255 0)
(1.02763 -0.00418721 0)
(1.07878 0.00753945 0)
(1.03505 0.0117806 0)
(1.05966 0.00674986 0)
(1.05767 -0.000542458 0)
(1.06035 -0.000598869 0)
(1.05115 -0.00285465 0)
(1.04853 0.000616682 0)
(1.04217 0.00179439 0)
(1.03535 0.00308153 0)
(1.02862 0.00195648 0)
(1.01934 0.00595167 0)
(0.941826 0.00207484 0)
(1.04909 0.00672808 0)
(0.876954 -0.0381332 0)
(1.13289 -0.00443226 0)
(1.0997 0.0210113 0)
(1.10754 0.00676841 0)
(1.0255 -0.0195494 0)
(1.04523 -0.00356327 0)
(1.0344 -0.00417772 0)
(1.05815 0.00731895 0)
(1.04821 0.0119131 0)
(1.05827 0.00651716 0)
(1.05531 -0.000422933 0)
(1.0508 -0.000504696 0)
(1.0437 -0.00234498 0)
(1.03794 0.000716602 0)
(1.0326 0.00219349 0)
(1.02834 0.00338742 0)
(1.02399 0.00256087 0)
(1.01658 0.00650891 0)
(0.969473 0.00211377 0)
(1.03081 0.00721923 0)
(0.913257 -0.0386497 0)
(1.0754 -0.00659165 0)
(1.1061 0.0208783 0)
(1.10231 0.00784943 0)
(1.02728 -0.01854 0)
(1.02505 -0.00384288 0)
(1.02944 -0.00426953 0)
(1.04427 0.00693445 0)
(1.05054 0.0117991 0)
(1.05586 0.0064852 0)
(1.04957 -0.000115246 0)
(1.04112 -0.000298213 0)
(1.03438 -0.00179343 0)
(1.02746 0.000879631 0)
(1.02216 0.00250789 0)
(1.01948 0.00362632 0)
(1.01717 0.00296932 0)
(1.01212 0.00693825 0)
(0.986604 0.00209021 0)
(1.0223 0.00761431 0)
(0.940962 -0.0387875 0)
(1.03449 -0.00852171 0)
(1.0952 0.0202751 0)
(1.09254 0.00891575 0)
(1.02567 -0.0173526 0)
(1.01189 -0.00403905 0)
(1.01987 -0.00442091 0)
(1.03259 0.00639606 0)
(1.04594 0.0115286 0)
(1.04996 0.00655097 0)
(1.04169 0.000340196 0)
(1.03139 -9.65519e-06 0)
(1.02501 -0.00121996 0)
(1.01796 0.00108725 0)
(1.01264 0.00276947 0)
(1.01084 0.00380004 0)
(1.00995 0.00320006 0)
(1.00702 0.00723163 0)
(0.994975 0.0020057 0)
(1.01996 0.00789503 0)
(0.961973 -0.0386037 0)
(1.00779 -0.0100983 0)
(1.07435 0.0193941 0)
(1.07801 0.00982069 0)
(1.02254 -0.0161343 0)
(1.00347 -0.00413381 0)
(1.01026 -0.00455482 0)
(1.0214 0.00576973 0)
(1.03686 0.0111733 0)
(1.0408 0.00664541 0)
(1.03252 0.000857519 0)
(1.02222 0.000308932 0)
(1.01679 -0.000666715 0)
(1.01032 0.00131697 0)
(1.00518 0.00297789 0)
(1.00385 0.00394279 0)
(1.00372 0.00332134 0)
(1.00221 0.00737328 0)
(0.997786 0.00187895 0)
(1.01996 0.00804148 0)
(0.977633 -0.0381681 0)
(0.991215 -0.0112754 0)
(1.05022 0.0184125 0)
(1.06085 0.0104818 0)
(1.0187 -0.0150036 0)
(0.998153 -0.00414664 0)
(1.00267 -0.00461086 0)
(1.01125 0.00514708 0)
(1.02576 0.0107941 0)
(1.03011 0.0067151 0)
(1.02329 0.00134971 0)
(1.01428 0.000600585 0)
(1.0103 -0.000175891 0)
(1.00492 0.00155203 0)
(1.00019 0.00314613 0)
(0.999105 0.00409542 0)
(0.999203 0.00339509 0)
(0.998233 0.00736972 0)
(0.99805 0.00173515 0)
(1.01991 0.00804688 0)
(0.988776 -0.0375561 0)
(0.981215 -0.0120661 0)
(1.02763 0.0174518 0)
(1.04396 0.0108809 0)
(1.01473 -0.0140252 0)
(0.994824 -0.00412188 0)
(0.99749 -0.00457019 0)
(1.00327 0.00459538 0)
(1.01514 0.010437 0)
(1.02 0.00672771 0)
(1.01528 0.0017628 0)
(1.00802 0.000830151 0)
(1.00557 0.000220985 0)
(1.00151 0.00177852 0)
(0.997375 0.00327787 0)
(0.996462 0.00426355 0)
(0.996492 0.0034791 0)
(0.995294 0.00728844 0)
(0.997681 0.00159178 0)
(1.01908 0.00794498 0)
(0.996149 -0.0368244 0)
(0.975418 -0.0125211 0)
(1.00933 0.0165667 0)
(1.02969 0.0110354 0)
(1.01115 -0.013214 0)
(0.99272 -0.00408808 0)
(0.994284 -0.00444626 0)
(0.997957 0.00413882 0)
(1.00679 0.0101244 0)
(1.01204 0.00667732 0)
(1.00933 0.00207436 0)
(1.00357 0.000998057 0)
(1.00231 0.000512722 0)
(0.999469 0.00197729 0)
(0.996016 0.00336339 0)
(0.995276 0.00443736 0)
(0.995229 0.00362599 0)
(0.993423 0.00720848 0)
(0.997465 0.00145932 0)
(1.0177 0.00776628 0)
(1.00061 -0.0360121 0)
(0.972355 -0.012714 0)
(0.996273 0.015767 0)
(1.01918 0.0109947 0)
(1.00836 -0.0125417 0)
(0.991369 -0.00406266 0)
(0.99245 -0.0042681 0)
(0.994953 0.00376474 0)
(1.00131 0.009857 0)
(1.00678 0.0065719 0)
(1.0056 0.00230132 0)
(1.00072 0.00113431 0)
(1.00019 0.000716756 0)
(0.998281 0.00214219 0)
(0.995397 0.00340759 0)
(0.994827 0.00460262 0)
(0.994855 0.00385334 0)
(0.992474 0.00715855 0)
(0.997517 0.0013407 0)
(1.0162 0.00752968 0)
(1.00305 -0.0351484 0)
(0.971066 -0.0127271 0)
(0.988097 0.0150348 0)
(1.01234 0.0108067 0)
(1.00646 -0.0119689 0)
(0.990513 -0.004052 0)
(0.991485 -0.00406168 0)
(0.993499 0.00344225 0)
(0.998293 0.00961905 0)
(1.00382 0.00642833 0)
(1.00368 0.00246981 0)
(0.999081 0.00127125 0)
(0.998904 0.000856301 0)
(0.997642 0.002285 0)
(0.995091 0.00343211 0)
(0.994627 0.00473848 0)
(0.994873 0.00414292 0)
(0.992163 0.00713114 0)
(0.997731 0.00123285 0)
(1.01484 0.00726189 0)
(1.00425 -0.0342476 0)
(0.970872 -0.0126293 0)
(0.98369 0.0143437 0)
(1.00834 0.0105168 0)
(1.00534 -0.0114551 0)
(0.990019 -0.00405306 0)
(0.991032 -0.00384341 0)
(0.992882 0.00314356 0)
(0.996896 0.00938817 0)
(1.00238 0.00626452 0)
(1.00291 0.00259981 0)
(0.998216 0.00142921 0)
(0.998178 0.000953988 0)
(0.997409 0.00241615 0)
(0.994963 0.00346429 0)
(0.9945 0.00482904 0)
(0.995013 0.00446664 0)
(0.992192 0.0071194 0)
(0.997998 0.00113361 0)
(1.01369 0.00697462 0)
(1.00474 -0.0333177 0)
(0.971292 -0.0124728 0)
(0.981761 0.0136797 0)
(1.00616 0.0101715 0)
(1.00477 -0.010968 0)
(0.98981 -0.00405932 0)
(0.990859 -0.00361826 0)
(0.992639 0.00285424 0)
(0.996314 0.00914889 0)
(1.00167 0.00609054 0)
(1.0027 0.00270351 0)
(0.997781 0.00162105 0)
(0.997766 0.0010244 0)
(0.997462 0.00253312 0)
(0.995011 0.003528 0)
(0.994464 0.00487743 0)
(0.995216 0.00480222 0)
(0.992389 0.00712246 0)
(0.998267 0.00104117 0)
(1.01271 0.00667183 0)
(1.00488 -0.0323651 0)
(0.972006 -0.0122902 0)
(0.981217 0.0130332 0)
(1.00498 0.00978845 0)
(1.00451 -0.0104943 0)
(0.989827 -0.00406599 0)
(0.990826 -0.00338849 0)
(0.992543 0.00257033 0)
(0.996038 0.0088939 0)
(1.00117 0.00591443 0)
(1.00262 0.00278558 0)
(0.997552 0.00184772 0)
(0.997496 0.00107413 0)
(0.997665 0.00262424 0)
(0.995225 0.00363275 0)
(0.994586 0.00490037 0)
(0.995516 0.00513451 0)
(0.992728 0.00714482 0)
(0.998519 0.000954163 0)
(1.01187 0.00635775 0)
(1.00482 -0.0313921 0)
(0.972815 -0.0120989 0)
(0.981317 0.0123951 0)
(1.00425 0.00938042 0)
(1.00438 -0.0100272 0)
(0.990015 -0.00406683 0)
(0.990861 -0.00315357 0)
(0.992516 0.00229257 0)
(0.995843 0.00862266 0)
(1.00065 0.0057426 0)
(1.00246 0.00284547 0)
(0.997423 0.00210209 0)
(0.997282 0.00111141 0)
(0.997894 0.00267707 0)
(0.995548 0.00377132 0)
(0.994884 0.00490992 0)
(0.995929 0.00544875 0)
(0.993252 0.00719561 0)
(0.998743 0.000871595 0)
(1.01115 0.00603471 0)
(1.00466 -0.0304009 0)
(0.973625 -0.0119051 0)
(0.981653 0.0117637 0)
(1.00373 0.00895534 0)
(1.00426 -0.00956613 0)
(0.99032 -0.00405845 0)
(0.990929 -0.00291177 0)
(0.99255 0.0020234 0)
(0.995675 0.00833744 0)
(1.00007 0.00558078 0)
(1.00214 0.00287796 0)
(0.997373 0.00237044 0)
(0.997118 0.0011481 0)
(0.998075 0.00268696 0)
(0.995891 0.00392597 0)
(0.995311 0.00491304 0)
(0.996408 0.00573041 0)
(0.993967 0.00727946 0)
(0.998927 0.000792736 0)
(1.01053 0.00570371 0)
(1.00443 -0.029391 0)
(0.974419 -0.0117139 0)
(0.982053 0.0111373 0)
(1.00333 0.00851797 0)
(1.0041 -0.00911281 0)
(0.99069 -0.00403942 0)
(0.991015 -0.00266425 0)
(0.992653 0.00176667 0)
(0.995546 0.00803935 0)
(0.9995 0.00543682 0)
(1.00169 0.00288081 0)
(0.997416 0.00263669 0)
(0.997037 0.00119452 0)
(0.998188 0.00266017 0)
(0.996178 0.00407765 0)
(0.995778 0.00491602 0)
(0.996864 0.00596888 0)
(0.994805 0.00739157 0)
(0.999061 0.000716961 0)
(1.01 0.00536619 0)
(1.00416 -0.0283634 0)
(0.975227 -0.0115228 0)
(0.982463 0.0105151 0)
(1.00303 0.00807147 0)
(1.00386 -0.00866954 0)
(0.99108 -0.00400991 0)
(0.991109 -0.00241427 0)
(0.992837 0.00152448 0)
(0.995467 0.00773058 0)
(0.999011 0.00531698 0)
(1.00115 0.00285402 0)
(0.997561 0.00288453 0)
(0.997063 0.00125736 0)
(0.998247 0.00261036 0)
(0.996368 0.00421587 0)
(0.996199 0.00492163 0)
(0.997214 0.00615008 0)
(0.995654 0.00752163 0)
(0.99914 0.000643822 0)
(1.00955 0.00502157 0)
(1.00386 -0.0273198 0)
(0.97609 -0.0113373 0)
(0.982868 0.00989345 0)
(1.00282 0.0076196 0)
(1.00355 -0.00823708 0)
(0.991459 -0.0039723 0)
(0.991215 -0.00216399 0)
(0.993103 0.00129581 0)
(0.995427 0.00741121 0)
(0.998646 0.00522405 0)
(1.00061 0.00279976 0)
(0.99779 0.00310201 0)
(0.997192 0.00134116 0)
(0.998275 0.00255181 0)
(0.996461 0.00433715 0)
(0.996518 0.00493798 0)
(0.997422 0.00626223 0)
(0.996415 0.00765108 0)
(0.999171 0.000573498 0)
(1.00916 0.00467006 0)
(1.00354 -0.026262 0)
(0.977029 -0.0111563 0)
(0.983259 0.00927182 0)
(1.00266 0.00716672 0)
(1.00319 -0.00781487 0)
(0.99181 -0.00392593 0)
(0.991332 -0.0019178 0)
(0.993438 0.00108212 0)
(0.995407 0.00707836 0)
(0.998412 0.00515901 0)
(1.00011 0.00272398 0)
(0.998064 0.00328498 0)
(0.997393 0.0014532 0)
(0.998293 0.00249538 0)
(0.996486 0.00443581 0)
(0.996718 0.0049776 0)
(0.997499 0.00631201 0)
(0.997037 0.00775149 0)
(0.999165 0.00050542 0)
(1.00879 0.00431475 0)
(1.00322 -0.0251936 0)
(0.978039 -0.0109741 0)
(0.983631 0.00865357 0)
(1.00253 0.00671547 0)
(1.00281 -0.00740457 0)
(0.992127 -0.00387233 0)
(0.991462 -0.00167916 0)
(0.993825 0.000886019 0)
(0.995386 0.00673217 0)
(0.998287 0.00511672 0)
(0.999678 0.00263384 0)
(0.998341 0.00342742 0)
(0.99763 0.00160275 0)
(0.99831 0.00244865 0)
(0.996481 0.00450727 0)
(0.996813 0.00504459 0)
(0.997489 0.00631674 0)
(0.997515 0.00779208 0)
(0.999141 0.000440456 0)
(1.00845 0.00395427 0)
(1.00289 -0.0241186 0)
(0.979097 -0.0107912 0)
(0.983992 0.00803816 0)
(1.00238 0.00626757 0)
(1.00246 -0.00700828 0)
(0.992419 -0.00381262 0)
(0.991596 -0.00145096 0)
(0.994237 0.000707433 0)
(0.995359 0.00637489 0)
(0.99823 0.00509106 0)
(0.999329 0.00253709 0)
(0.998583 0.0035224 0)
(0.997868 0.00179133 0)
(0.998335 0.00241877 0)
(0.996481 0.00455212 0)
(0.99683 0.005141 0)
(0.997435 0.00629853 0)
(0.997873 0.0077497 0)
(0.999112 0.000378572 0)
(1.0081 0.00359001 0)
(1.00257 -0.0230415 0)
(0.980172 -0.0106025 0)
(0.984358 0.00742704 0)
(1.00219 0.00582375 0)
(1.00216 -0.00662369 0)
(0.992697 -0.00374826 0)
(0.991727 -0.00123772 0)
(0.994653 0.000548221 0)
(0.995337 0.00600502 0)
(0.9982 0.00507688 0)
(0.999055 0.00244019 0)
(0.998767 0.00356859 0)
(0.998081 0.00201342 0)
(0.998373 0.0024135 0)
(0.996514 0.00456648 0)
(0.996802 0.00526099 0)
(0.997373 0.00628694 0)
(0.998145 0.00762719 0)
(0.999092 0.000319032 0)
(1.00776 0.00322555 0)
(1.00227 -0.021965 0)
(0.981235 -0.0104109 0)
(0.984748 0.00682281 0)
(1.00195 0.00538328 0)
(1.00191 -0.00625503 0)
(0.992974 -0.00367756 0)
(0.991849 -0.00103705 0)
(0.995056 0.000412019 0)
(0.995334 0.00561858 0)
(0.998159 0.00506806 0)
(0.998839 0.00235333 0)
(0.998888 0.00356796 0)
(0.998246 0.00226025 0)
(0.998425 0.00243909 0)
(0.996591 0.0045453 0)
(0.996764 0.00538891 0)
(0.997327 0.00630551 0)
(0.998364 0.00744755 0)
(0.99909 0.000262874 0)
(1.00739 0.00286028 0)
(1.002 -0.0208926 0)
(0.982266 -0.0102174 0)
(0.985175 0.00622778 0)
(1.00165 0.00494792 0)
(1.00169 -0.00590553 0)
(0.993258 -0.00359967 0)
(0.991962 -0.000850665 0)
(0.995433 0.00029916 0)
(0.995367 0.00521833 0)
(0.998088 0.00506152 0)
(0.998666 0.00228586 0)
(0.998956 0.00352232 0)
(0.998349 0.00252176 0)
(0.998481 0.00250437 0)
(0.996714 0.00449249 0)
(0.996745 0.00550619 0)
(0.997305 0.0063637 0)
(0.998557 0.00724681 0)
(0.999107 0.000209883 0)
(1.00701 0.00249747 0)
(1.00175 -0.0198321 0)
(0.983256 -0.0100141 0)
(0.985645 0.00564457 0)
(1.00132 0.00451764 0)
(1.00149 -0.00557175 0)
(0.993549 -0.00351772 0)
(0.992074 -0.000678017 0)
(0.995779 0.000209433 0)
(0.995449 0.00480984 0)
(0.997984 0.0050527 0)
(0.998519 0.00224692 0)
(0.998988 0.00343363 0)
(0.998392 0.00278522 0)
(0.998532 0.00261476 0)
(0.996872 0.0044159 0)
(0.996767 0.00559113 0)
(0.99731 0.00645025 0)
(0.998736 0.00706831 0)
(0.999144 0.000159392 0)
(1.00661 0.0021394 0)
(1.00153 -0.018785 0)
(0.984203 -0.00980131 0)
(0.986154 0.00507085 0)
(1.00096 0.00409413 0)
(1.0013 -0.00525784 0)
(0.993839 -0.00342907 0)
(0.99219 -0.000515677 0)
(0.996088 0.000142432 0)
(0.995582 0.00439507 0)
(0.997855 0.00503221 0)
(0.998383 0.0022458 0)
(0.999007 0.00331154 0)
(0.998391 0.00303471 0)
(0.998569 0.00277235 0)
(0.997051 0.0043263 0)
(0.99684 0.0056309 0)
(0.997339 0.00654254 0)
(0.998903 0.00694421 0)
(0.999196 0.000112196 0)
(1.0062 0.00178665 0)
(1.00133 -0.0177548 0)
(0.985109 -0.00957871 0)
(0.986691 0.00450574 0)
(1.00061 0.00368105 0)
(1.00109 -0.00496445 0)
(0.994119 -0.00333804 0)
(0.992315 -0.000368946 0)
(0.996359 9.70707e-05 0)
(0.995762 0.00397839 0)
(0.997716 0.00499153 0)
(0.998245 0.00228382 0)
(0.999027 0.00316681 0)
(0.998369 0.00325168 0)
(0.99859 0.00297302 0)
(0.997238 0.00423782 0)
(0.996966 0.00562268 0)
(0.997392 0.00661968 0)
(0.999047 0.00688308 0)
(0.999257 6.82228e-05 0)
(1.00579 0.00144238 0)
(1.00114 -0.0167483 0)
(0.985982 -0.00934626 0)
(0.987243 0.00395491 0)
(1.00028 0.00327671 0)
(1.00087 -0.00468757 0)
(0.994385 -0.0032479 0)
(0.99245 -0.000238421 0)
(0.996593 7.37486e-05 0)
(0.995978 0.00356635 0)
(0.997585 0.00492742 0)
(0.9981 0.00236032 0)
(0.999056 0.00301139 0)
(0.998349 0.00342461 0)
(0.998598 0.0032065 0)
(0.99742 0.00416564 0)
(0.997138 0.00556749 0)
(0.997469 0.00666204 0)
(0.999162 0.00686959 0)
(0.999324 2.68356e-05 0)
(1.00538 0.00110971 0)
(1.00097 -0.015767 0)
(0.986828 -0.00910647 0)
(0.987801 0.0034211 0)
(0.999981 0.00288411 0)
(1.00065 -0.00442975 0)
(0.994634 -0.00315452 0)
(0.992594 -0.00012242 0)
(0.996792 7.05308e-05 0)
(0.996219 0.00316072 0)
(0.997471 0.0048397 0)
(0.99794 0.00247466 0)
(0.999096 0.00285743 0)
(0.998351 0.0035497 0)
(0.998596 0.00346606 0)
(0.997588 0.00412546 0)
(0.997346 0.00547244 0)
(0.997572 0.00666212 0)
(0.999247 0.00687763 0)
(0.999392 -1.26456e-05 0)
(1.00497 0.000791635 0)
(1.0008 -0.0148153 0)
(0.987649 -0.00885641 0)
(0.988356 0.00290121 0)
(0.999706 0.00250285 0)
(1.00043 -0.00419166 0)
(0.99487 -0.00306261 0)
(0.992744 -2.54613e-05 0)
(0.996956 8.79854e-05 0)
(0.996474 0.00276661 0)
(0.997384 0.00472432 0)
(0.997765 0.00262348 0)
(0.99914 0.00271252 0)
(0.998386 0.00361413 0)
(0.99859 0.00373769 0)
(0.997731 0.00413184 0)
(0.997577 0.00534805 0)
(0.997702 0.00662203 0)
(0.999309 0.00689294 0)
(0.999459 -4.8697e-05 0)
(1.00458 0.000488246 0)
(1.00065 -0.0138952 0)
(0.988449 -0.00859896 0)
(0.988906 0.00239876 0)
(0.999454 0.00212781 0)
(1.00021 -0.00396608 0)
(0.995096 -0.00297099 0)
(0.992899 4.96001e-05 0)
(0.99709 0.000123156 0)
(0.996733 0.00238912 0)
(0.997327 0.00457015 0)
(0.997574 0.0027994 0)
(0.999179 0.00259762 0)
(0.998461 0.00361511 0)
(0.998587 0.00399978 0)
(0.99784 0.00419195 0)
(0.997815 0.00520149 0)
(0.997861 0.00653013 0)
(0.999354 0.00691441 0)
(0.999524 -8.10939e-05 0)
(1.0042 0.000201661 0)
(1.0005 -0.0130079 0)
(0.989227 -0.00833923 0)
(0.989449 0.00191917 0)
(0.999223 0.00176392 0)
(0.999999 -0.00375833 0)
(0.995315 -0.00287368 0)
(0.993056 0.000109905 0)
(0.997196 0.000173496 0)
(0.99699 0.00203455 0)
(0.997305 0.00437735 0)
(0.997373 0.00298486 0)
(0.999201 0.00252495 0)
(0.998575 0.00355821 0)
(0.998598 0.00423531 0)
(0.997908 0.00431386 0)
(0.998042 0.00506053 0)
(0.998055 0.0063713 0)
(0.999399 0.00691786 0)
(0.999584 -0.00011169 0)
(1.00384 -6.83494e-05 0)
(1.00036 -0.0121526 0)
(0.989979 -0.00807703 0)
(0.989985 0.00146373 0)
(0.99901 0.0014192 0)
(0.999794 -0.00357221 0)
(0.995529 -0.00278101 0)
(0.993216 0.000153268 0)
(0.997276 0.000238085 0)
(0.997241 0.00170684 0)
(0.997319 0.00415588 0)
(0.997165 0.00317156 0)
(0.999195 0.00249926 0)
(0.998723 0.00344234 0)
(0.998638 0.00441659 0)
(0.997938 0.00448893 0)
(0.998237 0.00496443 0)
(0.998275 0.00616289 0)
(0.999464 0.00687395 0)
(0.999641 -0.000138221 0)
(1.00349 -0.000321534 0)
(1.00022 -0.0113329 0)
(0.990705 -0.00781795 0)
(0.990513 0.00103928 0)
(0.998816 0.00108618 0)
(0.999595 -0.00340492 0)
(0.995737 -0.00268644 0)
(0.993377 0.000175887 0)
(0.997331 0.000315191 0)
(0.997483 0.00141229 0)
(0.997375 0.00389527 0)
(0.996958 0.00334489 0)
(0.999149 0.00253227 0)
(0.998893 0.00329234 0)
(0.998718 0.00452846 0)
(0.997941 0.00469508 0)
(0.998383 0.00493105 0)
(0.998508 0.00593227 0)
(0.999566 0.00676619 0)
(0.999693 -0.000163688 0)
(1.00316 -0.000557919 0)
(1.00009 -0.0105409 0)
(0.991404 -0.00756681 0)
(0.991032 0.000635467 0)
(0.998638 0.000776576 0)
(0.999407 -0.00326109 0)
(0.995941 -0.00259446 0)
(0.99354 0.000184007 0)
(0.997361 0.000394193 0)
(0.997707 0.00116615 0)
(0.997473 0.00360699 0)
(0.996767 0.00348249 0)
(0.99906 0.00261818 0)
(0.99907 0.00312687 0)
(0.998847 0.00455895 0)
(0.997931 0.00490836 0)
(0.998469 0.00496323 0)
(0.998732 0.00571076 0)
(0.999716 0.00658673 0)
(0.99974 -0.00018412 0)
(1.00286 -0.000780618 0)
(0.999966 -0.00978157 0)
(0.992071 -0.0073195 0)
(0.991541 0.000251818 0)
(0.998476 0.000494395 0)
(0.999226 -0.00312877 0)
(0.996142 -0.00251122 0)
(0.993704 0.000175823 0)
(0.997367 0.000477489 0)
(0.997909 0.000953775 0)
(0.997609 0.00330323 0)
(0.996602 0.00357616 0)
(0.998926 0.00274954 0)
(0.999238 0.00297881 0)
(0.999029 0.00448989 0)
(0.99793 0.00510895 0)
(0.998494 0.00505836 0)
(0.998921 0.0055314 0)
(0.999913 0.00634654 0)
(0.999782 -0.000202463 0)
(1.00257 -0.000986311 0)
(0.999849 -0.00905372 0)
(0.992708 -0.00707384 0)
(0.99204 -0.000113299 0)
(0.998331 0.000237981 0)
(0.999054 -0.00301056 0)
(0.996337 -0.00243171 0)
(0.993872 0.000151998 0)
(0.997351 0.000560767 0)
(0.998081 0.000789141 0)
(0.99778 0.00298041 0)
(0.996476 0.00361893 0)
(0.998757 0.00290654 0)
(0.999375 0.00287636 0)
(0.999261 0.00432157 0)
(0.99796 0.00523712 0)
(0.998461 0.00522045 0)
(0.999051 0.00541284 0)
(1.00013 0.00608423 0)
(0.999819 -0.000218024 0)
(1.0023 -0.00117665 0)
(0.999738 -0.00836145 0)
(0.993311 -0.00682388 0)
(0.992531 -0.00046855 0)
(0.998202 1.45597e-05 0)
(0.998889 -0.00289917 0)
(0.996528 -0.00236282 0)
(0.994046 0.000113388 0)
(0.997322 0.000639942 0)
(0.99822 0.000667952 0)
(0.997975 0.00265783 0)
(0.996398 0.00360179 0)
(0.998563 0.00307261 0)
(0.999465 0.00282347 0)
(0.999525 0.0040996 0)
(0.998054 0.0052342 0)
(0.998396 0.00537467 0)
(0.999099 0.00537878 0)
(1.00035 0.00580556 0)
(0.999851 -0.00022966 0)
(1.00205 -0.00135174 0)
(0.999636 -0.00771052 0)
(0.993878 -0.00656351 0)
(0.993011 -0.000814199 0)
(0.998092 -0.000182512 0)
(0.998731 -0.00278693 0)
(0.996712 -0.00230487 0)
(0.994228 5.90673e-05 0)
(0.99728 0.000717911 0)
(0.998321 0.000582869 0)
(0.998185 0.00234705 0)
(0.996372 0.00352591 0)
(0.998359 0.00323526 0)
(0.9995 0.00281115 0)
(0.999795 0.0038617 0)
(0.998204 0.0051222 0)
(0.99834 0.0054488 0)
(0.999068 0.00539495 0)
(1.00051 0.00558059 0)
(0.999879 -0.000240598 0)
(1.00182 -0.0015097 0)
(0.999542 -0.00709819 0)
(0.994407 -0.00628842 0)
(0.993482 -0.00115454 0)
(0.998003 -0.000360402 0)
(0.998577 -0.00267255 0)
(0.996888 -0.00225062 0)
(0.994417 -1.10459e-05 0)
(0.997235 0.000779341 0)
(0.998387 0.000543773 0)
(0.998401 0.00204715 0)
(0.996398 0.00340072 0)
(0.998154 0.00337764 0)
(0.999474 0.00284081 0)
(1.00005 0.00362565 0)
(0.998411 0.0049252 0)
(0.998309 0.00548066 0)
(0.998994 0.00543771 0)
(1.0006 0.00547955 0)
(0.999902 -0.000247026 0)
(1.00161 -0.00164996 0)
(0.999459 -0.00653777 0)
(0.994897 -0.00599193 0)
(0.993941 -0.00148438 0)
(0.997938 -0.000530131 0)
(0.998432 -0.00254459 0)
(0.997053 -0.00219277 0)
(0.994614 -9.27624e-05 0)
(0.997189 0.000827632 0)
(0.998417 0.000534629 0)
(0.998614 0.0017775 0)
(0.996478 0.00323671 0)
(0.997967 0.0034809 0)
(0.999389 0.00292723 0)
(1.00027 0.00342917 0)
(0.998675 0.00466761 0)
(0.998335 0.00548544 0)
(0.998899 0.00551549 0)
(1.00061 0.00546798 0)
(0.999921 -0.00025445 0)
(1.00143 -0.00176966 0)
(0.99939 -0.00602493 0)
(0.995346 -0.00567019 0)
(0.994385 -0.00179863 0)
(0.9979 -0.000700828 0)
(0.998294 -0.0024142 0)
(0.997206 -0.00213344 0)
(0.994819 -0.000183083 0)
(0.997148 0.000858175 0)
(0.998416 0.000556235 0)
(0.998818 0.00154721 0)
(0.996606 0.00303885 0)
(0.99781 0.00354106 0)
(0.999256 0.00304288 0)
(1.00043 0.00330807 0)
(0.998982 0.00440002 0)
(0.998436 0.00543741 0)
(0.998806 0.00558436 0)
(1.00054 0.00548949 0)
(0.999936 -0.000260375 0)
(1.00126 -0.00186795 0)
(0.999336 -0.0055661 0)
(0.995755 -0.00532874 0)
(0.99481 -0.0020846 0)
(0.997892 -0.000885914 0)
(0.998169 -0.00228337 0)
(0.997345 -0.00205629 0)
(0.995032 -0.000276414 0)
(0.997118 0.000862086 0)
(0.998383 0.000601793 0)
(0.999003 0.00135459 0)
(0.996782 0.00281983 0)
(0.997696 0.0035719 0)
(0.999096 0.00316247 0)
(1.00053 0.0032675 0)
(0.999304 0.00415146 0)
(0.998609 0.00531776 0)
(0.99873 0.00562114 0)
(1.00042 0.00548395 0)
(0.999949 -0.000266793 0)
(1.00112 -0.00194233 0)
(0.9993 -0.00516343 0)
(0.996126 -0.00497735 0)
(0.995212 -0.00232304 0)
(0.997914 -0.00108438 0)
(0.998061 -0.00215779 0)
(0.997471 -0.0019615 0)
(0.995249 -0.000364338 0)
(0.997106 0.000846333 0)
(0.998327 0.000665192 0)
(0.999163 0.00121518 0)
(0.997 0.00259623 0)
(0.997631 0.00355903 0)
(0.998922 0.00327008 0)
(1.00056 0.00327874 0)
(0.99961 0.00393876 0)
(0.998851 0.00511707 0)
(0.998681 0.00561366 0)
(1.00028 0.00544622 0)
(0.999959 -0.000275821 0)
(1.00098 -0.00198953 0)
(0.999283 -0.0048132 0)
(0.996462 -0.00462512 0)
(0.995586 -0.00250338 0)
(0.997965 -0.00129034 0)
(0.997978 -0.00205018 0)
(0.997583 -0.00185402 0)
(0.995468 -0.000438603 0)
(0.997116 0.000813045 0)
(0.998257 0.000725517 0)
(0.99929 0.00112645 0)
(0.997245 0.0023707 0)
(0.997623 0.00349649 0)
(0.998755 0.00336194 0)
(1.00054 0.00332148 0)
(0.999873 0.00377919 0)
(0.999143 0.00485475 0)
(0.998679 0.00554255 0)
(1.00013 0.00540652 0)
(0.999967 -0.00028762 0)
(1.00087 -0.0020099 0)
(0.999285 -0.00451212 0)
(0.996769 -0.00428354 0)
(0.995929 -0.00262063 0)
(0.998041 -0.00149227 0)
(0.997923 -0.00197152 0)
(0.997686 -0.00173219 0)
(0.995684 -0.000493733 0)
(0.997147 0.000762745 0)
(0.998183 0.000779445 0)
(0.999383 0.00108475 0)
(0.997505 0.00215948 0)
(0.997674 0.00339589 0)
(0.998607 0.00342552 0)
(1.00047 0.00336806 0)
(1.00007 0.00366764 0)
(0.999462 0.00457086 0)
(0.998746 0.0053953 0)
(0.999967 0.00537804 0)
(0.999974 -0.000302799 0)
(1.00076 -0.00200282 0)
(0.999305 -0.00425425 0)
(0.997053 -0.00396468 0)
(0.996239 -0.00267582 0)
(0.998134 -0.00167706 0)
(0.997901 -0.00192792 0)
(0.997784 -0.00160632 0)
(0.995893 -0.000524113 0)
(0.997199 0.000712413 0)
(0.998116 0.000831296 0)
(0.999444 0.00107713 0)
(0.997766 0.00197058 0)
(0.997779 0.00325922 0)
(0.998487 0.00345031 0)
(1.00037 0.00340391 0)
(1.00021 0.00359909 0)
(0.999776 0.0043103 0)
(0.998895 0.00517214 0)
(0.99982 0.00534147 0)
(0.999981 -0.000321958 0)
(1.00066 -0.00196906 0)
(0.99934 -0.00403138 0)
(0.997318 -0.00367779 0)
(0.996517 -0.00267788 0)
(0.998237 -0.00182726 0)
(0.997912 -0.00191632 0)
(0.997886 -0.00149337 0)
(0.996097 -0.000531958 0)
(0.997269 0.000664583 0)
(0.998058 0.000869523 0)
(0.999476 0.00109399 0)
(0.998017 0.00181595 0)
(0.997932 0.00309278 0)
(0.998405 0.00343869 0)
(1.00027 0.00342194 0)
(1.00029 0.00355081 0)
(1.00005 0.00409674 0)
(0.999113 0.00489267 0)
(0.999732 0.00524207 0)
(0.999988 -0.000345436 0)
(1.00057 -0.00191151 0)
(0.999386 -0.00383388 0)
(0.99757 -0.00342757 0)
(0.996765 -0.00263798 0)
(0.998343 -0.00193412 0)
(0.997954 -0.00192793 0)
(0.997996 -0.00140195 0)
(0.996295 -0.000517191 0)
(0.997353 0.000627101 0)
(0.998016 0.000895108 0)
(0.999487 0.00112941 0)
(0.998247 0.00170366 0)
(0.998121 0.0029046 0)
(0.998365 0.00338111 0)
(1.00015 0.00341947 0)
(1.00032 0.00350388 0)
(1.00028 0.00393254 0)
(0.999362 0.00461158 0)
(0.999741 0.00504355 0)
(0.999995 -0.000371548 0)
(1.00049 -0.00183611 0)
(0.999439 -0.00365325 0)
(0.997812 -0.00321815 0)
(0.996988 -0.0025667 0)
(0.998444 -0.00199267 0)
(0.998019 -0.00194718 0)
(0.998122 -0.00134007 0)
(0.996494 -0.000494821 0)
(0.997447 0.000604492 0)
(0.997988 0.000913501 0)
(0.999484 0.00116635 0)
(0.998447 0.00162737 0)
(0.998329 0.00272042 0)
(0.998371 0.00328519 0)
(1.00005 0.00340019 0)
(1.00033 0.00345917 0)
(1.00045 0.00380015 0)
(0.999593 0.00438616 0)
(0.999836 0.00478049 0)
(1 -0.000398937 0)
(1.0004 -0.00174939 0)
(0.999493 -0.00347889 0)
(0.998047 -0.00304652 0)
(0.997192 -0.00247828 0)
(0.998537 -0.0020002 0)
(0.998099 -0.00196421 0)
(0.998263 -0.00130615 0)
(0.996698 -0.00047687 0)
(0.997551 0.000591816 0)
(0.997972 0.000928956 0)
(0.999471 0.001198 0)
(0.99862 0.00157638 0)
(0.998543 0.00255694 0)
(0.998419 0.00316731 0)
(0.999958 0.00335314 0)
(1.00031 0.00340855 0)
(1.0006 0.00366265 0)
(0.999788 0.00421172 0)
(0.999955 0.00454214 0)
(1.00001 -0.000427102 0)
(1.00033 -0.00165477 0)
(0.999545 -0.003305 0)
(0.998273 -0.00290296 0)
(0.997384 -0.0023853 0)
(0.998619 -0.00196442 0)
(0.998185 -0.00195916 0)
(0.998419 -0.00129497 0)
(0.996912 -0.000470364 0)
(0.997666 0.000579365 0)
(0.997967 0.000938786 0)
(0.999452 0.00122464 0)
(0.998765 0.00154503 0)
(0.998756 0.00241012 0)
(0.998496 0.00303863 0)
(0.999891 0.00328051 0)
(1.00027 0.00335816 0)
(1.00072 0.00351996 0)
(0.999979 0.00402854 0)
(1.00005 0.00437296 0)
(1.00002 -0.000452595 0)
(1.00026 -0.00156063 0)
(0.999591 -0.00312572 0)
(0.998491 -0.00277744 0)
(0.997569 -0.00229173 0)
(0.998693 -0.00190041 0)
(0.998268 -0.00191363 0)
(0.998581 -0.0012909 0)
(0.997137 -0.000490677 0)
(0.997794 0.000549278 0)
(0.997974 0.00093496 0)
(0.999431 0.00123532 0)
(0.998885 0.00152287 0)
(0.998958 0.00227757 0)
(0.998599 0.00289989 0)
(0.999852 0.00318708 0)
(1.00021 0.00330648 0)
(1.0008 0.00340606 0)
(1.00018 0.00380697 0)
(1.00015 0.00421261 0)
(1.00003 -0.000473251 0)
(1.00019 -0.00147191 0)
(0.999629 -0.00293786 0)
(0.998698 -0.00266153 0)
(0.997749 -0.00220344 0)
(0.998763 -0.00181679 0)
(0.998345 -0.0018406 0)
(0.998738 -0.00126492 0)
(0.997368 -0.00053274 0)
(0.997939 0.000493613 0)
(0.997995 0.000919506 0)
(0.999413 0.00123034 0)
(0.998985 0.00149591 0)
(0.999145 0.0021635 0)
(0.998716 0.00275988 0)
(0.999843 0.00307263 0)
(1.00016 0.00323179 0)
(1.00082 0.00332979 0)
(1.00037 0.00359561 0)
(1.00029 0.004 0)
(1.00003 -0.000489584 0)
(1.00013 -0.00138653 0)
(0.999658 -0.00274595 0)
(0.998891 -0.00254659 0)
(0.997926 -0.00212569 0)
(0.998833 -0.00172262 0)
(0.998418 -0.00175276 0)
(0.998884 -0.00121741 0)
(0.997595 -0.000572849 0)
(0.998101 0.000418317 0)
(0.998033 0.000890359 0)
(0.999396 0.00121867 0)
(0.99907 0.00146082 0)
(0.999319 0.00205629 0)
(0.998839 0.00263156 0)
(0.999853 0.00295186 0)
(1.00013 0.00312386 0)
(1.00081 0.0032573 0)
(1.0005 0.00344553 0)
(1.00046 0.00375874 0)
(1.00004 -0.000499426 0)
(1.00008 -0.00130861 0)
(0.999679 -0.00255226 0)
(0.999067 -0.00242703 0)
(0.998101 -0.00205464 0)
(0.998904 -0.00162847 0)
(0.998485 -0.00165525 0)
(0.999016 -0.00115835 0)
(0.99781 -0.00059598 0)
(0.998275 0.000339355 0)
(0.998091 0.000844235 0)
(0.999383 0.00119989 0)
(0.999138 0.00142654 0)
(0.999484 0.00194398 0)
(0.99897 0.00250161 0)
(0.999866 0.00284279 0)
(1.00011 0.00299847 0)
(1.00081 0.00314709 0)
(1.00057 0.00333682 0)
(1.00061 0.00354612 0)