/*--------------------------------*- C++ -*----------------------------------*\
| =========                 |                                                 |
| \\      /  F ield         | OpenFOAM: The Open Source CFD Toolbox           |
|  \\    /   O peration     | Version:  v1912                                 |
|   \\  /    A nd           | Website:  www.openfoam.com                      |
|    \\/     M anipulation  |                                                 |
\*---------------------------------------------------------------------------*/
FoamFile
{
    version     2.0;
    format      ascii;
    class       surfaceScalarField;
    location    "9.7";
    object      phi;
}
// * * * * * * * * * * * * * * * * * * * * * * * * * * * * * * * * * * * * * //

dimensions      [0 3 -1 0 0 0 0];
oriented        oriented;


internalField   nonuniform List<scalar> 
19000
(
1.16298e-06
-1.15474e-06
1.18218e-06
1.56937e-06
1.14486e-06
4.42131e-07
1.14602e-06
5.59254e-08
1.17887e-06
-2.17654e-06
1.22323e-06
-1.61171e-06
1.23111e-06
-2.97472e-07
1.21059e-06
4.3461e-07
1.2255e-06
1.81062e-06
1.20485e-06
7.38274e-07
1.2062e-06
3.45739e-07
1.18572e-06
-2.89993e-07
1.18252e-06
-7.50945e-07
1.15557e-06
-8.09338e-07
1.15472e-06
-1.05172e-06
1.14723e-06
-8.19773e-07
1.16153e-06
-8.18767e-07
1.15205e-06
-6.31201e-07
1.17354e-06
-5.17863e-07
-5.91689e-07
1.11652e-06
1.223e-06
-1.15348e-06
1.24441e-06
1.54796e-06
1.20487e-06
4.81667e-07
1.19863e-06
6.21709e-08
1.2265e-06
-2.20442e-06
1.27408e-06
-1.65929e-06
1.2872e-06
-3.10594e-07
1.27234e-06
4.49468e-07
1.27613e-06
1.80683e-06
1.27056e-06
7.43834e-07
1.26108e-06
3.55219e-07
1.2549e-06
-2.83803e-07
1.23793e-06
-7.3398e-07
1.22856e-06
-7.99967e-07
1.21088e-06
-1.03404e-06
1.21542e-06
-8.24313e-07
1.20858e-06
-8.11934e-07
1.22155e-06
-6.44172e-07
1.2157e-06
-5.12013e-07
-5.73157e-07
1.19717e-06
1.2848e-06
-1.15549e-06
1.31088e-06
1.52188e-06
1.26953e-06
5.23017e-07
1.25471e-06
7.69914e-08
1.27374e-06
-2.22345e-06
1.32396e-06
-1.70951e-06
1.34361e-06
-3.3024e-07
1.33381e-06
4.59269e-07
1.3364e-06
1.80424e-06
1.33629e-06
7.43947e-07
1.33028e-06
3.61227e-07
1.32034e-06
-2.73866e-07
1.30019e-06
-7.13832e-07
1.28939e-06
-7.89164e-07
1.2684e-06
-1.01305e-06
1.2694e-06
-8.25316e-07
1.26319e-06
-8.05723e-07
1.27222e-06
-6.53204e-07
1.27089e-06
-5.1068e-07
-5.57347e-07
1.25508e-06
1.34828e-06
-1.15967e-06
1.37547e-06
1.49469e-06
1.3367e-06
5.61788e-07
1.31647e-06
9.72205e-08
1.32404e-06
-2.23103e-06
1.37328e-06
-1.75874e-06
1.40012e-06
-3.57081e-07
1.39653e-06
4.62856e-07
1.40359e-06
1.79718e-06
1.40538e-06
7.42156e-07
1.40111e-06
3.65493e-07
1.38754e-06
-2.60291e-07
1.36496e-06
-6.9125e-07
1.35216e-06
-7.76373e-07
1.33088e-06
-9.91764e-07
1.329e-06
-8.23429e-07
1.32216e-06
-7.98886e-07
1.32927e-06
-6.60313e-07
1.32817e-06
-5.09579e-07
-5.41896e-07
1.31272e-06
1.41253e-06
-1.16384e-06
1.43707e-06
1.47015e-06
1.40591e-06
5.92945e-07
1.38503e-06
1.181e-07
1.38057e-06
-2.22656e-06
1.42367e-06
-1.80184e-06
1.45659e-06
-3.89996e-07
1.46095e-06
4.58494e-07
1.47489e-06
1.78324e-06
1.47744e-06
7.39606e-07
1.47277e-06
3.70164e-07
1.45694e-06
-2.44465e-07
1.4325e-06
-6.66805e-07
1.41845e-06
-7.62327e-07
1.39632e-06
-9.69631e-07
1.393e-06
-8.20112e-07
1.38431e-06
-7.90198e-07
1.38972e-06
-6.6572e-07
1.3884e-06
-5.08255e-07
-5.26152e-07
1.37265e-06
1.47742e-06
-1.16558e-06
1.49791e-06
1.44965e-06
1.47795e-06
6.12902e-07
1.46024e-06
1.35807e-07
1.44445e-06
-2.21077e-06
1.47739e-06
-1.83479e-06
1.51363e-06
-4.26235e-07
1.52764e-06
4.44482e-07
1.54889e-06
1.76199e-06
1.55165e-06
7.36846e-07
1.5456e-06
3.76212e-07
1.52814e-06
-2.27005e-07
1.50257e-06
-6.41235e-07
1.48741e-06
-7.47162e-07
1.46443e-06
-9.46651e-07
1.45968e-06
-8.15364e-07
1.44964e-06
-7.80153e-07
1.45256e-06
-6.68645e-07
1.4518e-06
-5.07498e-07
-5.09735e-07
1.43539e-06
1.54386e-06
-1.16322e-06
1.5616e-06
1.43191e-06
1.55384e-06
6.20662e-07
1.54079e-06
1.48862e-07
1.51479e-06
-2.18477e-06
1.5361e-06
-1.8561e-06
1.5727e-06
-4.6283e-07
1.59692e-06
4.20257e-07
1.62515e-06
1.73376e-06
1.6272e-06
7.34793e-07
1.61975e-06
3.83664e-07
1.6011e-06
-2.08354e-07
1.5754e-06
-6.15537e-07
1.55956e-06
-7.31323e-07
1.53606e-06
-9.23153e-07
1.52963e-06
-8.08931e-07
1.51847e-06
-7.68989e-07
1.51823e-06
-6.68406e-07
1.51806e-06
-5.07329e-07
-4.93045e-07
1.50137e-06
1.61338e-06
-1.15647e-06
1.6309e-06
1.41438e-06
1.63396e-06
6.17608e-07
1.62517e-06
1.57653e-07
1.59026e-06
-2.14986e-06
1.60056e-06
-1.8664e-06
1.6353e-06
-4.97574e-07
1.66879e-06
3.86764e-07
1.70311e-06
1.69945e-06
1.70357e-06
7.3433e-07
1.69514e-06
3.92098e-07
1.67592e-06
-1.89136e-07
1.65092e-06
-5.90531e-07
1.63479e-06
-7.15195e-07
1.61121e-06
-8.99579e-07
1.60302e-06
-8.00735e-07
1.59092e-06
-7.56889e-07
1.58712e-06
-6.64606e-07
1.58696e-06
-5.07176e-07
-4.76577e-07
1.5705e-06
1.68731e-06
-1.14621e-06
1.70655e-06
1.39515e-06
1.71763e-06
6.06533e-07
1.71224e-06
1.63042e-07
1.67003e-06
-2.10765e-06
1.67082e-06
-1.86719e-06
1.70239e-06
-5.29136e-07
1.74299e-06
3.46158e-07
1.78208e-06
1.66036e-06
1.78054e-06
7.3587e-07
1.7718e-06
4.00831e-07
1.75286e-06
-1.70192e-07
1.72928e-06
-5.66955e-07
1.71313e-06
-6.99041e-07
1.68994e-06
-8.76384e-07
1.67997e-06
-7.90765e-07
1.66718e-06
-7.44103e-07
1.65978e-06
-6.57203e-07
1.65881e-06
-5.06208e-07
-4.6041e-07
1.64264e-06
1.76622e-06
-1.13371e-06
1.78771e-06
1.37366e-06
1.80364e-06
5.90597e-07
1.80128e-06
1.65401e-07
1.75391e-06
-2.06027e-06
1.74658e-06
-1.85986e-06
1.774e-06
-5.56557e-07
1.81888e-06
3.01277e-07
1.86132e-06
1.61792e-06
1.85808e-06
7.39113e-07
1.84997e-06
4.08941e-07
1.83228e-06
-1.52505e-07
1.81078e-06
-5.45459e-07
1.7947e-06
-6.82959e-07
1.77222e-06
-8.53904e-07
1.76051e-06
-7.79059e-07
1.74734e-06
-7.30932e-07
1.73673e-06
-6.46593e-07
1.7342e-06
-5.03679e-07
-4.4431e-07
1.7181e-06
1.84992e-06
-1.11988e-06
1.87319e-06
1.35039e-06
1.8913e-06
5.72482e-07
1.89204e-06
1.6467e-07
1.84193e-06
-2.01017e-06
1.82739e-06
-1.84532e-06
1.84945e-06
-5.78619e-07
1.89542e-06
2.55303e-07
1.94014e-06
1.5732e-06
1.93639e-06
7.4286e-07
1.93007e-06
4.15256e-07
1.91467e-06
-1.37097e-07
1.89578e-06
-5.26571e-07
1.87972e-06
-6.66895e-07
1.8581e-06
-8.32285e-07
1.84472e-06
-7.65681e-07
1.83142e-06
-7.17631e-07
1.81834e-06
-6.33515e-07
1.81379e-06
-4.99131e-07
-4.28062e-07
1.79754e-06
1.93799e-06
-1.10503e-06
1.96236e-06
1.32602e-06
1.98094e-06
5.53903e-07
1.98473e-06
1.60878e-07
1.93405e-06
-1.9595e-06
1.913e-06
-1.82426e-06
1.92824e-06
-5.93856e-07
1.97201e-06
2.11531e-07
2.01844e-06
1.52677e-06
2.01619e-06
7.45114e-07
2.01291e-06
4.1854e-07
2.00063e-06
-1.24821e-07
1.9847e-06
-5.10638e-07
1.96847e-06
-6.50672e-07
1.94769e-06
-8.11499e-07
1.93273e-06
-7.50721e-07
1.91943e-06
-7.0433e-07
1.9048e-06
-6.18895e-07
1.89805e-06
-4.92376e-07
-4.11747e-07
1.88173e-06
2.03021e-06
-1.08905e-06
2.05528e-06
1.30095e-06
2.0736e-06
5.35588e-07
2.08011e-06
1.5437e-07
2.03007e-06
-1.90946e-06
2.00349e-06
-1.79768e-06
2.01098e-06
-6.01354e-07
2.04975e-06
1.72763e-07
2.09765e-06
1.47887e-06
2.09893e-06
7.43833e-07
2.09952e-06
4.17952e-07
2.09078e-06
-1.16083e-07
2.07794e-06
-4.97796e-07
2.06129e-06
-6.34025e-07
2.04118e-06
-7.91381e-07
2.02475e-06
-7.34294e-07
2.01141e-06
-6.90987e-07
1.99619e-06
-6.03674e-07
1.98727e-06
-4.83457e-07
-3.95736e-07
1.97126e-06
2.12675e-06
-1.0718e-06
2.15241e-06
1.27529e-06
2.17036e-06
5.17633e-07
2.17911e-06
1.45618e-07
2.1299e-06
-1.86024e-06
2.09905e-06
-1.76683e-06
2.09916e-06
-6.01463e-07
2.13145e-06
1.4047e-07
2.18058e-06
1.42975e-06
2.1865e-06
7.37911e-07
2.19101e-06
4.13448e-07
2.18565e-06
-1.10723e-07
2.17586e-06
-4.8801e-07
2.15851e-06
-6.16674e-07
2.13881e-06
-7.71685e-07
2.12107e-06
-7.16552e-07
2.10746e-06
-6.77377e-07
2.09248e-06
-5.88693e-07
2.08166e-06
-4.72634e-07
-3.80485e-07
2.06641e-06
2.22795e-06
-1.05326e-06
2.25419e-06
1.24905e-06
2.27187e-06
4.99959e-07
2.28254e-06
1.34944e-07
2.23372e-06
-1.81142e-06
2.19986e-06
-1.73297e-06
2.19399e-06
-5.95601e-07
2.21999e-06
1.14475e-07
2.27006e-06
1.37968e-06
2.28041e-06
7.27559e-07
2.28813e-06
4.0573e-07
2.28553e-06
-1.08121e-07
2.27867e-06
-4.8115e-07
2.26042e-06
-5.98423e-07
2.24088e-06
-7.52146e-07
2.22204e-06
-6.9771e-07
2.20776e-06
-6.63102e-07
2.19366e-06
-5.74587e-07
2.18138e-06
-4.60358e-07
-3.66313e-07
2.16721e-06
2.33415e-06
-1.03354e-06
2.361e-06
1.2222e-06
2.37838e-06
4.82581e-07
2.39086e-06
1.2246e-07
2.34191e-06
-1.76247e-06
2.30595e-06
-1.69701e-06
2.29578e-06
-5.85428e-07
2.31677e-06
9.3488e-08
2.3676e-06
1.32885e-06
2.38133e-06
7.13822e-07
2.39127e-06
3.95793e-07
2.39058e-06
-1.07434e-07
2.38648e-06
-4.77043e-07
2.36729e-06
-5.79235e-07
2.34767e-06
-7.32524e-07
2.32805e-06
-6.7809e-07
2.31259e-06
-6.47645e-07
2.29974e-06
-5.61736e-07
2.28652e-06
-4.47137e-07
-3.53298e-07
2.2735e-06
2.44563e-06
-1.01278e-06
2.4731e-06
1.19474e-06
2.49001e-06
4.65665e-07
2.50431e-06
1.08161e-07
2.45492e-06
-1.71308e-06
2.41743e-06
-1.65953e-06
2.40424e-06
-5.72231e-07
2.42172e-06
7.59992e-08
2.47328e-06
1.27729e-06
2.48928e-06
6.9782e-07
2.50059e-06
3.84488e-07
2.50094e-06
-1.07783e-07
2.49932e-06
-4.75429e-07
2.47936e-06
-5.59269e-07
2.45944e-06
-7.1261e-07
2.43948e-06
-6.58125e-07
2.42234e-06
-6.30503e-07
2.41081e-06
-5.50205e-07
2.3971e-06
-4.3343e-07
-3.41289e-07
2.38509e-06
2.56265e-06
-9.91129e-07
2.59074e-06
1.16665e-06
2.60694e-06
4.49466e-07
2.62307e-06
9.20296e-08
2.57313e-06
-1.66313e-06
2.53447e-06
-1.62088e-06
2.5191e-06
-5.56855e-07
2.53426e-06
6.08347e-08
2.58658e-06
1.22498e-06
2.60405e-06
6.80344e-07
2.61621e-06
3.72329e-07
2.61677e-06
-1.08338e-07
2.61723e-06
-4.75893e-07
2.59683e-06
-5.38868e-07
2.57645e-06
-6.92224e-07
2.55667e-06
-6.38354e-07
2.5375e-06
-6.11323e-07
2.52702e-06
-5.39731e-07
2.51323e-06
-4.19636e-07
-3.29962e-07
2.5019e-06
2.68543e-06
-9.68734e-07
2.71416e-06
1.13792e-06
2.72936e-06
4.34268e-07
2.74732e-06
7.40691e-08
2.69688e-06
-1.61269e-06
2.65733e-06
-1.58134e-06
2.64038e-06
-5.39901e-07
2.65396e-06
4.72537e-08
2.70698e-06
1.17196e-06
2.72548e-06
6.61843e-07
2.73831e-06
3.59496e-07
2.73834e-06
-1.08363e-07
2.74026e-06
-4.77814e-07
2.71991e-06
-5.18519e-07
2.6989e-06
-6.7121e-07
2.67988e-06
-6.19338e-07
2.65861e-06
-5.90053e-07
2.64859e-06
-5.29713e-07
2.63512e-06
-4.06167e-07
-3.18901e-07
2.62406e-06
2.81425e-06
-9.45717e-07
2.84361e-06
1.10856e-06
2.85752e-06
4.20363e-07
2.87728e-06
5.43067e-08
2.82648e-06
-1.5619e-06
2.78628e-06
-1.54113e-06
2.76824e-06
-5.21856e-07
2.78066e-06
3.48351e-08
2.83422e-06
1.11839e-06
2.85351e-06
6.42559e-07
2.86708e-06
3.4592e-07
2.86599e-06
-1.07274e-07
2.86856e-06
-4.80378e-07
2.84882e-06
-4.98778e-07
2.82706e-06
-6.49458e-07
2.80926e-06
-6.01531e-07
2.78622e-06
-5.67021e-07
2.77583e-06
-5.19315e-07
2.76307e-06
-3.9341e-07
-3.07751e-07
2.75192e-06
2.94937e-06
-9.22197e-07
2.97936e-06
1.07858e-06
2.99167e-06
4.0805e-07
3.01317e-06
3.28085e-08
2.96226e-06
-1.51098e-06
2.9216e-06
-1.50048e-06
2.90285e-06
-5.0311e-07
2.91432e-06
2.33715e-08
2.96819e-06
1.06451e-06
2.98812e-06
6.22633e-07
3.00267e-06
3.31367e-07
3.00011e-06
-1.04709e-07
3.00238e-06
-4.82648e-07
2.9838e-06
-4.802e-07
2.96127e-06
-6.26931e-07
2.94487e-06
-5.85126e-07
2.92078e-06
-5.42936e-07
2.90912e-06
-5.07654e-07
2.89735e-06
-3.81642e-07
-2.96351e-07
2.88595e-06
3.09108e-06
-8.98271e-07
3.12168e-06
1.04798e-06
3.13212e-06
3.9761e-07
3.15521e-06
9.71569e-09
3.10447e-06
-1.46024e-06
3.06355e-06
-1.45956e-06
3.04439e-06
-4.83943e-07
3.05495e-06
1.28133e-08
3.10891e-06
1.01055e-06
3.12939e-06
6.02153e-07
3.14523e-06
3.15531e-07
3.14109e-06
-1.00569e-07
3.14209e-06
-4.83653e-07
3.12515e-06
-4.63257e-07
3.1019e-06
-6.03685e-07
3.08679e-06
-5.70012e-07
3.06255e-06
-5.18701e-07
3.049e-06
-4.94102e-07
3.03825e-06
-3.70894e-07
-2.84765e-07
3.02667e-06
3.23965e-06
-8.74009e-07
3.2709e-06
1.01673e-06
3.27924e-06
3.89267e-07
3.30368e-06
-1.47213e-08
3.25338e-06
-1.40994e-06
3.21241e-06
-1.4186e-06
3.19302e-06
-4.64553e-07
3.20261e-06
3.22505e-09
3.25651e-06
9.56643e-07
3.27749e-06
5.81178e-07
3.29489e-06
2.98134e-07
3.28934e-06
-9.50216e-08
3.28817e-06
-4.82482e-07
3.27318e-06
-4.48266e-07
3.24937e-06
-5.79877e-07
3.23515e-06
-5.55791e-07
3.2117e-06
-4.9525e-07
3.196e-06
-4.78399e-07
3.18601e-06
-3.60905e-07
-2.73299e-07
3.17454e-06
3.39535e-06
-8.4943e-07
3.42737e-06
9.84713e-07
3.43351e-06
3.83123e-07
3.45892e-06
-4.01239e-08
3.40922e-06
-1.36023e-06
3.36842e-06
-1.3778e-06
3.34899e-06
-4.45127e-07
3.35749e-06
-5.26925e-09
3.41127e-06
9.02859e-07
3.43268e-06
5.59768e-07
3.45181e-06
2.79008e-07
3.44526e-06
-8.84739e-08
3.44114e-06
-4.78357e-07
3.42824e-06
-4.35366e-07
3.40409e-06
-5.55728e-07
3.39019e-06
-5.41892e-07
3.36833e-06
-4.73388e-07
3.35057e-06
-4.6064e-07
3.34089e-06
-3.51223e-07
-2.62381e-07
3.32997e-06
3.55846e-06
-8.24481e-07
3.59144e-06
9.51733e-07
3.59547e-06
3.79091e-07
3.62135e-06
-6.60033e-08
3.57225e-06
-1.31113e-06
3.5318e-06
-1.33736e-06
3.51258e-06
-4.25904e-07
3.51986e-06
-1.25492e-08
3.57356e-06
8.49159e-07
3.59532e-06
5.38004e-07
3.61618e-06
2.58154e-07
3.60923e-06
-8.15232e-08
3.60157e-06
-4.70701e-07
3.59069e-06
-4.24481e-07
3.56645e-06
-5.31493e-07
3.55227e-06
-5.2771e-07
3.53255e-06
-4.53672e-07
3.51311e-06
-4.41199e-07
3.50327e-06
-3.41377e-07
-2.52359e-07
3.49324e-06
3.72926e-06
-7.99037e-07
3.76348e-06
9.17519e-07
3.7657e-06
3.76863e-07
3.79151e-06
-9.18108e-08
3.7428e-06
-1.26242e-06
3.70276e-06
-1.29732e-06
3.68408e-06
-4.07218e-07
3.69008e-06
-1.85498e-08
3.7438e-06
7.95437e-07
3.76582e-06
5.15987e-07
3.78818e-06
2.35791e-07
3.78155e-06
-7.48925e-08
3.77006e-06
-4.5921e-07
3.76089e-06
-4.15315e-07
3.73688e-06
-5.07482e-07
3.72183e-06
-5.12664e-07
3.70453e-06
-4.36368e-07
3.684e-06
-4.20665e-07
3.67355e-06
-3.30935e-07
-2.43419e-07
3.66461e-06
3.90805e-06
-7.729e-07
3.94381e-06
8.81756e-07
3.94476e-06
3.75913e-07
3.96996e-06
-1.17006e-07
3.92126e-06
-1.21373e-06
3.88153e-06
-1.25758e-06
3.8638e-06
-3.89486e-07
3.86853e-06
-2.32868e-08
3.92241e-06
7.41561e-07
3.94459e-06
4.93804e-07
3.96802e-06
2.12363e-07
3.96246e-06
-6.93311e-08
3.94715e-06
-4.43901e-07
3.93923e-06
-4.07396e-07
3.91578e-06
-4.84029e-07
3.89942e-06
-4.96307e-07
3.88443e-06
-4.21381e-07
3.86351e-06
-3.99745e-07
3.85219e-06
-3.19608e-07
-2.35493e-07
3.84426e-06
4.09518e-06
-7.45831e-07
4.13279e-06
8.44151e-07
4.13314e-06
3.75562e-07
4.15726e-06
-1.41127e-07
4.10814e-06
-1.1646e-06
4.06838e-06
-1.21783e-06
4.05205e-06
-3.73157e-07
4.05562e-06
-2.6851e-08
4.10975e-06
6.8743e-07
4.13209e-06
4.71463e-07
4.15594e-06
1.88508e-07
4.1521e-06
-6.54883e-08
4.13334e-06
-4.25143e-07
4.12609e-06
-4.00143e-07
4.10354e-06
-4.61478e-07
4.08561e-06
-4.78383e-07
4.0725e-06
-4.08268e-07
4.05191e-06
-3.79156e-07
4.03958e-06
-3.07279e-07
-2.28338e-07
4.03243e-06
4.29106e-06
-7.17592e-07
4.33072e-06
8.04498e-07
4.33121e-06
3.75068e-07
4.35392e-06
-1.63838e-07
4.30398e-06
-1.11466e-06
4.26371e-06
-1.17756e-06
4.24918e-06
-3.5862e-07
4.25172e-06
-2.93932e-08
4.30611e-06
6.33042e-07
4.32871e-06
4.48863e-07
4.35225e-06
1.64961e-07
4.35056e-06
-6.37964e-08
4.32903e-06
-4.03615e-07
4.32185e-06
-3.92959e-07
4.3005e-06
-4.40129e-07
4.28099e-06
-4.58874e-07
4.26904e-06
-3.96313e-07
4.24942e-06
-3.59537e-07
4.23615e-06
-2.94013e-07
-2.21561e-07
4.22938e-06
4.49618e-06
-6.87998e-07
4.53794e-06
7.62741e-07
4.53926e-06
3.73742e-07
4.56036e-06
-1.84937e-07
4.5094e-06
-1.0637e-06
4.46805e-06
-1.13621e-06
4.45555e-06
-3.46125e-07
4.45724e-06
-3.10795e-08
4.51173e-06
5.78547e-07
4.53482e-06
4.25775e-07
4.55736e-06
1.42428e-07
4.55797e-06
-6.44144e-08
4.53457e-06
-3.8021e-07
4.52689e-06
-3.85284e-07
4.50695e-06
-4.20182e-07
4.48609e-06
-4.38016e-07
4.47449e-06
-3.84714e-07
4.4563e-06
-3.41346e-07
4.4423e-06
-2.80019e-07
-2.1471e-07
4.43545e-06
4.71107e-06
-6.56957e-07
4.75481e-06
7.19004e-07
4.75751e-06
3.71044e-07
4.7769e-06
-2.04328e-07
4.72498e-06
-1.01179e-06
4.68203e-06
-1.09325e-06
4.67163e-06
-3.35724e-07
4.67263e-06
-3.20852e-08
4.7269e-06
5.24281e-07
4.75078e-06
4.01889e-07
4.77173e-06
1.21479e-07
4.77456e-06
-6.72456e-08
4.75026e-06
-3.5591e-07
4.7416e-06
-3.76625e-07
4.72318e-06
-4.01756e-07
4.70137e-06
-4.16213e-07
4.6894e-06
-3.72738e-07
4.67283e-06
-3.24779e-07
4.6585e-06
-2.65692e-07
-2.07336e-07
4.65113e-06
4.93634e-06
-6.24499e-07
4.98176e-06
6.73582e-07
4.98617e-06
3.66634e-07
5.0038e-06
-2.21961e-07
4.95127e-06
-9.59256e-07
4.90637e-06
-1.04834e-06
4.89791e-06
-3.27267e-07
4.89842e-06
-3.25885e-08
4.95196e-06
4.70732e-07
4.97694e-06
3.76915e-07
4.99594e-06
1.02473e-07
5.00067e-06
-7.19748e-08
4.97645e-06
-3.31687e-07
4.96642e-06
-3.66593e-07
4.94952e-06
-3.84861e-07
4.92731e-06
-3.93999e-07
4.9144e-06
-3.59827e-07
4.89935e-06
-3.09736e-07
4.8852e-06
-2.51533e-07
-1.99135e-07
4.87699e-06
5.17259e-06
-5.90778e-07
5.21929e-06
6.2689e-07
5.22554e-06
3.60386e-07
5.24133e-06
-2.37759e-07
5.18874e-06
-9.06658e-07
5.14182e-06
-1.00143e-06
5.13499e-06
-3.20438e-07
5.13519e-06
-3.27908e-08
5.18745e-06
4.18471e-07
5.21371e-06
3.5066e-07
5.23063e-06
8.55475e-08
5.2368e-06
-7.81377e-08
5.2135e-06
-3.0839e-07
5.20185e-06
-3.54947e-07
5.18634e-06
-3.69347e-07
5.16431e-06
-3.71964e-07
5.15017e-06
-3.45696e-07
5.1363e-06
-2.95857e-07
5.12279e-06
-2.38028e-07
-1.90103e-07
5.11376e-06
5.42046e-06
-5.5605e-07
5.46795e-06
5.79397e-07
5.476e-06
3.52342e-07
5.4898e-06
-2.5156e-07
5.43781e-06
-8.54664e-07
5.38909e-06
-9.52714e-07
5.38347e-06
-3.14815e-07
5.38362e-06
-3.29414e-08
5.43401e-06
3.68084e-07
5.4616e-06
3.23067e-07
5.47649e-06
7.06568e-08
5.48352e-06
-8.51713e-08
5.46181e-06
-2.86681e-07
5.44853e-06
-3.41661e-07
5.43408e-06
-3.54899e-07
5.41275e-06
-3.50638e-07
5.39741e-06
-3.30355e-07
5.38419e-06
-2.82632e-07
5.37169e-06
-2.25526e-07
-1.80539e-07
5.36212e-06
5.68055e-06
-5.20643e-07
5.72838e-06
5.31573e-07
5.73808e-06
3.42637e-07
5.74963e-06
-2.63106e-07
5.69889e-06
-8.03931e-07
5.64883e-06
-9.0265e-07
5.64404e-06
-3.10029e-07
5.64437e-06
-3.32641e-08
5.69234e-06
3.20105e-07
5.7212e-06
2.94215e-07
5.73422e-06
5.76373e-08
5.74155e-06
-9.25055e-08
5.72185e-06
-2.6698e-07
5.70713e-06
-3.26945e-07
5.69332e-06
-3.41086e-07
5.67304e-06
-3.30362e-07
5.65677e-06
-3.14082e-07
5.64373e-06
-2.69595e-07
5.63231e-06
-2.14105e-07
-1.70924e-07
5.6227e-06
5.95346e-06
-4.84909e-07
6.00119e-06
4.83843e-07
6.01239e-06
3.31433e-07
6.02136e-06
-2.72071e-07
5.97247e-06
-7.55041e-07
5.92161e-06
-8.51791e-07
5.91739e-06
-3.05808e-07
5.9181e-06
-3.39727e-08
5.96321e-06
2.74988e-07
5.99311e-06
2.64319e-07
6.00454e-06
4.62094e-08
6.01162e-06
-9.95862e-08
5.99414e-06
-2.49501e-07
5.97831e-06
-3.11121e-07
5.96471e-06
-3.27482e-07
5.94568e-06
-3.11335e-07
5.92885e-06
-2.97247e-07
5.91572e-06
-2.56463e-07
5.90519e-06
-2.03578e-07
-1.61668e-07
5.89593e-06
6.23977e-06
-4.49193e-07
6.28702e-06
4.36598e-07
6.29961e-06
3.18838e-07
6.30567e-06
-2.7813e-07
6.25904e-06
-7.08408e-07
6.20793e-06
-8.00688e-07
6.20406e-06
-3.01932e-07
6.20542e-06
-3.53393e-08
6.24731e-06
2.33105e-07
6.27795e-06
2.33677e-07
6.28814e-06
3.60181e-08
6.29447e-06
-1.05918e-07
6.27927e-06
-2.34296e-07
6.2627e-06
-2.94554e-07
6.24899e-06
-3.13771e-07
6.2312e-06
-2.9354e-07
6.21417e-06
-2.80224e-07
6.20093e-06
-2.43217e-07
6.19094e-06
-1.93589e-07
-1.53078e-07
6.18235e-06
6.54009e-06
-4.13812e-07
6.58648e-06
3.90206e-07
6.60042e-06
3.04894e-07
6.60333e-06
-2.81035e-07
6.5592e-06
-6.64274e-07
6.5083e-06
-7.49793e-07
6.50459e-06
-2.98222e-07
6.5069e-06
-3.76459e-08
6.54531e-06
1.94696e-07
6.57631e-06
2.02671e-07
6.58566e-06
2.66749e-08
6.5909e-06
-1.11166e-07
6.57782e-06
-2.21216e-07
6.56092e-06
-2.77651e-07
6.54686e-06
-2.99714e-07
6.53029e-06
-2.76971e-07
6.51334e-06
-2.63267e-07
6.50004e-06
-2.29918e-07
6.49027e-06
-1.83819e-07
-1.45175e-07
6.48236e-06
6.85503e-06
-3.79048e-07
6.90019e-06
3.45039e-07
6.91552e-06
2.89566e-07
6.91519e-06
-2.80708e-07
6.8736e-06
-6.22679e-07
6.82334e-06
-6.99529e-07
6.81952e-06
-2.94405e-07
6.82302e-06
-4.11497e-08
6.85788e-06
1.5984e-07
6.88881e-06
1.71743e-07
6.89767e-06
1.78133e-08
6.90166e-06
-1.15158e-07
6.89049e-06
-2.10045e-07
6.87365e-06
-2.6081e-07
6.859e-06
-2.85061e-07
6.84354e-06
-2.61514e-07
6.82703e-06
-2.46763e-07
6.81375e-06
-2.16632e-07
6.80409e-06
-1.74163e-07
-1.37589e-07
6.79651e-06
7.18525e-06
-3.45159e-07
7.2288e-06
3.01489e-07
7.24557e-06
2.72795e-07
7.24211e-06
-2.77245e-07
7.20298e-06
-5.83555e-07
7.15373e-06
-6.50281e-07
7.14944e-06
-2.90115e-07
7.15431e-06
-4.60156e-08
7.18566e-06
1.28492e-07
7.21608e-06
1.41316e-07
7.22479e-06
9.10606e-09
7.22747e-06
-1.17834e-07
7.21793e-06
-2.00503e-07
7.20163e-06
-2.4452e-07
7.18633e-06
-2.69756e-07
7.17149e-06
-2.46676e-07
7.15564e-06
-2.30913e-07
7.14246e-06
-2.03449e-07
7.13302e-06
-1.64727e-07
-1.30398e-07
7.12583e-06
7.53145e-06
-3.1238e-07
7.57296e-06
2.59972e-07
7.59124e-06
2.54516e-07
7.58478e-06
-2.7078e-07
7.54804e-06
-5.46817e-07
7.50024e-06
-6.02482e-07
7.49504e-06
-2.84917e-07
7.50133e-06
-5.22985e-08
7.52939e-06
1.0043e-07
7.55878e-06
1.11928e-07
7.56767e-06
2.11637e-10
7.56914e-06
-1.19298e-07
7.56087e-06
-1.9224e-07
7.54553e-06
-2.29182e-07
7.52977e-06
-2.53995e-07
7.51519e-06
-2.32095e-07
7.49972e-06
-2.15438e-07
7.48631e-06
-1.90042e-07
7.47716e-06
-1.55576e-07
-1.23674e-07
7.47043e-06
7.89438e-06
-2.80946e-07
7.93339e-06
2.20956e-07
7.95319e-06
2.34722e-07
7.94391e-06
-2.61501e-07
7.90953e-06
-5.12443e-07
7.8636e-06
-5.56549e-07
7.85721e-06
-2.7852e-07
7.86465e-06
-5.97445e-08
7.88983e-06
7.52478e-08
7.91764e-06
8.41226e-08
7.9269e-06
-9.04956e-09
7.9273e-06
-1.19696e-07
7.92012e-06
-1.85067e-07
7.90639e-06
-2.15444e-07
7.89077e-06
-2.38382e-07
7.8759e-06
-2.1722e-07
7.85995e-06
-1.99487e-07
7.84546e-06
-1.75551e-07
7.83593e-06
-1.46048e-07
-1.19167e-07
7.83142e-06
8.27481e-06
-2.51071e-07
8.31088e-06
1.84886e-07
8.3322e-06
2.13397e-07
8.32042e-06
-2.4972e-07
8.28821e-06
-4.80233e-07
8.24461e-06
-5.12953e-07
8.23691e-06
-2.70821e-07
8.24495e-06
-6.77782e-08
8.26768e-06
5.25171e-08
8.29356e-06
5.8241e-08
8.3032e-06
-1.86857e-08
8.30278e-06
-1.19279e-07
8.29616e-06
-1.78449e-07
8.28412e-06
-2.03402e-07
8.27101e-06
-2.25271e-07
8.2619e-06
-2.08109e-07
8.25481e-06
-1.92402e-07
8.24744e-06
-1.68181e-07
8.23977e-06
-1.3838e-07
-1.10082e-07
8.23069e-06
8.67356e-06
-2.22971e-07
8.70624e-06
1.52212e-07
8.72899e-06
1.90647e-07
8.71536e-06
-2.36099e-07
8.68481e-06
-4.49678e-07
8.64398e-06
-4.72123e-07
8.63506e-06
-2.61897e-07
8.64313e-06
-7.58491e-08
8.66371e-06
3.19367e-08
8.68742e-06
3.45248e-08
8.69729e-06
-2.85532e-08
8.69652e-06
-1.18506e-07
8.69063e-06
-1.72556e-07
8.68097e-06
-1.93747e-07
8.66906e-06
-2.13356e-07
8.65981e-06
-1.98866e-07
8.6517e-06
-1.84289e-07
8.64393e-06
-1.60411e-07
8.63559e-06
-1.30037e-07
-1.02135e-07
8.62764e-06
9.09145e-06
-1.96806e-07
9.12047e-06
1.232e-07
9.14435e-06
1.6676e-07
9.1297e-06
-2.21447e-07
9.09993e-06
-4.19909e-07
9.06251e-06
-4.34698e-07
9.05252e-06
-2.51909e-07
9.06014e-06
-8.34753e-08
9.07865e-06
1.34359e-08
9.10028e-06
1.2893e-08
9.11032e-06
-3.86001e-08
9.10961e-06
-1.17789e-07
9.1036e-06
-1.66544e-07
9.09491e-06
-1.85059e-07
9.08455e-06
-2.02999e-07
9.0764e-06
-1.90721e-07
9.06961e-06
-1.77494e-07
9.06271e-06
-1.53511e-07
9.05435e-06
-1.21677e-07
-9.31195e-08
9.04533e-06
9.52938e-06
-1.72722e-07
9.55456e-06
9.80195e-08
9.5791e-06
1.42219e-07
9.56443e-06
-2.06776e-07
9.53471e-06
-3.90191e-07
9.50076e-06
-4.00745e-07
9.49027e-06
-2.41421e-07
9.49716e-06
-9.03693e-08
9.5135e-06
-2.90686e-09
9.53267e-06
-6.2781e-09
9.54308e-06
-4.90025e-08
9.54343e-06
-1.18143e-07
9.53793e-06
-1.61046e-07
9.52722e-06
-1.74341e-07
9.51184e-06
-1.87625e-07
9.49696e-06
-1.75838e-07
9.48227e-06
-1.62801e-07
9.46938e-06
-1.40623e-07
9.46165e-06
-1.13948e-07
-9.08192e-08
9.45935e-06
9.9882e-06
-1.50785e-07
1.00095e-05
7.6684e-08
1.00343e-05
1.17499e-07
1.00204e-05
-1.92896e-07
9.99046e-06
-3.60277e-07
9.95944e-06
-3.69728e-07
9.94923e-06
-2.31211e-07
9.95507e-06
-9.62056e-08
9.96936e-06
-1.71945e-08
9.98601e-06
-2.29262e-08
9.99546e-06
-5.84545e-08
9.99448e-06
-1.17169e-07
9.9898e-06
-1.56365e-07
9.9839e-06
-1.68439e-07
9.97742e-06
-1.81147e-07
9.97286e-06
-1.71277e-07
9.96755e-06
-1.57492e-07
9.96187e-06
-1.3494e-07
9.9535e-06
-1.05577e-07
-7.96837e-08
9.94236e-06
1.04689e-05
-1.31026e-07
1.04866e-05
5.901e-08
1.05107e-05
9.33116e-08
1.04985e-05
-1.80662e-07
1.04684e-05
-3.30131e-07
1.04397e-05
-3.41019e-07
1.04299e-05
-2.21456e-07
1.04351e-05
-1.01451e-07
1.0447e-05
-2.90952e-08
1.0461e-05
-3.69074e-08
1.04698e-05
-6.72622e-08
1.04694e-05
-1.16732e-07
1.04629e-05
-1.4985e-07
1.04531e-05
-1.58693e-07
1.04396e-05
-1.67618e-07
1.04268e-05
-1.58522e-07
1.04152e-05
-1.45857e-07
1.04053e-05
-1.25055e-07
1.03991e-05
-9.93778e-08
-7.65379e-08
1.0396e-05
1.09724e-05
-1.13401e-07
1.09868e-05
4.45827e-08
1.10098e-05
7.03652e-08
1.09995e-05
-1.7036e-07
1.09697e-05
-3.00395e-07
1.09424e-05
-3.13711e-07
1.09332e-05
-2.12217e-07
1.0938e-05
-1.06286e-07
1.09479e-05
-3.89829e-08
1.09592e-05
-4.82175e-08
1.09661e-05
-7.41818e-08
1.09648e-05
-1.15412e-07
1.0958e-05
-1.43048e-07
1.09489e-05
-1.49591e-07
1.09371e-05
-1.55796e-07
1.09265e-05
-1.47955e-07
1.09163e-05
-1.35649e-07
1.09081e-05
-1.16854e-07
1.0903e-05
-9.4298e-08
-7.2071e-08
1.08986e-05
1.14998e-05
-9.78245e-08
1.15114e-05
3.29364e-08
1.15325e-05
4.92596e-08
1.15241e-05
-1.61903e-07
1.14957e-05
-2.72027e-07
1.1469e-05
-2.86977e-07
1.14601e-05
-2.0332e-07
1.14648e-05
-1.11021e-07
1.14731e-05
-4.73034e-08
1.14815e-05
-5.65954e-08
1.14868e-05
-7.94411e-08
1.14856e-05
-1.14234e-07
1.14793e-05
-1.36723e-07
1.1471e-05
-1.41304e-07
1.14602e-05
-1.45021e-07
1.14499e-05
-1.37645e-07
1.14408e-05
-1.26528e-07
1.14333e-05
-1.09392e-07
1.14289e-05
-8.99047e-08
-6.8607e-08
1.14255e-05
1.20521e-05
-8.41258e-08
1.20617e-05
2.33752e-08
1.20803e-05
3.06652e-08
1.20735e-05
-1.55151e-07
1.20472e-05
-2.45677e-07
1.20211e-05
-2.60911e-07
1.20116e-05
-1.93819e-07
1.20163e-05
-1.1575e-07
1.20237e-05
-5.46412e-08
1.20299e-05
-6.28279e-08
1.20336e-05
-8.31616e-08
1.20322e-05
-1.12783e-07
1.20262e-05
-1.30719e-07
1.20185e-05
-1.33667e-07
1.20086e-05
-1.35131e-07
1.19992e-05
-1.28181e-07
1.1991e-05
-1.18361e-07
1.19839e-05
-1.02311e-07
1.19788e-05
-8.48139e-08
-6.58444e-08
1.19761e-05
1.26306e-05
-7.21009e-08
1.26386e-05
1.5367e-08
1.26543e-05
1.49895e-08
1.2649e-05
-1.49876e-07
1.26251e-05
-2.21801e-07
1.26e-05
-2.35777e-07
1.25893e-05
-1.83122e-07
1.25937e-05
-1.2018e-07
1.26009e-05
-6.1822e-08
1.26053e-05
-6.72738e-08
1.26073e-05
-8.518e-08
1.26055e-05
-1.10914e-07
1.25999e-05
-1.25139e-07
1.25929e-05
-1.2667e-07
1.2584e-05
-1.26259e-07
1.2575e-05
-1.19127e-07
1.25669e-05
-1.10293e-07
1.25604e-05
-9.5814e-08
1.25555e-05
-7.98817e-08
-6.39622e-08
1.25536e-05
1.32363e-05
-6.15132e-08
1.32433e-05
8.37588e-09
1.32558e-05
2.50814e-09
1.32515e-05
-1.45595e-07
1.32304e-05
-2.00703e-07
1.32067e-05
-2.12056e-07
1.31948e-05
-1.71243e-07
1.31983e-05
-1.23593e-07
1.32053e-05
-6.89121e-08
1.32088e-05
-7.07611e-08
1.32094e-05
-8.57758e-08
1.32069e-05
-1.08415e-07
1.32014e-05
-1.19586e-07
1.31948e-05
-1.20111e-07
1.31867e-05
-1.18185e-07
1.31785e-05
-1.10862e-07
1.31709e-05
-1.02707e-07
1.31653e-05
-9.02066e-08
1.31605e-05
-7.51106e-08
-6.14301e-08
1.3158e-05
1.38708e-05
-5.21371e-08
1.38771e-05
2.04186e-09
1.38864e-05
-6.81492e-09
1.38826e-05
-1.41708e-07
1.38644e-05
-1.82582e-07
1.38425e-05
-1.90107e-07
1.38297e-05
-1.58487e-07
1.38312e-05
-1.25095e-07
1.38383e-05
-7.59917e-08
1.38416e-05
-7.40046e-08
1.38409e-05
-8.51125e-08
1.38376e-05
-1.05133e-07
1.38321e-05
-1.14086e-07
1.3826e-05
-1.13972e-07
1.38186e-05
-1.10844e-07
1.38113e-05
-1.03487e-07
1.38041e-05
-9.55286e-08
1.37986e-05
-8.4775e-08
1.37943e-05
-7.07722e-08
-5.84545e-08
1.37913e-05
1.45353e-05
-4.37641e-08
1.45412e-05
-3.88917e-09
1.45477e-05
-1.33317e-08
1.45435e-05
-1.37492e-07
1.45281e-05
-1.67154e-07
1.45084e-05
-1.70431e-07
1.44952e-05
-1.45277e-07
1.44946e-05
-1.24463e-07
1.4501e-05
-8.23661e-08
1.45042e-05
-7.72294e-08
1.4503e-05
-8.39708e-08
1.44992e-05
-1.01255e-07
1.44936e-05
-1.08544e-07
1.44876e-05
-1.07917e-07
1.44808e-05
-1.0409e-07
1.44742e-05
-9.69106e-08
1.44677e-05
-8.89974e-08
1.44625e-05
-7.95396e-08
1.44588e-05
-6.70674e-08
-5.53437e-08
1.44556e-05
1.52314e-05
-3.62619e-08
1.5237e-05
-9.49609e-09
1.52412e-05
-1.75839e-08
1.52359e-05
-1.32124e-07
1.52228e-05
-1.54047e-07
1.52057e-05
-1.53385e-07
1.51925e-05
-1.32029e-07
1.51898e-05
-1.21779e-07
1.51945e-05
-8.70596e-08
1.51981e-05
-8.08245e-08
1.51971e-05
-8.29601e-08
1.51929e-05
-9.70855e-08
1.51871e-05
-1.02755e-07
1.51812e-05
-1.02019e-07
1.5175e-05
-9.78699e-08
1.51691e-05
-9.10101e-08
1.51632e-05
-8.31312e-08
1.51582e-05
-7.44882e-08
1.51548e-05
-6.36479e-08
-5.24275e-08
1.51518e-05
1.59606e-05
-2.95709e-08
1.59658e-05
-1.46121e-08
1.59684e-05
-2.02745e-08
1.59613e-05
-1.25001e-07
1.59498e-05
-1.4248e-07
1.59355e-05
-1.39177e-07
1.5923e-05
-1.19464e-07
1.59185e-05
-1.17338e-07
1.59211e-05
-8.96568e-08
1.59246e-05
-8.42403e-08
1.5924e-05
-8.24062e-08
1.59201e-05
-9.31407e-08
1.59143e-05
-9.701e-08
1.59085e-05
-9.6222e-08
1.59026e-05
-9.19971e-08
1.58971e-05
-8.55114e-08
1.58919e-05
-7.78551e-08
1.58872e-05
-6.9818e-08
1.5884e-05
-6.04302e-08
-4.99763e-08
1.58815e-05
1.67247e-05
-2.36615e-08
1.67291e-05
-1.90256e-08
1.67307e-05
-2.18809e-08
1.67221e-05
-1.16393e-07
1.6711e-05
-1.31346e-07
1.66996e-05
-1.27812e-07
1.66883e-05
-1.08155e-07
1.66826e-05
-1.11641e-07
1.66832e-05
-9.02204e-08
1.66855e-05
-8.65685e-08
1.66855e-05
-8.24075e-08
1.6682e-05
-8.9694e-08
1.66768e-05
-9.17221e-08
1.6671e-05
-9.04234e-08
1.66653e-05
-8.63003e-08
1.66602e-05
-8.04171e-08
1.66555e-05
-7.3167e-08
1.66513e-05
-6.56091e-08
1.66481e-05
-5.72995e-08
-4.78168e-08
1.6646e-05
1.75252e-05
-1.85068e-08
1.75287e-05
-2.24879e-08
1.75295e-05
-2.2749e-08
1.75201e-05
-1.06993e-07
1.75088e-05
-1.19966e-07
1.74996e-05
-1.18674e-07
1.74899e-05
-9.84606e-08
1.74836e-05
-1.05303e-07
1.74824e-05
-8.90566e-08
1.74834e-05
-8.75223e-08
1.74832e-05
-8.22644e-08
1.74803e-05
-8.67903e-08
1.74757e-05
-8.70558e-08
1.74703e-05
-8.50188e-08
1.74647e-05
-8.07858e-08
1.74599e-05
-7.56206e-08
1.74556e-05
-6.88344e-08
1.74518e-05
-6.17578e-08
1.74488e-05
-5.42906e-08
-4.58863e-08
1.74468e-05
1.83639e-05
-1.40721e-08
1.83663e-05
-2.48364e-08
1.83666e-05
-2.31116e-08
1.83571e-05
-9.75127e-08
1.83454e-05
-1.08249e-07
1.83375e-05
-1.10774e-07