/*--------------------------------*- C++ -*----------------------------------*\
| =========                 |                                                 |
| \\      /  F ield         | OpenFOAM: The Open Source CFD Toolbox           |
|  \\    /   O peration     | Version:  v1912                                 |
|   \\  /    A nd           | Website:  www.openfoam.com                      |
|    \\/     M anipulation  |                                                 |
\*---------------------------------------------------------------------------*/
FoamFile
{
    version     2.0;
    format      ascii;
    class       volVectorField;
    location    "2.1";
    object      U;
}
// * * * * * * * * * * * * * * * * * * * * * * * * * * * * * * * * * * * * * //

dimensions      [0 1 -1 0 0 0 0];


internalField   nonuniform List<vector> 
9600
(
(0.969781 -0.00255481 0)
(1.01115 -0.0115104 0)
(0.955091 0.0212555 0)
(1.04632 -0.0121521 0)
(0.870372 -0.00644915 0)
(1.07784 0.00280781 0)
(0.976415 0.00613613 0)
(1.08897 -0.00457369 0)
(0.883149 0.0324468 0)
(1.24465 0.0139849 0)
(0.772226 0.00313078 0)
(1.2139 0.0154616 0)
(0.782612 -0.0143382 0)
(1.08437 0.000167374 0)
(0.844777 -0.0230312 0)
(1.09248 -0.00870264 0)
(0.887475 -0.0170671 0)
(1.10331 -0.0140197 0)
(0.889858 -0.00978934 0)
(1.13804 -0.0158889 0)
(0.972961 -0.00244855 0)
(1.00918 -0.0113288 0)
(0.958131 0.0209207 0)
(1.03756 -0.0111711 0)
(0.877033 -0.00699048 0)
(1.06911 0.0017983 0)
(0.982055 0.00578239 0)
(1.08259 -0.0030772 0)
(0.894071 0.0304445 0)
(1.21703 0.0162253 0)
(0.823256 0.00329183 0)
(1.1587 0.0157306 0)
(0.881098 -0.0113936 0)
(1.03362 -0.00119165 0)
(0.916727 -0.0232461 0)
(1.02742 -0.00997839 0)
(0.964831 -0.0169811 0)
(1.01734 -0.0146924 0)
(0.988907 -0.0100898 0)
(1.01804 -0.0177089 0)
(0.978059 -0.00233906 0)
(1.00485 -0.0111848 0)
(0.965367 0.020609 0)
(1.02626 -0.0104545 0)
(0.891814 -0.00737777 0)
(1.05 0.000826754 0)
(0.993128 0.00560092 0)
(1.07131 -0.00208897 0)
(0.919836 0.0283722 0)
(1.17276 0.017095 0)
(0.8979 0.00399 0)
(1.08896 0.0150558 0)
(0.951681 -0.00972064 0)
(0.990945 -0.00158224 0)
(0.941893 -0.0227984 0)
(0.981286 -0.0112378 0)
(0.973896 -0.0166182 0)
(0.980879 -0.0153977 0)
(0.9902 -0.0107054 0)
(0.994955 -0.0158196 0)
(0.983992 -0.00223382 0)
(0.998513 -0.0110815 0)
(0.976514 0.0203872 0)
(1.0142 -0.00978537 0)
(0.911502 -0.00762174 0)
(1.0247 -9.39291e-05 0)
(1.00539 0.00528146 0)
(1.06053 -0.00128154 0)
(0.954082 0.0271177 0)
(1.12838 0.017245 0)
(0.963665 0.00525095 0)
(1.03842 0.0142983 0)
(0.985679 -0.00819851 0)
(0.973388 -0.00115717 0)
(0.95072 -0.0224404 0)
(0.960858 -0.0120949 0)
(0.967397 -0.0165141 0)
(0.968477 -0.0160769 0)
(0.979495 -0.010793 0)
(0.984766 -0.0159525 0)
(0.989852 -0.00211394 0)
(0.991252 -0.0110283 0)
(0.98955 0.0202153 0)
(1.00335 -0.00917245 0)
(0.930997 -0.00770153 0)
(1.00116 -0.00099701 0)
(1.01392 0.00475458 0)
(1.0543 -0.000766164 0)
(0.987757 0.0263929 0)
(1.09642 0.0170882 0)
(1.00661 0.00659024 0)
(1.01491 0.0141214 0)
(0.998248 -0.00703693 0)
(0.973561 -0.000608201 0)
(0.960478 -0.0217987 0)
(0.95586 -0.012637 0)
(0.963898 -0.0164796 0)
(0.965338 -0.0165726 0)
(0.973719 -0.0111184 0)
(0.980578 -0.0162376 0)
(0.995032 -0.00197005 0)
(0.984079 -0.0110386 0)
(1.00195 0.020065 0)
(0.994749 -0.00858803 0)
(0.947386 -0.00766585 0)
(0.985845 -0.00184387 0)
(1.01675 0.00401891 0)
(1.05169 -0.000577953 0)
(1.01501 0.0259411 0)
(1.07991 0.0168271 0)
(1.02867 0.00785334 0)
(1.00867 0.014386 0)
(1.00322 -0.00613389 0)
(0.981019 -0.000145019 0)
(0.972519 -0.0209322 0)
(0.960334 -0.012924 0)
(0.964173 -0.0163963 0)
(0.96572 -0.0170501 0)
(0.971582 -0.0115377 0)
(0.979138 -0.0164407 0)
(0.999259 -0.00179791 0)
(0.977572 -0.0111126 0)
(1.01198 0.0199243 0)
(0.988561 -0.0080173 0)
(0.960812 -0.00759661 0)
(0.98049 -0.00257497 0)
(1.0149 0.00314169 0)
(1.0483 -0.000710099 0)
(1.03396 0.0255985 0)
(1.07355 0.0166685 0)
(1.03695 0.00907103 0)
(1.00846 0.0148563 0)
(1.00643 -0.00538721 0)
(0.990143 0.000136248 0)
(0.984415 -0.0200154 0)
(0.969414 -0.012977 0)
(0.968039 -0.0161211 0)
(0.96701 -0.017454 0)
(0.970831 -0.0119553 0)
(0.977929 -0.0165459 0)
(1.00248 -0.00159519 0)
(0.972068 -0.0112394 0)
(1.01917 0.0197799 0)
(0.984652 -0.00746469 0)
(0.972616 -0.00756347 0)
(0.982737 -0.0031467 0)
(1.01045 0.00227946 0)
(1.04036 -0.00111764 0)
(1.04471 0.0252294 0)
(1.06981 0.0166803 0)
(1.03731 0.0102763 0)
(1.00886 0.0153582 0)
(1.00906 -0.00478698 0)
(0.998903 0.00020995 0)
(0.995205 -0.0191048 0)
(0.979563 -0.0128344 0)
(0.974385 -0.0155927 0)
(0.969452 -0.0176599 0)
(0.97042 -0.0122949 0)
(0.976255 -0.016564 0)
(1.00473 -0.00136146 0)
(0.967934 -0.0114085 0)
(1.02391 0.0196154 0)
(0.98298 -0.00694388 0)
(0.983452 -0.00761618 0)
(0.988791 -0.0035271 0)
(1.0051 0.00160116 0)
(1.02729 -0.00173736 0)
(1.04821 0.0247468 0)
(1.06392 0.0168499 0)
(1.03346 0.0114401 0)
(1.00912 0.0157916 0)
(1.01123 -0.00435515 0)
(1.00659 7.9269e-05 0)
(1.00446 -0.0181897 0)
(0.988917 -0.0125593 0)
(0.981477 -0.0148638 0)
(0.973265 -0.0175659 0)
(0.970693 -0.0124599 0)
(0.974443 -0.0164871 0)
(1.00614 -0.00110066 0)
(0.965595 -0.0116108 0)
(1.0267 0.0194161 0)
(0.98357 -0.00647118 0)
(0.992835 -0.00775913 0)
(0.995377 -0.00370429 0)
(1.00017 0.00120839 0)
(1.01153 -0.00247519 0)
(1.04629 0.0241243 0)
(1.05516 0.0171323 0)
(1.02809 0.0124801 0)
(1.01012 0.0160989 0)
(1.0131 -0.00407617 0)
(1.01269 -0.000213639 0)
(1.01161 -0.0172814 0)
(0.996453 -0.0122265 0)
(0.988046 -0.0139816 0)
(0.977966 -0.0171691 0)
(0.97212 -0.0124217 0)
(0.973334 -0.0162917 0)
(1.0069 -0.000822704 0)
(0.965349 -0.0118358 0)
(1.02773 0.0191709 0)
(0.98623 -0.00605024 0)
(0.999803 -0.00796437 0)
(1.00038 -0.00369801 0)
(0.996667 0.00112202 0)
(0.996634 -0.00326248 0)
(1.04134 0.0233729 0)
(1.04539 0.0174623 0)
(1.02326 0.0133056 0)
(1.01247 0.0162593 0)
(1.01483 -0.00388831 0)
(1.01668 -0.000612282 0)
(1.0162 -0.0164128 0)
(1.00161 -0.0118535 0)
(0.993347 -0.0130126 0)
(0.982941 -0.016566 0)
(0.974717 -0.0122155 0)
(0.973607 -0.0159053 0)
(1.00723 -0.000542729 0)
(0.967171 -0.0120678 0)
(1.02682 0.0188738 0)
(0.990372 -0.00566975 0)
(1.00376 -0.00818712 0)
(1.00285 -0.00356502 0)
(0.99506 0.00129893 0)
(0.985396 -0.00404704 0)
(1.03531 0.0225119 0)
(1.03679 0.0177871 0)
(1.01999 0.0138641 0)
(1.01579 0.0163066 0)
(1.01641 -0.00370083 0)
(1.01841 -0.00105902 0)
(1.01825 -0.0155643 0)
(1.00439 -0.0114586 0)
(0.996992 -0.0120665 0)
(0.987639 -0.0158606 0)
(0.978137 -0.0118604 0)
(0.975328 -0.0152897 0)
(1.00732 -0.000278505 0)
(0.970638 -0.0122834 0)
(1.02384 0.018528 0)
(0.995104 -0.00531761 0)
(1.00491 -0.00837722 0)
(1.00279 -0.00337464 0)
(0.995141 0.00164768 0)
(0.978888 -0.00477316 0)
(1.02898 0.021565 0)
(1.03029 0.0180666 0)
(1.0181 0.0141685 0)
(1.01891 0.016285 0)
(1.01771 -0.00344516 0)
(1.01817 -0.00148155 0)
(1.0182 -0.0147263 0)
(1.00527 -0.0110816 0)
(0.998976 -0.0112162 0)
(0.991593 -0.0151251 0)
(0.981864 -0.0113914 0)
(0.97802 -0.0145015 0)
(1.00731 -4.55361e-05 0)
(0.975048 -0.0124569 0)
(1.01909 0.0181441 0)
(0.999554 -0.00498954 0)
(1.00409 -0.00849787 0)
(1.00089 -0.00318219 0)
(0.99619 0.00206078 0)
(0.976624 -0.00538503 0)
(1.02222 0.0205717 0)
(1.02543 0.0182637 0)
(1.01669 0.0142684 0)
(1.02062 0.0162193 0)
(1.01856 -0.00309597 0)
(1.01662 -0.0018246 0)
(1.01672 -0.0139245 0)
(1.00497 -0.0107382 0)
(0.999636 -0.0104813 0)
(0.994511 -0.014421 0)
(0.9854 -0.0108938 0)
(0.981037 -0.0136114 0)
(1.00724 0.000146628 0)
(0.979642 -0.0125666 0)
(1.0133 0.0177345 0)
(1.00315 -0.00468674 0)
(1.00236 -0.00853257 0)
(0.998044 -0.00302276 0)
(0.997395 0.00245048 0)
(0.977273 -0.00583674 0)
(1.01481 0.0195879 0)
(1.0212 0.0183532 0)
(1.01497 0.0142175 0)
(1.02035 0.0161178 0)
(1.01886 -0.0026579 0)
(1.01454 -0.00207416 0)
(1.01448 -0.0131632 0)
(1.00414 -0.0104368 0)
(0.99948 -0.00985063 0)
(0.996346 -0.0138151 0)
(0.988397 -0.0104304 0)
(0.983878 -0.0126802 0)
(1.00712 0.000295804 0)
(0.983812 -0.0126008 0)
(1.00738 0.0173107 0)
(1.00572 -0.00441472 0)
(1.00058 -0.00847985 0)
(0.995049 -0.0029051 0)
(0.998209 0.00276243 0)
(0.979395 -0.00610171 0)
(1.00701 0.0186601 0)
(1.0169 0.0183241 0)
(1.01272 0.0140695 0)
(1.01835 0.0159667 0)
(1.01865 -0.00218469 0)
(1.01253 -0.00223752 0)
(1.01207 -0.0124288 0)
(1.00321 -0.0101902 0)
(0.998995 -0.009304 0)
(0.997264 -0.0133198 0)
(0.990689 -0.0100331 0)
(0.986284 -0.0117545 0)
(1.00696 0.000406278 0)
(0.987209 -0.0125591 0)
(1.00211 0.0168799 0)
(1.00735 -0.00417767 0)
(0.999192 -0.00835032 0)
(0.992419 -0.00281732 0)
(0.998463 0.00297129 0)
(0.981885 -0.00617111 0)
(0.999579 0.017819 0)
(1.0125 0.0181814 0)
(1.0102 0.0138474 0)
(1.01535 0.0157618 0)
(1.01806 -0.00173415 0)
(1.01097 -0.00232206 0)
(1.00986 -0.0117144 0)
(1.00241 -0.00999533 0)
(0.998526 -0.00882457 0)
(0.997549 -0.0128945 0)
(0.992269 -0.00972394 0)
(0.988164 -0.0108732 0)
(1.00675 0.000486284 0)
(0.989736 -0.0124502 0)
(0.997982 0.0164447 0)
(1.00826 -0.00397502 0)
(0.998315 -0.00816065 0)
(0.990401 -0.00274215 0)
(0.998284 0.00307941 0)
(0.984111 -0.00606474 0)
(0.993339 0.0170773 0)
(1.00839 0.0179413 0)
(1.00788 0.0135609 0)
(1.01222 0.015506 0)
(1.01721 -0.00134416 0)
(1.00992 -0.00234299 0)
(1.00806 -0.0110148 0)
(1.00184 -0.00984435 0)
(0.998239 -0.00838721 0)
(0.997496 -0.0124954 0)
(0.993257 -0.0095221 0)
(0.989536 -0.0100634 0)
(1.0065 0.000545621 0)
(0.991484 -0.0122892 0)
(0.995102 0.0160052 0)
(1.00865 -0.00380191 0)
(0.997868 -0.00792788 0)
(0.989039 -0.0026632 0)
(0.997906 0.00310127 0)
(0.985833 -0.00581075 0)
(0.988791 0.0164201 0)
(1.00501 0.017629 0)
(1.00605 0.0132199 0)
(1.00952 0.0152047 0)
(1.01626 -0.00102825 0)
(1.00926 -0.00232748 0)
(1.0067 -0.0103064 0)
(1.0015 -0.00974107 0)
(0.998148 -0.00797003 0)
(0.997338 -0.0120907 0)
(0.993839 -0.00941917 0)
(0.990475 -0.00933303 0)
(1.00624 0.000592319 0)
(0.992644 -0.0120896 0)
(0.993308 0.0155599 0)
(1.00872 -0.00364825 0)
(0.997704 -0.00766727 0)
(0.988251 -0.00257088 0)
(0.997519 0.00305783 0)
(0.987068 -0.00544704 0)
(0.985966 0.0158253 0)
(1.00255 0.0172646 0)
(1.0048 0.0128328 0)
(1.00751 0.0148649 0)
(1.01532 -0.000775139 0)
(1.00883 -0.00230183 0)
(1.00571 -0.00957426 0)
(1.00133 -0.00967116 0)
(0.998185 -0.00757969 0)
(0.997201 -0.0116489 0)
(0.994211 -0.00940098 0)
(0.991084 -0.00868679 0)
(1.00596 0.000632381 0)
(0.993419 -0.0118639 0)
(0.992306 0.0151069 0)
(1.00859 -0.00350309 0)
(0.997692 -0.00739304 0)
(0.987897 -0.00246031 0)
(0.997209 0.00296775 0)
(0.98794 -0.0050128 0)
(0.984538 0.0152668 0)
(1.00097 0.0168718 0)
(1.00404 0.0124019 0)
(1.00614 0.0145096 0)
(1.01445 -0.000558718 0)
(1.0085 -0.00228064 0)
(1.00499 -0.00882191 0)
(1.00129 -0.00960928 0)
(0.998268 -0.00723343 0)
(0.997115 -0.0111372 0)
(0.99451 -0.00943807 0)
(0.991478 -0.00812365 0)
(1.00567 0.000670341 0)
(0.993973 -0.0116228 0)
(0.991803 0.014646 0)
(1.00835 -0.00336065 0)
(0.997745 -0.00711139 0)
(0.987834 -0.00233084 0)
(0.996981 0.00284141 0)
(0.988584 -0.00452825 0)
(0.984062 0.0147231 0)
(1.00005 0.0164687 0)
(1.00361 0.0119422 0)
(1.00524 0.0141485 0)
(1.01367 -0.000350796 0)
(1.00819 -0.00227673 0)
(1.00445 -0.00806156 0)
(1.00133 -0.00953769 0)
(0.998348 -0.00694088 0)
(0.997057 -0.0105479 0)
(0.994802 -0.00948037 0)
(0.991757 -0.00764577 0)
(1.00538 0.000708107 0)
(0.994408 -0.0113715 0)
(0.991581 0.0141776 0)
(1.00804 -0.00321457 0)
(0.997818 -0.00683008 0)
(0.987956 -0.00218127 0)
(0.996812 0.0026895 0)
(0.989092 -0.00401237 0)
(0.984148 0.014175 0)
(0.999569 0.0160666 0)
(1.00338 0.0114689 0)
(1.00466 0.0137686 0)
(1.01297 -0.000137255 0)
(1.0079 -0.00228941 0)
(1.004 -0.00730694 0)
(1.00141 -0.00943539 0)
(0.998418 -0.00671273 0)
(0.996993 -0.00988989 0)
(0.995097 -0.0095055 0)
(0.992001 -0.00727191 0)
(1.00509 0.000746854 0)
(0.994778 -0.0111135 0)
(0.991514 0.013702 0)
(1.00767 -0.00306138 0)
(0.997899 -0.00655493 0)
(0.988196 -0.00201316 0)
(0.996684 0.00252099 0)
(0.989516 -0.00348168 0)
(0.984534 0.013621 0)
(0.999355 0.0156694 0)
(1.00327 0.0109794 0)
(1.00424 0.0133671 0)
(1.01234 0.000103275 0)
(1.00763 -0.00231597 0)
(1.00363 -0.0065737 0)
(1.00151 -0.00927698 0)
(0.998492 -0.00654933 0)
(0.996905 -0.00918572 0)
(0.995381 -0.0094864 0)
(0.992266 -0.00701719 0)
(1.00482 0.000787312 0)
(0.995108 -0.0108508 0)
(0.991534 0.0132198 0)
(1.00726 -0.00290003 0)
(0.997986 -0.00628815 0)
(0.988514 -0.00182858 0)
(0.996589 0.00233986 0)
(0.989883 -0.00294366 0)
(0.985067 0.0130551 0)
(0.99928 0.0152721 0)
(1.00323 0.0104974 0)
(1.00393 0.0129376 0)
(1.01176 0.000370545 0)
(1.0074 -0.00235085 0)
(1.00331 -0.00586461 0)
(1.00161 -0.00904832 0)
(0.99859 -0.0064483 0)
(0.996792 -0.00846814 0)
(0.995634 -0.0093831 0)
(0.992579 -0.00688143 0)
(1.00456 0.000829163 0)
(0.995412 -0.0105833 0)
(0.991611 0.0127311 0)
(1.00681 -0.00272834 0)
(0.99808 -0.00603384 0)
(0.988882 -0.00162592 0)
(0.996528 0.00215074 0)
(0.990212 -0.00240558 0)
(0.985669 0.012479 0)
(0.999267 0.0148698 0)
(1.00323 0.0100287 0)
(1.00367 0.0124807 0)
(1.01119 0.000662256 0)
(1.00719 -0.0023818 0)
(1.00303 -0.00518791 0)
(1.00169 -0.00874113 0)
(0.998724 -0.00640046 0)
(0.996668 -0.00775868 0)
(0.995844 -0.00917344 0)
(0.992946 -0.00685607 0)
(1.00432 0.000873179 0)
(0.995699 -0.0103135 0)
(0.991726 0.0122376 0)
(1.00634 -0.00254562 0)
(0.998182 -0.00579276 0)
(0.989274 -0.00140705 0)
(0.996498 0.00195815 0)
(0.990523 -0.00187315 0)
(0.986299 0.0118998 0)
(0.999263 0.0144568 0)
(1.00324 0.00957672 0)
(1.00342 0.0119934 0)
(1.01063 0.000974187 0)
(1.00701 -0.00240524 0)
(1.00278 -0.0045612 0)
(1.00175 -0.00835307 0)
(0.998904 -0.00639187 0)
(0.996552 -0.00707594 0)
(0.995999 -0.00884687 0)
(0.993359 -0.00691834 0)
(1.00409 0.00091851 0)
(0.995978 -0.0100404 0)
(0.991868 0.01174 0)
(1.00586 -0.00235177 0)
(0.998288 -0.00556887 0)
(0.98967 -0.0011733 0)
(0.996494 0.00176766 0)
(0.990834 -0.00135637 0)
(0.986942 0.0113249 0)
(0.999247 0.0140243 0)
(1.00324 0.00916494 0)
(1.00317 0.0114657 0)
(1.01007 0.0012969 0)
(1.00684 -0.00240864 0)
(1.00256 -0.00398904 0)
(1.00178 -0.00789031 0)
(0.999128 -0.00640037 0)
(0.996465 -0.00645264 0)
(0.996094 -0.00840627 0)
(0.993805 -0.00702344 0)
(1.00387 0.000965398 0)
(0.996252 -0.0097636 0)
(0.992033 0.0112383 0)
(1.00537 -0.00214856 0)
(0.998395 -0.00536298 0)
(0.990053 -0.000926811 0)
(0.99651 0.00158136 0)
(0.991162 -0.000864966 0)
(0.987589 0.0107723 0)
(0.999213 0.0135606 0)
(1.00324 0.00879102 0)
(1.00293 0.0109176 0)
(1.00948 0.00162 0)
(1.00668 -0.00237929 0)
(1.00236 -0.00347884 0)
(1.00178 -0.00736555 0)
(0.999391 -0.00640578 0)
(0.996427 -0.00591205 0)
(0.996131 -0.00785806 0)
(0.994263 -0.00712494 0)
(1.00366 0.0010127 0)
(0.996525 -0.00948351 0)
(0.992216 0.0107347 0)
(1.0049 -0.00193342 0)
(0.998503 -0.0051753 0)
(0.990415 -0.000670845 0)
(0.99654 0.00140292 0)
(0.991513 -0.000400728 0)
(0.988237 0.01025 0)
(0.999169 0.0130583 0)
(1.00322 0.00846203 0)
(1.00269 0.01036 0)
(1.00889 0.00192315 0)
(1.00652 -0.00230752 0)
(1.00218 -0.00303078 0)
(1.00173 -0.00679668 0)
(0.999679 -0.00639828 0)
(0.996453 -0.00546333 0)
(0.996115 -0.00722421 0)
(0.994706 -0.00717446 0)
(1.00344 0.00106054 0)
(0.996797 -0.00919926 0)
(0.992415 0.0102261 0)
(1.00445 -0.00170505 0)
(0.998613 -0.00500303 0)
(0.990754 -0.000408829 0)
(0.996582 0.00123808 0)
(0.99189 3.00452e-05 0)
(0.988881 0.00976562 0)
(0.999126 0.0125198 0)
(1.00319 0.00816834 0)
(1.00245 0.00980066 0)
(1.00828 0.00220323 0)
(1.00635 -0.00219934 0)
(1.00202 -0.002632 0)
(1.00165 -0.00619708 0)
(0.999977 -0.00635981 0)
(0.996554 -0.00511187 0)
(0.99606 -0.00653753 0)
(0.995108 -0.00711596 0)
(1.00323 0.00110897 0)
(0.997067 -0.00891242 0)
(0.992627 0.00971323 0)
(1.00401 -0.00146262 0)
(0.998729 -0.00484546 0)
(0.991075 -0.000140976 0)
(0.996634 0.00109048 0)
(0.992289 0.000404628 0)
(0.989516 0.00933311 0)
(0.999092 0.0119442 0)
(1.00314 0.00789297 0)
(1.00222 0.00925803 0)
(1.00768 0.00245 0)
(1.00618 -0.00206359 0)
(1.00188 -0.00228142 0)
(1.00152 -0.00557636 0)
(1.00027 -0.00625726 0)
(0.996736 -0.00485657 0)
(0.995986 -0.0058409 0)
(0.995436 -0.00690292 0)
(1.00302 0.00115637 0)
(0.997335 -0.00862084 0)
(0.992851 0.00919833 0)
(1.00359 -0.0012093 0)
(0.998852 -0.00470036 0)
(0.991385 0.000131239 0)
(0.996694 0.000965611 0)
(0.992706 0.000714935 0)
(0.990135 0.00895486 0)
(0.99907 0.011345 0)
(1.0031 0.00762844 0)
(1.002 0.0087443 0)
(1.00708 0.002655 0)
(1.00601 -0.00190213 0)
(1.00178 -0.00196452 0)
(1.00136 -0.00494415 0)
(1.00053 -0.0060914 0)
(0.996994 -0.00468198 0)
(0.995921 -0.00518551 0)
(0.99567 -0.00652324 0)
(1.00281 0.00120285 0)
(0.9976 -0.00832419 0)
(0.993088 0.00867882 0)
(1.00317 -0.000943102 0)
(0.998984 -0.00456848 0)
(0.99169 0.000399748 0)
(0.996764 0.000869748 0)
(0.993138 0.000961509 0)
(0.990737 0.00862315 0)
(0.999059 0.010743 0)
(1.00304 0.00735643 0)
(1.0018 0.00826958 0)
(1.0065 0.0028348 0)
(1.00583 -0.00172665 0)
(1.0017 -0.00168238 0)
(1.00117 -0.00431378 0)
(1.00076 -0.00586037 0)
(0.997319 -0.00456277 0)
(0.995895 -0.00460816 0)
(0.995805 -0.00599196 0)
(1.0026 0.00124761 0)
(0.997862 -0.00802147 0)
(0.993339 0.00815171 0)
(1.00277 -0.000660616 0)
(0.999125 -0.00444976 0)
(0.991997 0.000657712 0)
(0.99684 0.000808785 0)
(0.993583 0.00113791 0)
(0.991319 0.0083278 0)
(0.999057 0.0101525 0)
(1.00299 0.00707231 0)
(1.00161 0.00783887 0)
(1.00592 0.00298777 0)
(1.00566 -0.00153994 0)
(1.00167 -0.0014414 0)
(1.00096 -0.00368532 0)
(1.00093 -0.00556284 0)
(0.997697 -0.00447708 0)
(0.995934 -0.00412837 0)
(0.995852 -0.00536197 0)
(1.0024 0.00128967 0)
(0.99812 -0.00771195 0)
(0.993604 0.0076216 0)
(1.00237 -0.000368378 0)
(0.999273 -0.00433485 0)
(0.992309 0.000900871 0)
(0.996922 0.00078756 0)
(0.99404 0.0012468 0)
(0.991885 0.00805883 0)
(0.999058 0.00959346 0)
(1.00295 0.00676269 0)
(1.00144 0.00745028 0)
(1.00536 0.00312368 0)
(1.00548 -0.00135418 0)
(1.00167 -0.00123104 0)
(1.00075 -0.00306458 0)
(1.00105 -0.00519958 0)
(0.998108 -0.00439642 0)
(0.996057 -0.00375201 0)
(0.995847 -0.00470647 0)
(1.0022 0.00132766 0)
(0.998373 -0.00739546 0)
(0.993886 0.00708479 0)
(1.00199 -6.38559e-05 0)
(0.999426 -0.00422124 0)
(0.992629 0.00111703 0)
(0.997005 0.00081672 0)
(0.994508 0.00129263 0)
(0.992438 0.00780169 0)
(0.999059 0.00907014 0)
(1.00292 0.00642201 0)
(1.00129 0.00708634 0)
(1.0048 0.00325783 0)
(1.00529 -0.00116394 0)
(1.00172 -0.00106148 0)
(1.00054 -0.00246594 0)
(1.0011 -0.00475389 0)
(0.998529 -0.00430177 0)
(0.996268 -0.00346475 0)
(0.995831 -0.00409363 0)
(1.00201 0.0013621 0)
(0.99862 -0.00707248 0)
(0.994185 0.00653882 0)
(1.00161 0.000249511 0)
(0.999583 -0.00409935 0)
(0.992961 0.00129709 0)
(0.997087 0.000895788 0)
(0.994985 0.00128879 0)
(0.992982 0.00754078 0)
(0.999056 0.00859359 0)
(1.00289 0.00606476 0)
(1.00118 0.00673193 0)
(1.00426 0.00338991 0)
(1.00508 -0.000962762 0)
(1.00181 -0.000923607 0)
(1.00036 -0.00190011 0)
(1.00108 -0.00424064 0)
(0.998935 -0.004173 0)
(0.996561 -0.0032401 0)
(0.995844 -0.00357709 0)
(1.00183 0.0013894 0)
(0.998859 -0.00673612 0)
(0.994503 0.00597902 0)
(1.00124 0.000568317 0)
(0.99974 -0.0039679 0)
(0.993304 0.00143626 0)
(0.997166 0.00102471 0)
(0.995468 0.00124958 0)
(0.993524 0.00726308 0)
(0.999046 0.008175 0)
(1.00288 0.00569828 0)
(1.0011 0.00637888 0)
(1.00374 0.00352913 0)
(1.00486 -0.000744972 0)
(1.00193 -0.000830363 0)
(1.00021 -0.00137948 0)
(1.001 -0.00367686 0)
(0.999306 -0.00397973 0)
(0.996914 -0.00304094 0)
(0.99592 -0.00316351 0)
(1.00165 0.0014092 0)
(0.999088 -0.0063833 0)
(0.99484 0.00539947 0)
(1.00088 0.000890889 0)
(0.999894 -0.00381542 0)
(0.993664 0.00152229 0)
(0.997238 0.00120209 0)
(0.995949 0.00118945 0)
(0.994069 0.00695553 0)
(0.99903 0.00781348 0)
(1.00287 0.00533864 0)
(1.00107 0.00600535 0)
(1.00325 0.0036774 0)
(1.00462 -0.000490014 0)
(1.00209 -0.000784921 0)
(1.00011 -0.000929479 0)
(1.00088 -0.00306604 0)
(0.999631 -0.00372375 0)
(0.997305 -0.00284203 0)
(0.996061 -0.00280313 0)
(1.00148 0.00142052 0)
(0.999305 -0.00601821 0)
(0.995198 0.004813 0)
(1.00055 0.00120518 0)
(1.00004 -0.00363549 0)
(0.994041 0.00155488 0)
(0.997307 0.00141292 0)
(0.996421 0.00112258 0)
(0.994622 0.00661236 0)
(0.99901 0.00750178 0)
(1.00285 0.00500304 0)
(1.00108 0.00561493 0)
(1.00279 0.00381856 0)
(1.00434 -0.000204637 0)
(1.00227 -0.000756344 0)
(1.00008 -0.000565311 0)
(1.00072 -0.00242502 0)
(0.999898 -0.00341835 0)
(0.997724 -0.00265339 0)
(0.996261 -0.0024607 0)
(1.00131 0.00142349 0)
(0.999508 -0.00564357 0)
(0.995574 0.00423395 0)
(1.00023 0.00149802 0)
(1.00017 -0.0034187 0)
(0.994437 0.00153208 0)
(0.997372 0.00164655 0)
(0.996877 0.00106524 0)
(0.995185 0.00622191 0)
(0.998989 0.00722168 0)
(1.00282 0.00470842 0)
(1.00113 0.00520478 0)
(1.00237 0.00392328 0)
(1.00402 0.000120353 0)
(1.00245 -0.000735948 0)
(1.00013 -0.000302647 0)
(1.00055 -0.00179759 0)
(1.0001 -0.00305015 0)
(0.998161 -0.00248843 0)
(0.996516 -0.00213971 0)
(1.00116 0.00141575 0)
(0.999695 -0.00525808 0)
(0.995969 0.00366785 0)
(0.999937 0.00176278 0)
(1.00029 -0.00315633 0)
(0.994851 0.00145906 0)
(0.997439 0.00188839 0)
(0.997305 0.00103478 0)
(0.995756 0.00578968 0)
(0.998976 0.00696123 0)
(1.00278 0.0044709 0)
(1.00122 0.00477657 0)
(1.00202 0.00398102 0)
(1.00368 0.000486566 0)
(1.00262 -0.000696411 0)
(1.00025 -0.00015409 0)
(1.00039 -0.00122781 0)
(1.00022 -0.00260962 0)
(0.998594 -0.00233856 0)
(0.99683 -0.0018515 0)
(1.00102 0.00139709 0)
(0.999865 -0.0048616 0)
(0.996379 0.0031158 0)
(0.999673 0.00198447 0)
(1.00039 -0.00285343 0)
(0.995281 0.00135298 0)
(0.997511 0.00212131 0)
(0.9977 0.00104265 0)
(0.996336 0.00532894 0)
(0.998979 0.00670032 0)
(1.0027 0.00429037 0)
(1.00134 0.00435862 0)
(1.00173 0.00397468 0)
(1.0033 0.00087089 0)
(1.00275 -0.000606462 0)
(1.00045 -9.39953e-05 0)
(1.00027 -0.000743979 0)
(1.00026 -0.00211025 0)
(0.999002 -0.00216602 0)
(0.997199 -0.00159664 0)
(1.00089 0.00136744 0)
(1.00002 -0.00444989 0)
(0.9968 0.00257618 0)
(0.999441 0.00215425 0)
(1.00047 -0.00250838 0)
(0.995723 0.00122336 0)
(0.997593 0.00232793 0)
(0.998053 0.0010998 0)
(0.996915 0.00484777 0)
(0.999006 0.00641966 0)
(1.0026 0.00416485 0)
(1.00148 0.00396458 0)
(1.00152 0.0039016 0)
(1.00292 0.00125183 0)
(1.00283 -0.000449512 0)
(1.00069 -8.31648e-05 0)
(1.00022 -0.000356966 0)
(1.00025 -0.00157189 0)
(0.999363 -0.00192164 0)
(0.997618 -0.00136728 0)
(1.00078 0.00132412 0)
(1.00015 -0.00401068 0)
(0.997226 0.00205104 0)
(0.999246 0.00226149 0)
(1.00053 -0.00212751 0)
(0.996169 0.00108774 0)
(0.99769 0.00249955 0)
(0.998358 0.00120552 0)
(0.997486 0.00437063 0)
(0.999065 0.00610918 0)
(1.00248 0.0040869 0)
(1.00162 0.00361327 0)
(1.00139 0.00376908 0)
(1.00255 0.00161343 0)
(1.00284 -0.000212473 0)
(1.00097 -7.93156e-05 0)
(1.00025 -7.1879e-05 0)
(1.00022 -0.0010367 0)
(0.999657 -0.00158273 0)
(0.998066 -0.00114979 0)
(1.00067 0.00126645 0)
(1.00025 -0.00354515 0)
(0.997649 0.00154913 0)
(0.999091 0.00229662 0)
(1.00056 -0.00171713 0)
(0.99661 0.000959365 0)
(0.997803 0.00262385 0)
(0.998613 0.00135339 0)
(0.998036 0.00392181 0)
(0.999161 0.00575993 0)
(1.00234 0.00403682 0)
(1.00174 0.00332425 0)
(1.00133 0.00358598 0)
(1.00221 0.00193394 0)
(1.00278 9.97352e-05 0)
(1.00124 -3.64921e-05 0)
(1.00037 0.000126148 0)
(1.00019 -0.000551068 0)
(0.999883 -0.0011665 0)
(0.99851 -0.000924626 0)
(1.00057 0.00119847 0)
(1.00032 -0.00308014 0)
(0.998058 0.00108388 0)
(0.998979 0.0022643 0)
(1.00057 -0.00129224 0)
(0.997039 0.000851925 0)
(0.997935 0.00270231 0)
(0.99882 0.00152637 0)
(0.998551 0.00351607 0)
(0.999296 0.00538028 0)
(1.00219 0.00399612 0)
(1.00183 0.00310316 0)
(1.00134 0.00337968 0)
(1.00191 0.00219384 0)
(1.00267 0.000457277 0)
(1.00148 6.98607e-05 0)
(1.00055 0.000270383 0)
(1.00021 -0.00013968 0)
(1.00005 -0.000725607 0)
(0.998918 -0.000664993 0)
(1.00049 0.00112354 0)
(1.00037 -0.00263639 0)
(0.998448 0.000677886 0)
(0.998911 0.00217336 0)
(1.00056 -0.000876967 0)
(0.997447 0.000776736 0)
(0.998085 0.0027382 0)
(0.998979 0.00171298 0)
(0.99902 0.00317705 0)
(0.999465 0.00497149 0)
(1.00204 0.00395793 0)
(1.0019 0.00294941 0)
(1.00139 0.00317158 0)
(1.00168 0.00238514 0)
(1.00251 0.000826569 0)
(1.00167 0.000238876 0)
(1.00078 0.000383365 0)
(1.00028 0.00019164 0)
(1.00018 -0.000311097 0)
(0.999273 -0.000357215 0)
(1.00042 0.00104323 0)
(1.00039 -0.00222004 0)
(0.998812 0.000347068 0)
(0.998884 0.00203039 0)
(1.00054 -0.000488151 0)
(0.997829 0.000731045 0)
(0.998254 0.00273683 0)
(0.9991 0.00190231 0)
(0.999433 0.00291725 0)
(0.999663 0.00455493 0)
(1.00191 0.00389612 0)
(1.00192 0.00287042 0)
(1.00148 0.00298129 0)
(1.00152 0.0025 0)
(1.00233 0.00117189 0)
(1.00179 0.000467419 0)
(1.00103 0.000497206 0)
(1.00041 0.00045408 0)
(1.00032 6.17649e-05 0)
(0.999584 -4.70735e-05 0)
(1.00036 0.000960607 0)
(1.00039 -0.00183815 0)
(0.999145 9.52999e-05 0)
(0.998896 0.00185002 0)
(1.00052 -0.000141569 0)
(0.998183 0.000712006 0)
(0.998441 0.00270286 0)
(0.999191 0.00208238 0)
(0.999785 0.00273328 0)
(0.999877 0.00415781 0)
(1.0018 0.00380189 0)
(1.00192 0.0028489 0)
(1.00158 0.00282386 0)
(1.00142 0.0025443 0)
(1.00216 0.00147441 0)
(1.00186 0.000728801 0)
(1.00126 0.000631543 0)
(1.00058 0.00066544 0)
(1.00045 0.00039625 0)
(0.999862 0.000241558 0)
(1.0003 0.000877462 0)
(1.00037 -0.00149275 0)
(0.999444 -8.3092e-05 0)
(0.99894 0.00164515 0)
(1.00049 0.000149241 0)
(0.998505 0.000713222 0)
(0.998642 0.00264291 0)
(0.99926 0.00224945 0)
(1.00007 0.00261987 0)
(1.0001 0.00379682 0)
(1.00173 0.00368003 0)
(1.0019 0.00285249 0)
(1.00168 0.00270692 0)
(1.00137 0.00254449 0)
(1.00201 0.00171641 0)
(1.00188 0.000999255 0)
(1.00147 0.00078904 0)
(1.00078 0.000840857 0)
(1.0006 0.000688638 0)
(1.00012 0.000506149 0)
(1.00026 0.000796713 0)
(1.00034 -0.00118699 0)
(0.999706 -0.000194609 0)
(0.999011 0.00142934 0)
(1.00047 0.000383395 0)
(0.998798 0.000727631 0)
(0.998858 0.00256317 0)
(0.999317 0.00239611 0)
(1.0003 0.00256323 0)
(1.00031 0.00348701 0)
(1.0017 0.00353473 0)
(1.00186 0.0028605 0)
(1.00176 0.00263304 0)
(1.00137 0.0025252 0)
(1.0019 0.00190142 0)
(1.00187 0.00125996 0)
(1.00164 0.000972182 0)
(1.00101 0.000990421 0)
(1.00075 0.000946426 0)
(1.00037 0.000751334 0)
(1.00023 0.000719726 0)
(1.0003 -0.000921909 0)
(0.999931 -0.000246774 0)
(0.999101 0.00122241 0)
(1.00045 0.00056169 0)
(0.999061 0.000751607 0)
(0.999086 0.00246004 0)
(0.999371 0.00251803 0)
(1.00047 0.00255408 0)
(1.00051 0.00323246 0)
(1.0017 0.00337333 0)
(1.00182 0.00286015 0)
(1.00182 0.0025969 0)
(1.0014 0.00250403 0)
(1.00182 0.00204167 0)
(1.00185 0.00149355 0)
(1.00177 0.00117558 0)
(1.00124 0.00112458 0)
(1.00093 0.00116743 0)
(1.00058 0.00100704 0)
(1.0002 0.000648006 0)
(1.00025 -0.00069628 0)
(1.00012 -0.000258244 0)
(0.999204 0.0010361 0)
(1.00045 0.00069082 0)
(0.999296 0.000782191 0)
(0.999325 0.00233727 0)
(0.999431 0.00260743 0)
(1.00059 0.00258623 0)
(1.00067 0.00303491 0)
(1.00172 0.00320586 0)
(1.0018 0.00284647 0)
(1.00187 0.00258879 0)
(1.00144 0.00249279 0)
(1.00178 0.00214495 0)
(1.00184 0.00169225 0)
(1.00186 0.00138495 0)
(1.00146 0.00126253 0)
(1.00115 0.00132414 0)
(1.00076 0.00127118 0)
(1.00018 0.000581942 0)
(1.0002 -0.000505756 0)
(1.00028 -0.000244228 0)
(0.999314 0.000880448 0)
(1.00045 0.000783139 0)
(0.999503 0.000811394 0)
(0.999571 0.00220076 0)
(0.999506 0.00265651 0)
(1.00067 0.00264059 0)
(1.00081 0.00289822 0)
(1.00176 0.00305055 0)
(1.00179 0.00280744 0)
(1.00191 0.00258976 0)
(1.00148 0.00249903 0)
(1.00176 0.0022319 0)
(1.00184 0.0018524 0)
(1.00193 0.00157659 0)
(1.00164 0.00142153 0)
(1.00139 0.00142579 0)
(1.00093 0.0015014 0)
(1.00016 0.000520962 0)
(1.00015 -0.000346283 0)
(1.0004 -0.000209668 0)
(0.999428 0.000750823 0)
(1.00046 0.000854363 0)
(0.999685 0.000837799 0)
(0.999821 0.00205173 0)
(0.999603 0.00266191 0)
(1.00072 0.00270411 0)
(1.0009 0.00281282 0)
(1.0018 0.00291708 0)
(1.0018 0.00275315 0)
(1.00195 0.00258322 0)
(1.00154 0.00251194 0)
(1.00176 0.00231101 0)
(1.00184 0.00198964 0)
(1.002 0.00173623 0)
(1.00179 0.00160106 0)
(1.00165 0.00151364 0)
(1.00114 0.00165364 0)
(1.00015 0.000467469 0)
(1.0001 -0.000217797 0)
(1.0005 -0.000157997 0)
(0.999542 0.0006428 0)
(1.00048 0.00091381 0)
(0.999838 0.000876602 0)
(1.00007 0.00189601 0)
(0.99973 0.00260875 0)
(1.00076 0.00275929 0)
(1.00096 0.00276567 0)
(1.00184 0.00280567 0)
(1.00182 0.00269844 0)
(1.002 0.00256881 0)
(1.00161 0.00252023 0)
(1.00178 0.00237828 0)
(1.00185 0.00212457 0)
(1.00207 0.00187012 0)
(1.0019 0.00176919 0)
(1.00187 0.00162502 0)
(1.0014 0.00172789 0)
(1.00015 0.000419577 0)
(1.00005 -0.000112685 0)
(1.00058 -9.55624e-05 0)
(0.999654 0.000560709 0)
(1.00051 0.00095763 0)
(0.999962 0.000935246 0)
(1.00031 0.00175592 0)
(0.999886 0.00249635 0)
(1.0008 0.00277611 0)
(1.00098 0.00274813 0)
(1.00186 0.00271729 0)
(1.00184 0.00263402 0)
(1.00205 0.00254864 0)
(1.00169 0.0025247 0)
(1.00182 0.00242754 0)
(1.00187 0.0022471 0)
(1.00214 0.00199361 0)
(1.00201 0.00190163 0)
(1.00204 0.00176868 0)
(1.00167 0.00177279 0)
(1.00014 0.000378097 0)
(1 -2.98885e-05 0)
(1.00063 -2.63184e-05 0)
(0.999761 0.000499704 0)
(1.00055 0.000982516 0)
(1.00006 0.00100762 0)
(1.00052 0.0016505 0)
(1.00006 0.00234942 0)
(1.00085 0.00274165 0)
(1.00099 0.00273854 0)
(1.00186 0.00266616 0)
(1.00187 0.00256962 0)
(1.00212 0.00251477 0)
(1.00177 0.00252408 0)
(1.00189 0.00245676 0)
(1.0019 0.00234285 0)
(1.00219 0.00211454 0)
(1.00212 0.00200305 0)
(1.00218 0.00191026 0)
(1.00192 0.00183977 0)
(1.00014 0.000343663 0)
(0.999963 3.24226e-05 0)
(1.00067 4.70739e-05 0)
(0.999858 0.000459731 0)
(1.0006 0.00099052 0)
(1.00014 0.00107928 0)
(1.0007 0.001583 0)
(1.00024 0.00219341 0)
(1.00093 0.00266129 0)
(1.00099 0.00271776 0)
(1.00185 0.00264065 0)
(1.00189 0.00253212 0)
(1.00219 0.00246757 0)
(1.00187 0.00250701 0)
(1.00197 0.00247045 0)
(1.00195 0.00240598 0)
(1.00224 0.00222792 0)
(1.00223 0.00208918 0)
(1.00231 0.00201601 0)
(1.00211 0.00193821 0)
(1.00014 0.000314815 0)
(0.99993 7.82086e-05 0)
(1.00069 0.000120258 0)
(0.999943 0.000439402 0)
(1.00065 0.000985785 0)
(1.00021 0.00113494 0)
(1.00084 0.00155046 0)
(1.00042 0.00204921 0)
(1.00103 0.00254144 0)
(1.001 0.00268297 0)
(1.00183 0.00261928 0)
(1.0019 0.00251226 0)
(1.00225 0.00243216 0)