/*--------------------------------*- C++ -*----------------------------------*\
| =========                 |                                                 |
| \\      /  F ield         | OpenFOAM: The Open Source CFD Toolbox           |
|  \\    /   O peration     | Version:  v1912                                 |
|   \\  /    A nd           | Website:  www.openfoam.com                      |
|    \\/     M anipulation  |                                                 |
\*---------------------------------------------------------------------------*/
FoamFile
{
    version     2.0;
    format      ascii;
    class       volScalarField;
    location    "6.55";
    object      p;
}
// * * * * * * * * * * * * * * * * * * * * * * * * * * * * * * * * * * * * * //

dimensions      [0 2 -2 0 0 0 0];


internalField   nonuniform List<scalar> 
9600
(
7.15412e-11
0.00544413
0.00810046
0.00470146
0.00666151
0.0131642
0.00394365
0.00512632
0.00609552
0.00937297
0.00968991
0.0093514
0.00985587
0.0104777
0.011122
0.0113658
0.013401
0.0152226
0.0169646
0.0227975
6.23908e-06
0.00544613
0.00806094
0.00474056
0.00667958
0.013049
0.0039613
0.00512886
0.00609103
0.00942085
0.00964491
0.00933976
0.00985171
0.0104779
0.0111275
0.0113332
0.013401
0.0150179
0.0169954
0.0219137
1.2934e-05
0.00544604
0.00802936
0.00477073
0.00668644
0.012934
0.00398581
0.00513487
0.00609754
0.00946749
0.00957538
0.00933579
0.00985046
0.0104747
0.0111272
0.0112862
0.0133885
0.014881
0.01698
0.0211353
2.09374e-05
0.00544946
0.00799712
0.00479235
0.00668187
0.0127861
0.00401615
0.00515328
0.00612077
0.00947993
0.00949506
0.00933663
0.0098477
0.0104625
0.0111228
0.0112315
0.0133709
0.0147438
0.0169251
0.0204271
3.37648e-05
0.00545658
0.0079602
0.00480874
0.00666993
0.0126501
0.00405857
0.0051812
0.0061606
0.0094587
0.009407
0.00933193
0.00984014
0.0104434
0.0111173
0.0111698
0.013351
0.0145971
0.0168473
0.0197763
5.43874e-05
0.00546489
0.00791725
0.00482559
0.0066532
0.0125158
0.00411423
0.0052111
0.006214
0.00941196
0.00931271
0.00932155
0.00982956
0.0104212
0.0111099
0.0111069
0.0133267
0.0144475
0.0167429
0.0191577
8.45035e-05
0.00547249
0.0078679
0.00484316
0.0066345
0.0123858
0.00418109
0.00523676
0.00627394
0.00935147
0.00921782
0.00931032
0.00981804
0.010397
0.011101
0.0110443
0.0132955
0.0142951
0.0166057
0.0185709
0.000124405
0.00547861
0.0078127
0.00486246
0.00661572
0.0122587
0.00425557
0.00525531
0.00633509
0.00928882
0.00912613
0.00929997
0.00980624
0.0103706
0.0110898
0.0109808
0.0132561
0.0141385
0.0164349
0.0180179
0.000173009
0.005483
0.00775288
0.00488365
0.00659744
0.0121309
0.00433417
0.00526756
0.0063956
0.0092299
0.00903727
0.00928916
0.00979345
0.0103407
0.0110752
0.0109156
0.0132076
0.0139788
0.0162315
0.0174974
0.000228435
0.0054857
0.00768965
0.00490603
0.00657944
0.0119993
0.00441452
0.00527598
0.00645537
0.00917507
0.00895006
0.00927547
0.00977788
0.0103063
0.0110571
0.0108477
0.0131493
0.0138189
0.0159952
0.0170063
0.000288787
0.0054868
0.00762381
0.00492836
0.00656138
0.0118617
0.00449539
0.00528257
0.00651454
0.00912284
0.00886408
0.00925665
0.00975828
0.010267
0.0110359
0.0107768
0.0130803
0.0136613
0.0157261
0.0165408
0.000352629
0.00548641
0.00755567
0.00494944
0.00654308
0.0117175
0.00457642
0.00528822
0.00657276
0.0090719
0.00877916
0.00923134
0.00973461
0.010223
0.0110119
0.0107031
0.0129991
0.0135077
0.0154255
0.0160956
0.000419076
0.0054846
0.00748529
0.00496853
0.00652458
0.0115668
0.00465798
0.0052927
0.00662887
0.00902165
0.00869489
0.00919899
0.0097077
0.0101745
0.0109846
0.0106268
0.0129033
0.0133593
0.0150959
0.0156643
0.000487653
0.00548145
0.00741269
0.00498529
0.00650627
0.0114105
0.00474087
0.00529529
0.00668139
0.00897201
0.00861044
0.00915943
0.00967896
0.0101218
0.010953
0.0105488
0.0127906
0.0132155
0.0147415
0.0152401
0.000558122
0.00547706
0.00733797
0.00499972
0.00648881
0.0112494
0.004826
0.00529545
0.0067292
0.00892331
0.00852483
0.00911266
0.00965002
0.0100651
0.0109154
0.0104699
0.0126593
0.0130745
0.0143677
0.0148168
0.000630371
0.00547159
0.00726131
0.005012
0.00647304
0.0110842
0.0049141
0.00529279
0.00677164
0.0088764
0.00843747
0.00905889
0.0096221
0.0100047
0.0108705
0.0103907
0.0125081
0.0129336
0.0139803
0.0143899
0.000704367
0.00546522
0.00718296
0.00502234
0.00645961
0.0109156
0.00500563
0.00528725
0.00680843
0.00883256
0.00834843
0.00899839
0.0095957
0.00994092
0.0108174
0.0103111
0.0123369
0.0127904
0.0135851
0.0139564
0.000780135
0.0054581
0.00710321
0.00503091
0.00644888
0.0107439
0.00510054
0.00527924
0.00683946
0.00879295
0.0082584
0.00893125
0.00957051
0.00987393
0.0107556
0.0102307
0.012146
0.0126423
0.0131878
0.0135143
0.000857741
0.00545031
0.00702226
0.00503781
0.006441
0.0105694
0.00519828
0.00526947
0.00686448
0.00875838
0.00816831
0.00885735
0.00954583
0.00980377
0.0106847
0.0101495
0.0119364
0.0124868
0.0127936
0.013062
0.000937266
0.00544187
0.0069403
0.00504306
0.00643581
0.0103918
0.00529792
0.00525875
0.00688287
0.0087291
0.00807895
0.0087765
0.0095209
0.00973005
0.0106045
0.0100671
0.0117089
0.0123219
0.0124075
0.0125985
0.00101878
0.00543268
0.00685745
0.00504652
0.0064329
0.0102111
0.00539831
0.00524803
0.00689382
0.00870469
0.00799092
0.00868835
0.00949489
0.00965251
0.0105147
0.00998334
0.0114646
0.0121455
0.0120347
0.0121234
0.00110232
0.00542258
0.00677387
0.00504794
0.00643178
0.0100274
0.00549809
0.00523822
0.00689635
0.00868432
0.00790482
0.00859234
0.00946726
0.00957079
0.0104142
0.00989887
0.0112039
0.0119541
0.0116811
0.0116386
0.00118785
0.00541143
0.00668966
0.00504705
0.00643191
0.00984101
0.00559589
0.00523013
0.00688948
0.00866692
0.00782122
0.00848782
0.00943774
0.00948462
0.0103012
0.0098152
0.0109285
0.0117434
0.0113515
0.0111477
0.0012753
0.0053991
0.00660495
0.00504363
0.00643278
0.00965256
0.00569028
0.00522452
0.0068727
0.00865116
0.00774062
0.00837411
0.00940609
0.00939447
0.0101735
0.00973321
0.0106416
0.0115082
0.0110491
0.0106579
0.00136455
0.00538546
0.00651982
0.00503749
0.00643389
0.00946287
0.00577984
0.00522209
0.00684603
0.00863553
0.0076636
0.00825049
0.00937201
0.00930146
0.0100286
0.00965297
0.0103477
0.011243
0.0107738
0.0101803
0.00145545
0.00537046
0.00643439
0.00502856
0.00643467
0.00927296
0.00586327
0.00522326
0.00680977
0.0086187
0.00759104
0.00811617
0.00933468
0.00920731
0.00986414
0.00957313
0.0100533
0.0109435
0.0105206
0.00972924
0.00154782
0.00535404
0.00634876
0.00501681
0.00643449
0.00908389
0.00593946
0.00522806
0.00676451
0.00859939
0.00752377
0.0079707
0.0092928
0.00911415
0.00967825
0.00949062
0.00976691
0.0106087
0.0102783
0.00932035
0.00164144
0.00533619
0.00626303
0.00500224
0.0064328
0.00889672
0.00600735
0.00523653
0.006711
0.00857604
0.00746263
0.00781381
0.00924456
0.00902461
0.00946975
0.00940073
0.00949738
0.0102412
0.0100303
0.00896581
0.00173607
0.00531694
0.00617728
0.00498486
0.00642904
0.00871241
0.00606599
0.00524859
0.00665015
0.0085468
0.00740842
0.00764569
0.00918728
0.00894172
0.00923919
0.00929663
0.00925213
0.00984791
0.00975823
0.00866712
0.00183143
0.00529639
0.00609159
0.00496477
0.00642262
0.00853182
0.00611481
0.00526356
0.00658293
0.00850997
0.00736168
0.00746741
0.00911736
0.00886837
0.00898895
0.00916984
0.00903621
0.00944059
0.00944669
0.00841534
0.00192723
0.00527462
0.00600608
0.00494199
0.00641301
0.00835564
0.0061535
0.00528042
0.00651017
0.00846404
0.00732276
0.00728049
0.00903051
0.00880689
0.0087231
0.00901091
0.0088513
0.00903577
0.00908697
0.00818959
0.00202317
0.00525182
0.00592084
0.0049165
0.00639977
0.00818429
0.00618205
0.00529827
0.00643239
0.00840752
0.00729167
0.00708716
0.00892217
0.00875815
0.00844817
0.00881109
0.00869353
0.00865323
0.00868045
0.00795776
0.00211886
0.00522816
0.00583601
0.00488826
0.00638263
0.00801784
0.00620084
0.00531645
0.00634994
0.00833882
0.00726781
0.00689023
0.00878792
0.00872095
0.00817282
0.00856499
0.00855288
0.00831228
0.00823895
0.00768602
0.00221395
0.00520384
0.00575176
0.00485717
0.00636138
0.00785619
0.00621049
0.00533447
0.00626293
0.0082565
0.00725041
0.00669305
0.00862365
0.00869169
0.00790734
0.0082717
0.00841292
0.00802575
0.00778319
0.007353
0.00230803
0.00517906
0.00566837
0.00482303
0.00633586
0.00769906
0.00621146
0.00535212
0.00617132
0.00815914
0.00723835
0.00649944
0.00842676
0.00866451
0.00766259
0.00793473
0.00825344
0.00779555
0.00734261
0.00695908
0.00240065
0.00515395
0.00558619
0.00478556
0.00630605
0.00754632
0.00620376
0.00536919
0.00607544
0.00804547
0.00722925
0.00631309
0.00819664
0.00863196
0.00744834
0.00756071
0.00805592
0.00761456
0.0069459
0.00652284
0.00249133
0.00512867
0.00550567
0.00474419
0.00627218
0.00739823
0.00618708
0.0053849
0.00597564
0.00791438
0.00722041
0.00613819
0.00793395
0.00858476
0.00727227
0.00715955
0.00780695
0.0074703
0.00660898
0.0060705
0.00257965
0.0051033
0.00542733
0.00469839
0.00623434
0.00725505
0.00616038
0.00539987
0.00587015
0.00776411
0.00720879
0.00597911
0.00764117
0.00851237
0.00713799
0.00674569
0.00749668
0.0073452
0.00633961
0.00563151
0.00266512
0.00507781
0.00535174
0.00464786
0.00619243
0.00711708
0.00612288
0.0054143
0.00576328
0.00759325
0.00718997
0.00583946
0.00732391
0.00840379
0.00704094
0.0063404
0.00712236
0.0072139
0.00614156
0.00522907
0.00274734
0.0050522
0.00527962
0.00459184
0.00614582
0.00698532
0.00607347
0.00542699
0.0056602
0.00740137
0.00715843
0.0057228
0.00699038
0.00824882
0.0069687
0.00596591
0.00669466
0.00704854
0.00601144
0.0048861
0.00282584
0.00502624
0.00521183
0.00453002
0.00609345
0.00686123
0.00601144
0.0054364
0.005564
0.00718951
0.00710861
0.00562973
0.00664919
0.00804234
0.00690686
0.0056331
0.00622596
0.00682915
0.00593756
0.00463155
0.00290035
0.00499955
0.00514908
0.00446231
0.00603408
0.00674669
0.00593702
0.00543851
0.00547826
0.00696067
0.00703427
0.00555883
0.00630984
0.00778188
0.00684012
0.0053493
0.00573042
0.00653771
0.00589928
0.00448998
0.00297062
0.00497177
0.00509191
0.00438895
0.00596565
0.0066434
0.00585169
0.00542757
0.00540537
0.00671956
0.00692849
0.00550425
0.00598643
0.00747311
0.00674993
0.00511973
0.00522483
0.0061677
0.00583858
0.00445916
0.00303647
0.00494232
0.00504082
0.00431071
0.00588588
0.00655203
0.00575806
0.00539811
0.00534464
0.00647493
0.00678793
0.00545626
0.00568895
0.00712673
0.00663127
0.00494902
0.00477202
0.00574195
0.00570434
0.00442026
0.00309797
0.00491019
0.0049961
0.00422857
0.00579196
0.00647245
0.00566088
0.00534552
0.00529289
0.0062371
0.00661241
0.00540594
0.00542169
0.0067553
0.00648419
0.00482737
0.00437909
0.0052818
0.00546584
0.00433172
0.00315492
0.00487494
0.00495795
0.00414422
0.00568128
0.00640269
0.00556589
0.00526824
0.00524605
0.00601298
0.00640511
0.0053413
0.00518472
0.00637649
0.00630115
0.00472795
0.00404306
0.00479625
0.00513592
0.00418155
0.00320751
0.00483563
0.00492581
0.00406028
0.00555207
0.00633898
0.00548073
0.00516671
0.00519499
0.00580957
0.00617386
0.00525153
0.00497216
0.00600238
0.00607532
0.0046142
0.00371597
0.00428257
0.00473595
0.00403231
0.00325567
0.00479167
0.00489916
0.00398
0.00540246
0.00627615
0.00541108
0.00504446
0.00512848
0.00562908
0.0059289
0.00512987
0.00477825
0.00563858
0.00580827
0.00450473
0.00345699
0.00379152
0.00429791
0.00377769
0.0032997
0.00474262
0.00487666
0.00390556
0.0052329
0.0062078
0.00536011
0.00490796
0.00503663
0.00546591
0.00568707
0.00497884
0.00458324
0.00528351
0.00550816
0.00436904
0.003231
0.00331978
0.0038189
0.003496
0.00334005
0.0046875
0.00485635
0.0038411
0.00504532
0.0061247
0.00532739
0.0047666
0.00491578
0.00531334
0.00545679
0.00480412
0.00437659
0.0049325
0.00518236
0.00419876
0.00303082
0.00289585
0.00331561
0.00318777
0.00337703
0.00462614
0.00483582
0.00379001
0.00484236
0.00601902
0.0053093
0.00463146
0.00476696
0.00515877
0.00523978
0.00461587
0.00415708
0.00457763
0.00483629
0.00400465
0.0028501
0.00252828
0.0028247
0.00284026
0.00341143
0.00455776
0.0048118
0.00375435
0.00462987
0.00588307
0.00529809
0.00451237
0.00459384
0.0049909
0.00503504
0.00442062
0.00392347
0.00422255
0.00448096
0.0037894
0.00267453
0.00221385
0.00237674
0.00244945
0.00344351
0.00448251
0.00478153
0.00373552
0.0044138
0.00571121
0.00528425
0.0044152
0.0044038
0.00480254
0.00483525
0.00422625
0.00368705
0.00386894
0.00411368
0.00355467
0.00250628
0.00194347
0.00197771
0.00204058
0.00347329
0.00440173
0.00474196
0.00373334
0.00420308
0.00550165
0.00525395
0.00434011
0.00420845
0.0045918
0.00463432
0.00403816
0.00345331
0.00351707
0.00373844
0.00330782
0.0023416
0.00169392
0.00161512
0.00164231
0.00350057
0.00431719
0.00469039
0.00374566
0.00400547
0.00525603
0.00519592
0.00428442
0.00401726
0.00436153
0.00442693
0.00385377
0.00322823
0.00317888
0.0033586
0.00303448
0.00216963
0.00146678
0.00128827
0.00127592
0.003525
0.00423047
0.00462491
0.0037671
0.00382651
0.00498116
0.00510205
0.00423832
0.00383709
0.00411684
0.00420817
0.00367212
0.0030159
0.00285723
0.00297616
0.00273275
0.0019891
0.0012691
0.000991706
0.000934679
0.00354583
0.00414376
0.00454468
0.00379035
0.00367117
0.00468951
0.00496505
0.00419001
0.0036733
0.00386391
0.00397525
0.00349087
0.00281548
0.00255247
0.00260204
0.00241376
0.00178435
0.00108331
0.000723514
0.00061898
0.0035622
0.00405865
0.00444982
0.00380703
0.00354234
0.00439629
0.00478324
0.00412694
0.00352616
0.00360892
0.00372712
0.00330521
0.0026277
0.00226929
0.0022397
0.00208254
0.00155153
0.00089843
0.000488827
0.000335369
0.00357302
0.00397595
0.00434181
0.0038098
0.00344085
0.00411329
0.00455896
0.00404026
0.0033934
0.00335847
0.00346466
0.00311072
0.0024509
0.00201045
0.00188909
0.00174223
0.00130126
0.000705938
0.00027579
8.12586e-05
0.00357723
0.00389595
0.00422322
0.00379354
0.00336166
0.00384864
0.00430246
0.00392416
0.00327151
0.00311855
0.00318956
0.00290126
0.0022781
0.00177738
0.00156098
0.0013966
0.00103463
0.000503788
7.04887e-05
-0.000148577
0.00357377
0.00381842
0.0040971
0.00375615
0.00329567
0.00360653
0.00402883
0.00377545
0.00315291
0.00289424
0.0029072
0.00267237
0.00210301
0.00156606
0.00126595
0.00105665
0.000746793
0.000292514
-0.000133466
-0.000365569
0.00356166
0.00374276
0.00396652
0.00369762
0.00323418
0.00338843
0.0037506
0.00359576
0.00302949
0.00268763
0.00262483
0.00242428
0.00191998
0.00136859
0.00100207
0.000737812
0.000442197
6.50384e-05
-0.00033478
-0.000579813
0.00354009
0.00366807
0.00383431
0.00361928
0.00317075
0.00319315
0.00347688
0.00339034
0.00289395
0.00249701
0.00235027
0.00216004
0.00172324
0.0011807
0.000762052
0.000449244
0.000138747
-0.000184739
-0.000536069
-0.000791311
0.00350868
0.00359321
0.00370261
0.00352361
0.00310042
0.00301789
0.00321356
0.00316584
0.00274147
0.00231829
0.00209101
0.0018865
0.00150776
0.00099786
0.000542984
0.000187699
-0.000147772
-0.000451841
-0.00074556
-0.000994703
0.00346716
0.00351698
0.00357276
0.00341367
0.00302011
0.00285844
0.00296435
0.00292969
0.00257057
0.00214478
0.00185128
0.00161475
0.00127365
0.00080897
0.000342083
-4.95221e-05
-0.000409572
-0.000720634
-0.0009711
-0.00119221
0.00341578
0.0034385
0.0034453
0.0032924
0.00292838
0.00271034
0.00273117
0.00268892
0.00238312
0.00197042
0.00162874
0.00135479
0.00103072
0.000605447
0.000149701
-0.000262563
-0.000644399
-0.000975453
-0.00120898
-0.00139102
0.00335488
0.00335673
0.00332061
0.00316327
0.00282473
0.00256876
0.00251388
0.00244987
0.00218346
0.00179237
0.00141937
0.00110985
0.000789156
0.000391871
-4.75618e-05
-0.000460839
-0.000852625
-0.00120628
-0.00144758
-0.00159823
0.00328516
0.00327093
0.00319852
0.003029
0.00271018
0.0024304
0.00231086
0.00221663
0.00197633
0.00160964
0.00122074
0.000880533
0.000554279
0.000179689
-0.000249482
-0.000658689
-0.00104308
-0.00141069
-0.00167374
-0.00181348
0.00320729
0.00318065
0.00307854
0.00289179
0.00258582
0.0022934
0.00212144
0.00199247
0.00176565
0.0014214
0.00103039
0.000669232
0.000327094
-2.90254e-05
-0.000442194
-0.00085724
-0.00122826
-0.00159268
-0.00187758
-0.00202636
0.00312218
0.00308542
0.00296037
0.00275438
0.00245349
0.00215463
0.00194396
0.00178075
0.00155614
0.001229
0.000844404
0.000476789
0.000115421
-0.000237016
-0.000623258
-0.00104289
-0.00141291
-0.00176147
-0.00205804
-0.00222341
0.00303097
0.0029854
0.0028425
0.00261848
0.0023172
0.00201338
0.00177422
0.00158209
0.00135225
0.00103626
0.000660648
0.00029694
-7.12114e-05
-0.000435526
-0.000798361
-0.00120615
-0.00158748
-0.00192301
-0.00221991
-0.00240049
0.00293456
0.00288108
0.00272474
0.00248402
0.00217848
0.00187164
0.00161145
0.00139523
0.00115639
0.000847266
0.00048106
0.000122857
-0.000237072
-0.000609988
-0.000966156
-0.00134752
-0.00173709
-0.00207236
-0.00236475
-0.00255776
0.00283389
0.00277356
0.00260666
0.00235293
0.00203956
0.00172859
0.00145524
0.00122012
0.000969514
0.000665094
0.000310073
-4.52206e-05
-0.000391079
-0.000756327
-0.00111609
-0.00147223
-0.00185124
-0.00219195
-0.00248315
-0.00268942
0.00272961
0.00266332
0.00248768
0.00222543
0.00190536
0.00158681
0.00130361
0.00105656
0.000791869
0.000489545
0.000149494
-0.000201874
-0.000536576
-0.000881361
-0.00123815
-0.00157717
-0.00193152
-0.00226704
-0.00255294
-0.00276515
0.00262199
0.00255158
0.00236938
0.00210044
0.00177605
0.00145102
0.00115571
0.000901556
0.000627408
0.000323656
1.10074e-06
-0.000339072
-0.000667306
-0.00099226
-0.00134171
-0.00167989
-0.00201647
-0.0023377
-0.00260701
-0.00280067
0.00251305
0.00243948
0.00225221
0.00198
0.00165401
0.00132269
0.00101464
0.000745098
0.000464122
0.000168156
-0.00012111
-0.00040902
-0.000693107
-0.000980397
-0.00129963
-0.00164178
-0.00200873
-0.00238967
-0.00274588
-0.00303064
0.00240396
0.00232769
0.00213548
0.0018646
0.00154221
0.0012062
0.000885444
0.000581526
0.000239221
-0.000111609
-0.000426614
-0.000669987
-0.000845848
-0.00103106
-0.00125048
-0.00145461
-0.00162279
-0.00174686
-0.00184139
-0.00193514
0.00228573
0.002217
0.00203819
0.00177645
0.001458
0.00111696
0.00079483
0.000519589
0.000230607
-5.80958e-05
-0.000318143
-0.00058151
-0.00083103
-0.00107535
-0.00137236
-0.00170888
-0.00208033
-0.00247574
-0.00286633
-0.00320526
0.00215287
0.00206848
0.00192372
0.00170312
0.00140739
0.00107222
0.00074221
0.000454654
0.000155756
-0.000168058
-0.000466985
-0.000738968
-0.00100197
-0.00120477
-0.00137636
-0.00152528
-0.00163483
-0.00172565
-0.00182027
-0.00196104
0.00208109
0.00199792
0.00183351
0.00159721
0.00130292
0.000971741
0.000650334
0.000370606
7.89018e-05
-0.000229643
-0.000518225
-0.000757988
-0.000990223
-0.00119511
-0.00137355
-0.00156236
-0.0017563
-0.0019588
-0.00217343
-0.00242385
0.021657
0.0152787
0.00613404
-0.000806789
-0.00343723
-0.00308403
-0.0022104
-0.00192488
-0.00230699
-0.00317557
-0.00416118
-0.00490658
-0.00526692
-0.00532078
-0.0054751
-0.00585637
-0.00610765
-0.00629307
-0.00663811
-0.00699305
-0.00724227
-0.00746438
-0.00775686
-0.0080648
-0.00827679
-0.00846489
-0.00872654
-0.00902247
-0.00926744
-0.00946649
-0.00972465
-0.0101032
-0.0106487
-0.011618
-0.0129968
-0.0141637
-0.0145539
-0.0143461
-0.01427
-0.0145315
-0.0147985
-0.015077
-0.0155585
-0.0159976
-0.0162334
-0.016722
-0.0177643
-0.0188003
-0.019292
-0.0194881
-0.0199317
-0.0205986
-0.0211153
-0.0214608
-0.0218867
-0.0224661
-0.0231764
-0.0239218
-0.0245635
-0.0251632
-0.0258467
-0.0265735
-0.0271969
-0.0277801
-0.0283896
-0.0289751
-0.0296183
-0.030341
-0.0310997
-0.0318198
-0.0325415
-0.0332767
-0.0340289
-0.0347922
-0.0355525
-0.0362917
-0.0370568
-0.0379242
-0.0387925
-0.0396647
-0.0404882
-0.0413293
-0.0421539
-0.0430804
-0.0440428
-0.0450055
-0.045968
-0.0469019
-0.0479119
-0.0488907
-0.0499464
-0.0509489
-0.0520308
-0.0531625
-0.0542073
-0.055332
-0.0564705
-0.0575177
-0.0584744
-0.0595296
0.0208064
0.0151517
0.00622536
-0.000672416
-0.00334433
-0.00303474
-0.00217818
-0.00190097
-0.00228851
-0.00316164
-0.00415162
-0.00490017
-0.00526258
-0.00531704
-0.00547126
-0.00585321
-0.00610478
-0.00628999
-0.00663542
-0.00699083
-0.00724012
-0.00746218
-0.00775477
-0.00806296
-0.00827498
-0.00846299
-0.0087247
-0.00902081
-0.00926591
-0.00946499
-0.00972315
-0.0101016
-0.0106468
-0.0116158
-0.0129953
-0.014163
-0.0145534
-0.0143452
-0.0142687
-0.0145305
-0.0147976
-0.015076
-0.0155576
-0.0159971
-0.0162326
-0.0167208
-0.0177633
-0.0188
-0.0192917
-0.0194875
-0.019931
-0.0205982
-0.0211149
-0.0214604
-0.0218863
-0.0224657
-0.023176
-0.0239214
-0.0245632
-0.0251629
-0.0258463
-0.0265732
-0.0271967
-0.0277798
-0.0283894
-0.0289749
-0.0296181
-0.0303407
-0.0310995
-0.0318196
-0.0325413
-0.0332765
-0.0340287
-0.034792
-0.0355523
-0.0362915
-0.0370566
-0.037924
-0.0387923
-0.0396646
-0.040488
-0.0413292
-0.0421538
-0.0430803
-0.0440427
-0.0450054
-0.0459678
-0.0469018
-0.0479117
-0.0488906
-0.0499463
-0.0509488
-0.0520307
-0.0531624
-0.0542072
-0.0553319
-0.0564705
-0.0575176
-0.0584743
-0.0595294
0.0201852
0.015122
0.00644303
-0.000416325
-0.0031929
-0.00297775
-0.00215557
-0.00188473
-0.00227302
-0.00314629
-0.00413706
-0.00488809
-0.00525419
-0.00531156
-0.00546754
-0.00585066
-0.00610216
-0.00628706
-0.00663307
-0.00698901
-0.00723835
-0.00746036
-0.00775311
-0.00806156
-0.00827358
-0.00846146
-0.00872322
-0.00901946
-0.00926459
-0.00946362
-0.00972179
-0.0101001
-0.0106448
-0.0116138
-0.0129944
-0.0141633
-0.0145536
-0.0143443
-0.0142674
-0.0145296
-0.0147968
-0.0150749
-0.0155569
-0.0159968
-0.0162318
-0.0167194
-0.0177626
-0.0188001
-0.0192917
-0.0194869
-0.0199303
-0.0205979
-0.0211148
-0.02146
-0.0218858
-0.0224653
-0.0231756
-0.0239212
-0.024563
-0.0251626
-0.025846
-0.0265731
-0.0271965
-0.0277796
-0.0283892
-0.0289747
-0.0296179
-0.0303405
-0.0310993
-0.0318194
-0.0325411
-0.0332764
-0.0340285
-0.0347919
-0.0355522
-0.0362914
-0.0370564
-0.0379238
-0.0387922
-0.0396645
-0.0404879
-0.0413291
-0.0421537
-0.0430802
-0.0440426
-0.0450053
-0.0459678
-0.0469017
-0.0479117
-0.0488905
-0.0499463
-0.0509487
-0.0520306
-0.0531624
-0.0542072
-0.0553318
-0.0564704
-0.0575176
-0.0584742
-0.0595293
0.0195617
0.0150554
0.00666897
-0.000129419
-0.003004
-0.00290398
-0.0021265
-0.00186473
-0.00225398
-0.00312613
-0.00411433
-0.004865
-0.00523591
-0.00530043
-0.0054615
-0.00584654
-0.00609784
-0.0062827
-0.00662961
-0.00698639
-0.0072362
-0.00745835
-0.00775123
-0.00806004
-0.00827237
-0.00846027
-0.00872195
-0.00901813
-0.00926323
-0.00946228
-0.00972043
-0.0100984
-0.0106424
-0.0116115
-0.0129938
-0.014164
-0.014554
-0.0143433
-0.0142659
-0.0145287
-0.014796
-0.0150736
-0.0155561
-0.0159966
-0.0162308
-0.0167176
-0.0177618
-0.0188004
-0.0192918
-0.0194861
-0.0199295
-0.0205976
-0.0211146
-0.0214596
-0.0218852
-0.0224648
-0.0231752
-0.023921
-0.0245628
-0.0251623
-0.0258457
-0.0265729
-0.0271964
-0.0277794
-0.028389
-0.0289745
-0.0296176
-0.0303403
-0.0310991
-0.0318192
-0.0325409
-0.0332762
-0.0340284
-0.0347917
-0.035552
-0.0362912
-0.0370563
-0.0379237
-0.0387921
-0.0396644
-0.0404878
-0.041329
-0.0421535
-0.04308
-0.0440425
-0.0450052
-0.0459677
-0.0469016
-0.0479116
-0.0488905
-0.0499462
-0.0509487
-0.0520305
-0.0531623
-0.0542071
-0.0553318
-0.0564703
-0.0575175
-0.0584742
-0.0595293
0.0189103
0.0149309
0.00689057
0.000168656
-0.00280162
-0.00282303
-0.00209591
-0.00184324
-0.0022321
-0.00310117
-0.0040826
-0.00482915
-0.00520577
-0.00528241
-0.00545245
-0.00583994
-0.00609075
-0.00627586
-0.00662383
-0.00698178
-0.00723287
-0.00745573
-0.00774872
-0.00805796
-0.00827123
-0.00845971
-0.0087212
-0.00901697
-0.00926207
-0.00946142
-0.00971942
-0.0100964
-0.0106393
-0.0116088
-0.0129932
-0.0141649
-0.0145543
-0.014342
-0.0142643
-0.0145279
-0.014795
-0.015072
-0.0155551
-0.0159965
-0.0162296
-0.0167154
-0.0177608
-0.018801
-0.0192918
-0.0194851
-0.0199285
-0.0205974
-0.0211144
-0.021459
-0.0218846
-0.0224642
-0.0231748
-0.0239207
-0.0245625
-0.0251619
-0.0258453
-0.0265727
-0.0271962
-0.0277791
-0.0283888
-0.0289742
-0.0296173
-0.0303401
-0.0310989
-0.0318191
-0.0325408
-0.033276
-0.0340282
-0.0347916
-0.0355519
-0.0362911
-0.037056
-0.0379235
-0.038792
-0.0396642
-0.0404877
-0.0413289
-0.0421534
-0.0430799
-0.0440424
-0.0450051
-0.0459676
-0.0469015
-0.0479115
-0.0488904
-0.0499461
-0.0509486
-0.0520304
-0.0531623
-0.054207
-0.0553317
-0.0564703
-0.0575176
-0.0584743
-0.0595293
0.0182444
0.0147702
0.00711472
0.000473898
-0.00259364
-0.00273978
-0.00206696
-0.00182265
-0.00220882
-0.00307291
-0.00404496
-0.0047846
-0.00516689
-0.00525912
-0.00544106
-0.00583105
-0.00608077
-0.0062662
-0.00661514
-0.00697439
-0.00722759
-0.00745191
-0.00774506
-0.00805486
-0.00826989
-0.00845974
-0.00872111
-0.00901619
-0.00926153
-0.00946191
-0.00971976
-0.0100948
-0.0106359
-0.0116058
-0.0129924
-0.0141653
-0.014554
-0.0143404
-0.0142627
-0.0145272
-0.0147941
-0.0150702
-0.0155541
-0.0159963
-0.0162281
-0.0167127
-0.0177597
-0.0188015
-0.0192918
-0.0194839
-0.0199275
-0.0205971
-0.0211142
-0.0214583
-0.0218838
-0.0224636
-0.0231742
-0.0239204
-0.0245622
-0.0251615
-0.0258449
-0.0265725
-0.027196
-0.0277789
-0.0283885
-0.0289739
-0.029617
-0.0303398
-0.0310988
-0.0318189
-0.0325406
-0.0332758
-0.034028
-0.0347914
-0.0355517
-0.0362909
-0.0370558
-0.0379234
-0.0387918
-0.0396641
-0.0404876
-0.0413287
-0.0421532
-0.0430797
-0.0440423
-0.045005
-0.0459675
-0.0469014
-0.0479114
-0.0488903
-0.049946
-0.0509485
-0.0520303
-0.0531622
-0.0542069
-0.0553316
-0.0564703
-0.0575176
-0.0584746
-0.0595294
0.0175764
0.0145779
0.0073387
0.000782086
-0.00238244
-0.00265484
-0.00203948
-0.00180274
-0.00218385
-0.00304194
-0.00400401
-0.00473573
-0.00512362
-0.00523331
-0.00542885
-0.00582104
-0.0060688
-0.0062542
-0.00660379
-0.00696425
-0.00722008
-0.00744642
-0.00773984
-0.00805045
-0.00826807
-0.00845996
-0.00872136
-0.00901575
-0.00926173
-0.00946413
-0.00972225
-0.0100946
-0.010633
-0.011603
-0.0129913
-0.0141647
-0.0145524
-0.0143378
-0.0142605
-0.0145263
-0.0147931
-0.0150685
-0.0155534
-0.0159964
-0.0162264
-0.0167096
-0.0177584
-0.0188019
-0.0192915
-0.0194825
-0.0199264
-0.0205967
-0.0211137
-0.0214574
-0.0218829
-0.0224629
-0.0231736
-0.0239199
-0.0245619
-0.0251609
-0.0258444
-0.0265721
-0.0271958
-0.0277785
-0.0283882
-0.0289735
-0.0296166
-0.0303396
-0.0310985
-0.0318187
-0.0325403
-0.0332756
-0.0340278
-0.0347912
-0.0355516
-0.0362907
-0.0370555
-0.0379232
-0.0387917
-0.039664
-0.0404874
-0.0413286
-0.042153
-0.0430795
-0.0440422
-0.0450048
-0.0459674
-0.0469012
-0.0479112
-0.0488901
-0.0499459
-0.0509484
-0.0520301
-0.0531621
-0.0542069
-0.0553315
-0.0564702
-0.0575177
-0.0584749
-0.0595296
0.0169121
0.01435
0.00755598
0.00109183
-0.00216715
-0.00256648
-0.0020122
-0.00178307
-0.00215706
-0.00300865
-0.00396102
-0.00468458
-0.005078
-0.0052062
-0.00541655
-0.00581093
-0.00605595
-0.00624084
-0.00659071
-0.00695207
-0.00721065
-0.00743928
-0.007733
-0.00804474
-0.0082657
-0.00846
-0.00872149
-0.00901544
-0.00926263
-0.00946794
-0.00972695
-0.0100964
-0.0106318
-0.0116017
-0.0129907
-0.0141631
-0.0145494
-0.014334
-0.0142574
-0.0145245
-0.0147913
-0.0150665
-0.0155532
-0.0159974
-0.016225
-0.0167061
-0.0177568
-0.018802
-0.0192908
-0.0194808
-0.0199253
-0.0205962
-0.021113
-0.0214562
-0.0218819
-0.022462
-0.0231728
-0.0239193
-0.0245613
-0.0251603
-0.0258437
-0.0265717
-0.0271954
-0.0277781
-0.0283877
-0.028973
-0.0296161
-0.0303392
-0.0310983
-0.0318184
-0.0325401
-0.0332754
-0.0340275
-0.034791
-0.0355514
-0.0362904
-0.0370552
-0.037923
-0.0387916
-0.0396638
-0.0404872
-0.0413284
-0.0421528
-0.0430793
-0.044042
-0.0450047
-0.0459673
-0.0469011
-0.0479111
-0.04889
-0.0499458
-0.0509483
-0.05203
-0.0531621
-0.0542068
-0.0553315
-0.0564702
-0.0575179
-0.0584754
-0.0595299
0.0162555
0.0140826
0.00776196
0.00140403
-0.0019454
-0.00247245
-0.00198396
-0.00176387
-0.00212912
-0.0029735
-0.00391647
-0.00463183
-0.00503063
-0.005178
-0.00540431
-0.0058012
-0.00604297
-0.00622692
-0.00657682
-0.00693868
-0.00719985
-0.00743088
-0.00772487
-0.00803787
-0.0082628
-0.00845975
-0.00872129
-0.00901518
-0.00926426
-0.00947307
-0.00973342
-0.0101003
-0.0106332
-0.011603
-0.0129919
-0.0141616
-0.0145451
-0.014329
-0.0142534
-0.0145214
-0.014788
-0.0150633
-0.0155533
-0.0159999
-0.0162246
-0.0167029
-0.0177552
-0.018802
-0.0192896
-0.0194788
-0.019924
-0.0205956
-0.0211122
-0.021455
-0.0218809
-0.0224612
-0.0231718
-0.0239184
-0.0245607
-0.0251595
-0.0258428
-0.026571
-0.0271949
-0.0277775
-0.0283871
-0.0289723
-0.0296156
-0.0303388
-0.0310979
-0.031818
-0.0325398
-0.0332751
-0.0340273
-0.0347907
-0.0355512
-0.0362902
-0.0370548
-0.0379228
-0.0387915
-0.0396636
-0.040487
-0.0413282
-0.0421526
-0.043079
-0.0440419
-0.0450045
-0.0459671
-0.0469009
-0.0479109
-0.0488898
-0.0499456
-0.0509481
-0.0520299
-0.053162
-0.0542067
-0.0553314
-0.0564701
-0.0575182
-0.0584762
-0.0595303
0.0156117
0.0137743
0.00795245
0.00171992
-0.00171503
-0.00237085
-0.00195391
-0.00174584
-0.00210103
-0.00293692
-0.00387056
-0.0045777
-0.00498171
-0.00514876
-0.00539208
-0.00579195
-0.00603021
-0.00621289
-0.00656264
-0.00692459
-0.00718803
-0.00742158
-0.00771584
-0.00803002
-0.00825935
-0.00845922
-0.0087208
-0.00901503
-0.00926672
-0.00947942
-0.00974134
-0.0101059
-0.0106369
-0.0116074
-0.012996
-0.0141613
-0.0145404
-0.0143233
-0.0142489
-0.0145176
-0.0147831
-0.0150581
-0.015553
-0.0160042
-0.0162263
-0.0167008
-0.0177541
-0.018802
-0.019288
-0.0194765
-0.0199227
-0.0205948
-0.021111
-0.0214537
-0.02188
-0.0224604
-0.0231706
-0.0239172
-0.0245598
-0.0251587
-0.0258417
-0.02657
-0.0271942
-0.0277767
-0.0283863
-0.0289715
-0.0296149
-0.0303382
-0.0310974
-0.0318176
-0.0325394
-0.0332748
-0.034027
-0.0347905
-0.0355509
-0.0362898
-0.0370544
-0.0379227
-0.0387914
-0.0396634
-0.0404868
-0.041328
-0.0421523
-0.0430788
-0.0440417
-0.0450043
-0.045967
-0.0469007
-0.0479107
-0.0488896
-0.0499454
-0.0509479
-0.0520297
-0.0531619
-0.0542066
-0.0553314
-0.05647
-0.0575185
-0.0584772
-0.0595309
0.0149871
0.0134258
0.00812329
0.00204001
-0.00147463
-0.00226043
-0.00192152
-0.00172964
-0.00207373
-0.00289924
-0.00382338
-0.00452243
-0.00493154
-0.00511859
-0.00537963
-0.00578291
-0.00601774
-0.00619894
-0.00654837
-0.00691002
-0.00717537
-0.00741158
-0.00770615
-0.00802133
-0.00825527
-0.00845845
-0.00872017
-0.00901504
-0.00927008
-0.00948705
-0.0097507
-0.0101131
-0.0106428
-0.0116147
-0.0130036
-0.0141636
-0.0145363
-0.0143172
-0.0142446
-0.0145144
-0.0147778
-0.0150514
-0.0155521
-0.0160103