/*--------------------------------*- C++ -*----------------------------------*\
| =========                 |                                                 |
| \\      /  F ield         | OpenFOAM: The Open Source CFD Toolbox           |
|  \\    /   O peration     | Version:  v1912                                 |
|   \\  /    A nd           | Website:  www.openfoam.com                      |
|    \\/     M anipulation  |                                                 |
\*---------------------------------------------------------------------------*/
FoamFile
{
    version     2.0;
    format      ascii;
    class       volVectorField;
    location    "6.55";
    object      U;
}
// * * * * * * * * * * * * * * * * * * * * * * * * * * * * * * * * * * * * * //

dimensions      [0 1 -1 0 0 0 0];


internalField   nonuniform List<vector> 
9600
(
(0.80039 -0.00787904 0)
(1.26446 0.0110724 0)
(0.793505 -0.00182986 0)
(1.11138 0.00407535 0)
(0.985805 0.0160086 0)
(1.19866 -0.00854635 0)
(0.632958 -0.00698821 0)
(1.30713 0.00301551 0)
(0.651235 -0.0138782 0)
(1.28545 0.0202437 0)
(0.836515 0.00996501 0)
(1.13751 0.0239871 0)
(0.86448 0.00488768 0)
(1.10062 0.0109358 0)
(0.899529 0.0116119 0)
(1.08477 0.0080158 0)
(0.883329 0.0199765 0)
(1.08986 0.000746869 0)
(0.861491 0.0160874 0)
(1.11461 0.00262054 0)
(0.810236 -0.00848675 0)
(1.25726 0.011166 0)
(0.816462 -0.00073543 0)
(1.10714 0.00260531 0)
(0.989963 0.0148315 0)
(1.19679 -0.00404564 0)
(0.654915 -0.00891918 0)
(1.29669 0.00320454 0)
(0.678992 -0.0141652 0)
(1.27528 0.018224 0)
(0.867543 0.0117799 0)
(1.12355 0.0241431 0)
(0.905083 0.0054065 0)
(1.07726 0.0105851 0)
(0.947069 0.0118623 0)
(1.04324 0.00861696 0)
(0.949818 0.0197922 0)
(1.01931 0.00163085 0)
(0.956856 0.0162728 0)
(1.0057 0.00414932 0)
(0.828849 -0.00906529 0)
(1.23953 0.0113881 0)
(0.855361 0.000154673 0)
(1.09515 0.00133085 0)
(0.999881 0.0139649 0)
(1.18525 -0.00102696 0)
(0.697443 -0.010167 0)
(1.27052 0.00336595 0)
(0.739305 -0.0144466 0)
(1.24182 0.0159695 0)
(0.928661 0.0139313 0)
(1.09687 0.0237482 0)
(0.957689 0.00610056 0)
(1.04403 0.00976525 0)
(0.993175 0.0125265 0)
(1.01388 0.00872705 0)
(0.992245 0.0199593 0)
(0.998388 0.00159386 0)
(0.98922 0.0152863 0)
(0.999646 0.00495356 0)
(0.854922 -0.00959425 0)
(1.21007 0.0113789 0)
(0.901238 0.00104118 0)
(1.07578 0.000397622 0)
(1.01223 0.0130533 0)
(1.16228 0.00190544 0)
(0.759157 -0.0112011 0)
(1.22429 0.0030679 0)
(0.819936 -0.0143176 0)
(1.1839 0.0138275 0)
(0.990824 0.0157442 0)
(1.07226 0.0234483 0)
(0.993523 0.00695227 0)
(1.01985 0.00911042 0)
(1.01131 0.0130026 0)
(1.00473 0.00875338 0)
(1.00476 0.0203278 0)
(0.995565 0.00177851 0)
(0.992161 0.0156403 0)
(0.995706 0.00533695 0)
(0.885411 -0.010081 0)
(1.17054 0.0111133 0)
(0.945619 0.00194244 0)
(1.05287 -0.00030562 0)
(1.02253 0.0121834 0)
(1.12988 0.00431779 0)
(0.830137 -0.0118676 0)
(1.16361 0.00241276 0)
(0.895196 -0.0138262 0)
(1.11638 0.0116704 0)
(1.02981 0.0169012 0)
(1.05811 0.0236641 0)
(1.01177 0.00791758 0)
(1.00776 0.00886308 0)
(1.0112 0.0132253 0)
(1.0016 0.00903761 0)
(1.004 0.0203863 0)
(0.99381 0.00254789 0)
(0.986787 0.0155643 0)
(0.988306 0.0063485 0)
(0.916109 -0.0104791 0)
(1.12544 0.0106923 0)
(0.982047 0.00276454 0)
(1.03181 -0.000779725 0)
(1.02694 0.0114498 0)
(1.09412 0.00606488 0)
(0.895129 -0.0120673 0)
(1.10149 0.00162713 0)
(0.945951 -0.0132106 0)
(1.05794 0.00986971 0)
(1.04242 0.0173425 0)
(1.05159 0.0241333 0)
(1.02174 0.00896289 0)
(1.0042 0.00898956 0)
(1.00588 0.0134209 0)
(0.998601 0.00928078 0)
(0.999092 0.0204417 0)
(0.99197 0.00333085 0)
(0.981538 0.0154406 0)
(0.982676 0.00721053 0)
(0.943102 -0.0107453 0)
(1.08101 0.0101865 0)
(1.00739 0.00342793 0)
(1.01703 -0.00100719 0)
(1.02393 0.0108899 0)
(1.06222 0.00717056 0)
(0.943082 -0.0118683 0)
(1.05016 0.000980457 0)
(0.97037 -0.0126237 0)
(1.01839 0.00855483 0)
(1.03846 0.0171227 0)
(1.04718 0.0244762 0)
(1.02825 0.0100178 0)
(1.00556 0.00940076 0)
(1.00157 0.0136762 0)
(0.995656 0.00950692 0)
(0.993966 0.0204578 0)
(0.990546 0.00414823 0)
(0.979244 0.0154057 0)
(0.980542 0.00807326 0)
(0.96409 -0.0108638 0)
(1.04312 0.0096458 0)
(1.02187 0.00387026 0)
(1.01012 -0.000991842 0)
(1.01539 0.0105098 0)
(1.03859 0.00772897 0)
(0.971594 -0.0113934 0)
(1.01566 0.000591889 0)
(0.978277 -0.0121581 0)
(0.996702 0.00754792 0)
(1.02839 0.0164376 0)
(1.04166 0.0245162 0)
(1.03129 0.0109697 0)
(1.00823 0.00998766 0)
(0.999491 0.0140739 0)
(0.993673 0.00979218 0)
(0.990388 0.0204028 0)
(0.990188 0.00492328 0)
(0.98006 0.0153149 0)
(0.981943 0.00889475 0)
(0.978806 -0.0108469 0)
(1.01517 0.00911332 0)
(1.02784 0.00406682 0)
(1.00981 -0.000768503 0)
(1.00545 0.0102917 0)
(1.02333 0.00790887 0)
(0.984566 -0.0107723 0)
(0.997513 0.000392007 0)
(0.980894 -0.0118117 0)
(0.986781 0.00671434 0)
(1.01777 0.015555 0)
(1.03395 0.0242708 0)
(1.02983 0.0117563 0)
(1.00927 0.0106482 0)
(0.998634 0.0145999 0)
(0.993205 0.0101424 0)
(0.989286 0.0202729 0)
(0.991719 0.00561041 0)
(0.983576 0.0150699 0)
(0.986219 0.0096879 0)
(0.988428 -0.0107262 0)
(0.997345 0.00861848 0)
(1.02811 0.00403461 0)
(1.01329 -0.000401673 0)
(0.997941 0.0102228 0)
(1.01382 0.00786695 0)
(0.988066 -0.0101177 0)
(0.991394 0.000231258 0)
(0.98464 -0.01151 0)
(0.983106 0.00606199 0)
(1.00827 0.0146946 0)
(1.02416 0.0238485 0)
(1.02399 0.0123795 0)
(1.00745 0.0112641 0)
(0.997901 0.0151385 0)
(0.994197 0.0104963 0)
(0.990944 0.0200376 0)
(0.995428 0.00621261 0)
(0.989322 0.0146737 0)
(0.992387 0.0104401 0)
(0.994585 -0.0105397 0)
(0.987533 0.00817796 0)
(1.02506 0.00381666 0)
(1.01767 2.6824e-05 0)
(0.99467 0.0102963 0)
(1.00721 0.0077382 0)
(0.987498 -0.0095121 0)
(0.992016 -2.2206e-05 0)
(0.990597 -0.0111909 0)
(0.982588 0.00564582 0)
(1.00034 0.0139896 0)
(1.01338 0.023369 0)
(1.01537 0.0128553 0)
(1.00336 0.011721 0)
(0.997017 0.0155613 0)
(0.996221 0.0107576 0)
(0.99484 0.0196526 0)
(1.00065 0.0067331 0)
(0.996362 0.0141669 0)
(0.999245 0.0111327 0)
(0.998597 -0.01032 0)
(0.982945 0.00780166 0)
(1.02032 0.00346772 0)
(1.02087 0.000438395 0)
(0.995324 0.0105018 0)
(1.00197 0.00761286 0)
(0.986358 -0.00900848 0)
(0.995154 -0.000430828 0)
(0.997138 -0.0108211 0)
(0.983904 0.0054972 0)
(0.994459 0.0135121 0)
(1.00337 0.0229096 0)
(1.00639 0.0132029 0)
(0.998643 0.0119529 0)
(0.996388 0.0157719 0)
(0.998827 0.0108483 0)
(0.999876 0.0191029 0)
(1.00617 0.00718908 0)
(1.0033 0.0135961 0)
(1.00552 0.0117795 0)
(1.00122 -0.0100896 0)
(0.981348 0.00749484 0)
(1.015 0.00304471 0)
(1.02186 0.000771885 0)
(0.998372 0.0108177 0)
(0.998006 0.00753333 0)
(0.986203 -0.00861823 0)
(0.998342 -0.00098524 0)
(1.00245 -0.0104077 0)
(0.986339 0.00559216 0)
(0.991048 0.0132837 0)
(0.995796 0.0225019 0)
(0.999321 0.0134445 0)
(0.99499 0.0119501 0)
(0.996544 0.0157306 0)
(1.00168 0.0107569 0)
(1.00488 0.0184147 0)
(1.01086 0.00761682 0)
(1.00886 0.0130162 0)
(1.01021 0.0123774 0)
(1.00278 -0.00986073 0)
(0.981393 0.00725665 0)
(1.00989 0.00259964 0)
(1.02051 0.000993255 0)
(1.00208 0.0112034 0)
(0.995809 0.00750135 0)
(0.987318 -0.00831676 0)
(1.00063 -0.00162973 0)
(1.00559 -0.00999859 0)
(0.989149 0.00585276 0)
(0.990104 0.013267 0)
(0.991609 0.0221522 0)
(0.995424 0.0136023 0)
(0.993386 0.0117519 0)
(0.997673 0.0154718 0)
(1.00446 0.0105321 0)
(1.00897 0.0176298 0)
(1.01408 0.00805412 0)
(1.01243 0.0124767 0)
(1.01286 0.0129198 0)
(1.00342 -0.00963861 0)
(0.982367 0.00707805 0)
(1.0056 0.00217635 0)
(1.0173 0.00109937 0)
(1.00515 0.0115983 0)
(0.995602 0.00749935 0)
(0.989481 -0.00805977 0)
(1.00199 -0.00229853 0)
(1.00651 -0.00961785 0)
(0.991506 0.00618546 0)
(0.991039 0.0133887 0)
(0.990711 0.0218415 0)
(0.994676 0.013703 0)
(0.993795 0.0114315 0)
(0.999464 0.0150693 0)
(1.00679 0.010241 0)
(1.01166 0.0168145 0)
(1.01564 0.00852696 0)
(1.01404 0.0120268 0)
(1.01365 0.0133942 0)
(1.00332 -0.0094239 0)
(0.983837 0.00694216 0)
(1.00253 0.00180928 0)
(1.01298 0.00110807 0)
(1.00697 0.0119436 0)
(0.996986 0.00750039 0)
(0.992387 -0.00780194 0)
(1.0027 -0.00293105 0)
(1.00569 -0.00925741 0)
(0.992766 0.00651222 0)
(0.992893 0.0135572 0)
(0.992139 0.0215427 0)
(0.996108 0.0137734 0)
(0.995443 0.0110708 0)
(1.00131 0.0146038 0)
(1.0083 0.00994781 0)
(1.01281 0.0160353 0)
(1.0157 0.00903863 0)
(1.01416 0.0116865 0)
(1.0131 0.0137879 0)
(1.00273 -0.00921479 0)
(0.985447 0.00682762 0)
(1.00083 0.00152164 0)
(1.00834 0.00105025 0)
(1.00749 0.0121956 0)
(0.999213 0.00747727 0)
(0.995686 -0.00751286 0)
(1.00306 -0.00347192 0)
(1.00377 -0.00890452 0)
(0.9927 0.00677839 0)
(0.994722 0.0136888 0)
(0.99459 0.0212264 0)
(0.998475 0.0138413 0)
(0.997417 0.0107353 0)
(1.00266 0.0141461 0)
(1.0088 0.00970406 0)
(1.01259 0.0153207 0)
(1.01458 0.00956962 0)
(1.01334 0.011445 0)
(1.01185 0.0140785 0)
(1.00191 -0.00900741 0)
(0.986901 0.00671338 0)
(1.00036 0.00132035 0)
(1.00407 0.000961363 0)
(1.00694 0.0123329 0)
(1.0016 0.00740112 0)
(0.998931 -0.00717572 0)
(1.00324 -0.00388386 0)
(1.0014 -0.0085387 0)
(0.99151 0.00696293 0)
(0.995919 0.0137301 0)
(0.996962 0.0208654 0)
(1.00077 0.013927 0)
(0.999097 0.0104662 0)
(1.00332 0.0137356 0)
(1.00841 0.00953624 0)
(1.01141 0.01467 0)
(1.01272 0.0100904 0)
(1.01202 0.0112798 0)
(1.01037 0.014247 0)
(1.00112 -0.00879739 0)
(0.988009 0.00658209 0)
(1.00077 0.00119914 0)
(1.0006 0.000873906 0)
(1.00569 0.0123549 0)
(1.00371 0.00725058 0)
(1.00168 -0.00679285 0)
(1.00331 -0.00415722 0)
(0.999195 -0.00813841 0)
(0.989679 0.00707589 0)
(0.996279 0.0136579 0)
(0.998633 0.0204502 0)
(1.00243 0.0140267 0)
(1.00023 0.0102722 0)
(1.00339 0.0133978 0)
(1.00744 0.00944647 0)
(1.00975 0.0140735 0)
(1.01056 0.0105668 0)
(1.01054 0.0111651 0)
(1.00896 0.0142767 0)
(1.00052 -0.00858133 0)
(0.988726 0.00642295 0)
(1.00159 0.00114451 0)
(0.998126 0.000810248 0)
(1.00412 0.0122741 0)
(1.00536 0.0070295 0)
(1.00364 -0.0063723 0)
(1.00325 -0.004305 0)
(0.997581 -0.00769762 0)
(0.987765 0.00714034 0)
(0.995914 0.0134806 0)
(0.999451 0.019974 0)
(1.00327 0.0141331 0)
(1.00082 0.0101464 0)
(1.00308 0.0131275 0)
(1.00625 0.00943104 0)
(1.00806 0.0135285 0)
(1.00847 0.0109797 0)
(1.00912 0.011077 0)
(1.00776 0.0141625 0)
(1.00014 -0.00835696 0)
(0.989119 0.00623388 0)
(1.00246 0.001137 0)
(0.996595 0.000780502 0)
(1.00259 0.0121126 0)
(1.00646 0.00674836 0)
(1.0048 -0.00592052 0)
(1.0031 -0.00434912 0)
(0.996686 -0.00722157 0)
(0.986222 0.00719293 0)
(0.995119 0.0132232 0)
(0.999569 0.0194338 0)
(1.00338 0.014239 0)
(1.00101 0.0100685 0)
(1.00262 0.0129046 0)
(1.00512 0.00948235 0)
(1.00662 0.0130184 0)
(1.0067 0.011336 0)
(1.0079 0.011019 0)
(1.00686 0.0139151 0)
(0.999945 -0.00812328 0)
(0.989308 0.00601834 0)
(1.00318 0.00115888 0)
(0.9958 0.000785688 0)
(1.00131 0.0118933 0)
(1.00708 0.00642477 0)
(1.0053 -0.00545036 0)
(1.00291 -0.00432254 0)
(0.996371 -0.00672319 0)
(0.98529 0.00726441 0)
(0.994236 0.0129209 0)
(0.999276 0.0188367 0)
(1.00299 0.0143329 0)
(1.00097 0.0100071 0)
(1.00217 0.0127221 0)
(1.00417 0.00958975 0)
(1.00558 0.0125185 0)
(1.00534 0.0116322 0)
(1.00697 0.0110006 0)
(1.00628 0.0135491 0)
(0.999878 -0.00788041 0)
(0.989408 0.00578166 0)
(1.00368 0.00119711 0)
(0.995508 0.000820835 0)
(1.00039 0.0116351 0)
(1.00732 0.00608088 0)
(1.00535 -0.0049784 0)
(1.00275 -0.00424503 0)
(0.996365 -0.0062198 0)
(0.984974 0.00737028 0)
(0.99353 0.01261 0)
(0.998858 0.0181951 0)
(1.00234 0.0144122 0)
(1.00086 0.00995148 0)
(1.00181 0.012553 0)
(1.00344 0.00974216 0)
(1.00491 0.0120316 0)
(1.00441 0.0118472 0)
(1.00629 0.0110278 0)
(1.006 0.0130933 0)
(0.999877 -0.00762895 0)
(0.989505 0.00552845 0)
(1.00398 0.00124375 0)
(0.995535 0.000879096 0)
(0.999772 0.0113501 0)
(1.00735 0.00573372 0)
(1.00515 -0.0045169 0)
(1.00266 -0.00412035 0)
(0.996421 -0.00573285 0)
(0.985123 0.00749866 0)
(0.993114 0.0123163 0)
(0.998515 0.0175253 0)
(1.00163 0.014474 0)
(1.00077 0.00989165 0)
(1.00158 0.0123771 0)
(1.00289 0.00993367 0)
(1.00451 0.0115603 0)
(1.00381 0.0119681 0)
(1.0058 0.0111132 0)
(1.00591 0.0125889 0)
(0.999905 -0.00737049 0)
(0.989649 0.00526376 0)
(1.00408 0.00129318 0)
(0.995765 0.000954024 0)
(0.999364 0.0110459 0)
(1.00731 0.00539709 0)
(1.00482 -0.00407388 0)
(1.00263 -0.00395398 0)
(0.996388 -0.00526818 0)
(0.98554 0.00763838 0)
(0.992976 0.0120506 0)
(0.998338 0.0168337 0)
(1.001 0.0145217 0)
(1.00074 0.00982659 0)
(1.00148 0.0121858 0)
(1.00249 0.0101501 0)
(1.00429 0.0111173 0)
(1.00347 0.0119831 0)
(1.00541 0.0112495 0)
(1.00594 0.0120902 0)
(0.999945 -0.00710623 0)
(0.989867 0.00499181 0)
(1.00401 0.00134185 0)
(0.996129 0.00103952 0)
(0.99909 0.0107251 0)
(1.00727 0.00508152 0)
(1.00447 -0.00365709 0)
(1.00263 -0.00374084 0)
(0.996228 -0.00481947 0)
(0.986061 0.00777412 0)
(0.99304 0.0118173 0)
(0.998336 0.0161285 0)
(1.00052 0.0145519 0)
(1.00077 0.00976936 0)
(1.00152 0.0119665 0)
(1.00223 0.0103847 0)
(1.00415 0.0107254 0)
(1.00331 0.0118757 0)
(1.00503 0.0114129 0)
(1.00598 0.0116675 0)
(0.999995 -0.00683822 0)
(0.990168 0.00471671 0)
(1.00378 0.00138779 0)
(0.996578 0.00113021 0)
(0.99892 0.0103876 0)
(1.00724 0.00478888 0)
(1.00416 -0.00326435 0)
(1.00261 -0.00348369 0)
(0.995973 -0.00438252 0)
(0.986586 0.00788296 0)
(0.993232 0.0116192 0)
(0.998475 0.0154146 0)
(1.0002 0.0145603 0)
(1.00086 0.00972915 0)
(1.00166 0.0117162 0)
(1.0021 0.0106336 0)
(1.00405 0.0104057 0)
(1.00328 0.0116473 0)
(1.00467 0.011567 0)
(1.00598 0.011369 0)
(1.00005 -0.00656942 0)
(0.990543 0.00444434 0)
(1.0034 0.00142945 0)
(0.997072 0.00121968 0)
(0.998854 0.0100389 0)
(1.00719 0.00451695 0)
(1.0039 -0.00289307 0)
(1.00255 -0.00317512 0)
(0.995698 -0.00396423 0)
(0.98707 0.0079555 0)
(0.993494 0.0114482 0)
(0.998717 0.0146916 0)
(1 0.014546 0)
(1.00098 0.00971706 0)
(1.00189 0.0114271 0)
(1.0021 0.0108786 0)
(1.00396 0.01018 0)
(1.00337 0.0113249 0)
(1.00433 0.0116645 0)
(1.00592 0.0112218 0)
(1.00013 -0.00630141 0)
(0.990972 0.00417955 0)
(1.00291 0.00146508 0)
(0.997575 0.00130436 0)
(0.998898 0.00967566 0)
(1.00707 0.00427273 0)
(1.00371 -0.00254462 0)
(1.00241 -0.00281824 0)
(0.995482 -0.00355566 0)
(0.987513 0.00798063 0)
(0.993787 0.0113025 0)
(0.999031 0.0139658 0)
(0.999905 0.0144881 0)
(1.00112 0.00975363 0)
(1.00216 0.0110937 0)
(1.00221 0.0111005 0)
(1.00388 0.0100585 0)
(1.00355 0.0109486 0)
(1.00406 0.0116719 0)
(1.00579 0.0112176 0)
(1.00021 -0.00603733 0)
(0.991427 0.00392749 0)
(1.00237 0.0014957 0)
(0.998058 0.00137657 0)
(0.999043 0.00930374 0)
(1.00687 0.00405238 0)
(1.00356 -0.00221333 0)
(1.0022 -0.002428 0)
(0.995384 -0.00314278 0)
(0.98794 0.0079576 0)
(0.994082 0.0111763 0)
(0.99939 0.013245 0)
(0.999859 0.0143793 0)
(1.00126 0.00984585 0)
(1.00246 0.0107265 0)
(1.00241 0.0112817 0)
(1.0038 0.0100517 0)
(1.00379 0.0105554 0)
(1.0039 0.0115637 0)
(1.00562 0.0112958 0)
(1.00029 -0.00577737 0)
(0.991881 0.00368931 0)
(1.00183 0.00152166 0)
(0.9985 0.0014292 0)
(0.999263 0.00893115 0)
(1.00658 0.0038565 0)
(1.00344 -0.00189434 0)
(1.00194 -0.00200857 0)
(0.995429 -0.0027258 0)
(0.988381 0.0078892 0)
(0.994361 0.011062 0)
(0.999772 0.0125363 0)
(0.999842 0.0142097 0)
(1.00137 0.00999565 0)
(1.00276 0.0103396 0)
(1.00268 0.0113938 0)
(1.00373 0.0101557 0)
(1.00407 0.010185 0)
(1.00388 0.0113256 0)
(1.00546 0.0113919 0)
(1.00038 -0.005523 0)
(0.992312 0.00346771 0)
(1.00135 0.00154133 0)
(0.998891 0.00146205 0)
(0.999514 0.00855896 0)
(1.00621 0.00368471 0)
(1.00332 -0.00158067 0)
(1.00166 -0.00157821 0)
(0.99561 -0.0023093 0)
(0.988862 0.0077832 0)
(0.994615 0.0109558 0)
(1.00015 0.0118553 0)
(0.99984 0.013968 0)
(1.00142 0.0101958 0)
(1.00303 0.00995955 0)
(1.00298 0.0114094 0)
(1.00366 0.0103419 0)
(1.00433 0.00989323 0)
(1.004 0.0109593 0)
(1.00534 0.0114356 0)
(1.00045 -0.00527494 0)
(0.99271 0.00326242 0)
(1.00095 0.00155676 0)
(0.999227 0.00147438 0)
(0.999753 0.00819253 0)
(1.00581 0.00353195 0)
(1.00319 -0.00126983 0)
(1.00138 -0.0011505 0)
(0.995901 -0.00189795 0)
(0.989395 0.00763899 0)
(0.994846 0.0108538 0)
(1.00051 0.0112088 0)
(0.999855 0.0136536 0)
(1.00139 0.0104337 0)
(1.00325 0.00961461 0)
(1.0033 0.0113146 0)
(1.00358 0.0105684 0)
(1.00453 0.00972175 0)
(1.00421 0.0105105 0)
(1.0053 0.0113656 0)
(1.00052 -0.00503135 0)
(0.993071 0.00307013 0)
(1.00066 0.0015683 0)
(0.999514 0.00146444 0)
(0.999948 0.00783586 0)
(1.0054 0.00340184 0)
(1.00304 -0.000957633 0)
(1.00114 -0.000728583 0)
(0.996268 -0.00148788 0)
(0.989981 0.00747464 0)
(0.995058 0.0107546 0)
(1.00083 0.0106058 0)
(0.999895 0.0132595 0)
(1.00129 0.0106891 0)
(1.00341 0.00933085 0)
(1.00362 0.0111002 0)
(1.0035 0.0107923 0)
(1.00463 0.00968191 0)
(1.00447 0.0100543 0)
(1.00536 0.0111473 0)
(1.00057 -0.00479285 0)
(0.993402 0.00288965 0)
(1.00046 0.00157739 0)
(0.999758 0.00143611 0)
(1.00008 0.00748849 0)
(1.00501 0.0032868 0)
(1.00288 -0.000645861 0)
(1.00093 -0.000310943 0)
(0.996685 -0.00109026 0)
(0.99061 0.0072968 0)
(0.99526 0.0106589 0)
(1.00111 0.0100676 0)
(0.999968 0.0127999 0)
(1.00112 0.0109334 0)
(1.0035 0.00913411 0)
(1.00394 0.0107781 0)
(1.00344 0.010972 0)
(1.00463 0.00976073 0)
(1.00471 0.00966823 0)
(1.00551 0.0107799 0)
(1.00061 -0.00455977 0)
(0.99371 0.00271893 0)
(1.00033 0.00158524 0)
(0.999967 0.00139335 0)
(1.00015 0.007153 0)
(1.00464 0.00318662 0)
(1.0027 -0.000346798 0)
(1.00077 9.26148e-05 0)
(0.997128 -0.000703638 0)
(0.991272 0.00709725 0)
(0.995456 0.0105543 0)
(1.00135 0.0096015 0)
(1.00008 0.0122861 0)
(1.00091 0.011146 0)
(1.0035 0.00902829 0)
(1.00424 0.0103755 0)
(1.0034 0.0110803 0)
(1.00454 0.00991436 0)
(1.00489 0.00939185 0)
(1.00571 0.0103409 0)
(1.00065 -0.00433018 0)
(0.994004 0.00255529 0)
(1.00024 0.00159154 0)
(1.00015 0.00133572 0)
(1.00018 0.00683771 0)
(1.00428 0.00308936 0)
(1.00253 -5.94509e-05 0)
(1.00064 0.000488145 0)
(0.997581 -0.000327636 0)
(0.991957 0.00689405 0)
(0.995651 0.0104506 0)
(1.00154 0.00920723 0)
(1.00024 0.0117235 0)
(1.00069 0.0113069 0)
(1.00341 0.00902577 0)
(1.00454 0.00992639 0)
(1.00341 0.0110907 0)
(1.00438 0.0101069 0)
(1.00498 0.00920835 0)
(1.00593 0.00991552 0)
(1.00069 -0.00410377 0)
(0.994288 0.00239355 0)
(1.00018 0.00160116 0)
(1.00032 0.00126766 0)
(1.00016 0.0065281 0)
(1.00393 0.00301061 0)
(1.00237 0.000207355 0)
(1.00054 0.000886962 0)
(0.998028 2.70852e-05 0)
(0.99266 0.00666845 0)
(0.995844 0.0103446 0)
(1.0017 0.0088842 0)
(1.00046 0.0111393 0)
(1.00049 0.0113888 0)
(1.00323 0.00911943 0)
(1.00482 0.00948017 0)
(1.00348 0.0109652 0)
(1.00418 0.0103384 0)
(1.00497 0.00911954 0)
(1.00613 0.00953368 0)
(1.00072 -0.00388511 0)
(0.994565 0.00224086 0)
(1.00013 0.00161215 0)
(1.00049 0.00119189 0)
(1.00013 0.00622973 0)
(1.00359 0.00294257 0)
(1.00222 0.000453484 0)
(1.00046 0.00128785 0)
(0.998452 0.000372416 0)
(0.993374 0.00642769 0)
(0.99604 0.0102203 0)
(1.00181 0.00864424 0)
(1.00072 0.0105429 0)
(1.00033 0.0113722 0)
(1.00299 0.00929249 0)
(1.00506 0.0091096 0)
(1.00363 0.0106681 0)
(1.00397 0.0105319 0)
(1.00486 0.0091289 0)
(1.00628 0.00918162 0)
(1.00075 -0.00366477 0)
(0.994836 0.00208299 0)
(1.00008 0.0016268 0)
(1.00065 0.00110119 0)
(1.00009 0.00595001 0)
(1.00324 0.00290507 0)
(1.0021 0.000662751 0)
(1.00039 0.0016855 0)
(0.998843 0.000714821 0)
(0.994096 0.00616921 0)
(0.996242 0.0100841 0)
(1.00188 0.00848489 0)
(1.00101 0.00995379 0)
(1.00026 0.0112501 0)
(1.00271 0.00949292 0)
(1.00523 0.00886609 0)
(1.00387 0.0102913 0)
(1.00381 0.0106433 0)
(1.00466 0.00924713 0)
(1.00636 0.00887261 0)
(1.00078 -0.00345598 0)
(0.995101 0.0019366 0)
(1.00001 0.00164857 0)
(1.0008 0.00100558 0)
(1.00006 0.0056678 0)
(1.00289 0.00289108 0)
(1.00199 0.000829901 0)
(1.00034 0.0020771 0)
(0.999186 0.00106178 0)
(0.99482 0.0058914 0)
(0.996461 0.00990911 0)
(1.00191 0.00837488 0)
(1.00133 0.00941 0)
(1.00027 0.0110344 0)
(1.00242 0.00968818 0)
(1.00534 0.00870048 0)
(1.00416 0.00988746 0)
(1.00372 0.0106766 0)
(1.00439 0.00945188 0)
(1.00633 0.00867357 0)
(1.00081 -0.00324336 0)
(0.995359 0.00177655 0)
(0.999941 0.00167747 0)
(1.00095 0.000901265 0)
(1.00004 0.00540025 0)
(1.00254 0.00291281 0)
(1.00189 0.000947006 0)
(1.0003 0.00242819 0)
(0.999478 0.00143304 0)
(0.995539 0.0056072 0)
(0.996699 0.00969524 0)
(1.0019 0.00833493 0)
(1.00166 0.00889326 0)
(1.00038 0.0107222 0)
(1.00215 0.00984775 0)
(1.00537 0.00864268 0)
(1.0045 0.00945143 0)
(1.00374 0.0105898 0)
(1.00409 0.00970616 0)
(1.00617 0.00865437 0)
(1.00083 -0.00303983 0)
(0.995612 0.00162694 0)
(0.999858 0.00170768 0)
(1.0011 0.000798296 0)
(1.00005 0.0051132 0)
(1.00218 0.00297787 0)
(1.00181 0.0010294 0)
(1.00028 0.00274953 0)
(0.999715 0.0018241 0)
(0.996238 0.00532456 0)
(0.996974 0.00941676 0)
(1.00186 0.00833246 0)
(1.00196 0.00848373 0)
(1.00058 0.0102967 0)
(1.00194 0.00989821 0)
(1.00533 0.00863412 0)
(1.00485 0.00896925 0)
(1.0039 0.0102523 0)
(1.00382 0.0097557 0)
(1.00587 0.00877081 0)
(1.00084 -0.00283434 0)
(0.99586 0.00146329 0)
(0.999765 0.001749 0)
(1.00123 0.000692439 0)
(1.00006 0.00483186 0)
(1.00183 0.00307436 0)
(1.00173 0.00109699 0)
(1.00029 0.0029989 0)
(0.9999 0.0022471 0)
(0.996909 0.00508773 0)
(0.997284 0.00907314 0)
(1.00181 0.00833754 0)
(1.00223 0.00812965 0)
(1.00084 0.00985459 0)
(1.00178 0.00987011 0)
(1.00522 0.00857579 0)
(1.00515 0.00847243 0)
(1.00413 0.00968318 0)
(1.00366 0.00950049 0)
(1.00558 0.00886078 0)
(1.00086 -0.00263318 0)
(0.996104 0.00130092 0)
(0.999666 0.00179545 0)
(1.00135 0.000590234 0)
(1.0001 0.00452355 0)
(1.00148 0.00321592 0)
(1.00165 0.00116388 0)
(1.00033 0.00318365 0)
(1.00005 0.00267227 0)
(0.997531 0.00488721 0)
(0.997633 0.00867479 0)
(1.00174 0.008338 0)
(1.00246 0.007854 0)
(1.00116 0.00936819 0)
(1.00167 0.00971975 0)
(1.00504 0.0085647 0)
(1.00537 0.0080691 0)
(1.00441 0.0091346 0)
(1.00365 0.00923445 0)
(1.00534 0.00891088 0)
(1.00086 -0.00243452 0)
(0.996346 0.00113979 0)
(0.999559 0.00183997 0)
(1.00145 0.000501797 0)
(1.00016 0.00420568 0)
(1.00114 0.00336881 0)
(1.00157 0.0012559 0)
(1.0004 0.00327716 0)
(1.00016 0.0030852 0)
(0.998099 0.00474096 0)
(0.998017 0.00824671 0)
(1.0017 0.00826777 0)
(1.00262 0.00766073 0)
(1.00148 0.00892466 0)
(1.00166 0.00947485 0)
(1.00483 0.00854081 0)
(1.00552 0.00785402 0)
(1.00472 0.00877823 0)
(1.00373 0.00911848 0)
(1.00517 0.00906448 0)
(1.00086 -0.00223351 0)
(0.996586 0.000967071 0)
(0.999449 0.00188743 0)
(1.00152 0.00043142 0)
(1.00024 0.00386028 0)
(1.00081 0.00353696 0)
(1.00146 0.0013896 0)
(1.0005 0.00328127 0)
(1.00026 0.00346349 0)
(0.998599 0.00468046 0)
(0.998412 0.0077802 0)
(1.00167 0.00815807 0)
(1.00276 0.00750987 0)
(1.00181 0.00849835 0)
(1.00167 0.00918244 0)
(1.00464 0.00855723 0)
(1.00564 0.00768239 0)
(1.00507 0.00844453 0)
(1.00394 0.00891463 0)
(1.00504 0.0089885 0)
(1.00085 -0.00204135 0)
(0.996827 0.000808785 0)
(0.999336 0.00192669 0)
(1.00156 0.000382781 0)
(1.00034 0.00349059 0)
(1.00051 0.00369956 0)
(1.00134 0.0015641 0)
(1.00062 0.00324214 0)
(1.00036 0.00376156 0)
(0.999024 0.00469873 0)
(0.998817 0.00733502 0)
(1.00169 0.00797054 0)
(1.00284 0.00738436 0)
(1.00211 0.00812991 0)
(1.00179 0.00888139 0)
(1.00444 0.00856637 0)
(1.00566 0.00753095 0)
(1.00541 0.00805471 0)
(1.00415 0.00858971 0)
(1.005 0.00876237 0)
(1.00084 -0.00183951 0)
(0.997065 0.000632146 0)
(0.999225 0.00195799 0)
(1.00158 0.00036158 0)
(1.00046 0.00312252 0)
(1.00024 0.00382284 0)
(1.00118 0.00180716 0)
(1.00075 0.00315787 0)
(1.00047 0.00397937 0)
(0.99939 0.00477439 0)
(0.999196 0.00695025 0)
(1.00173 0.0077017 0)
(1.00292 0.00723987 0)
(1.00241 0.00786979 0)
(1.00193 0.00859625 0)
(1.00426 0.00848403 0)
(1.00561 0.00756386 0)
(1.0057 0.00781096 0)
(1.00444 0.0083395 0)
(1.00502 0.00874018 0)
(1.00082 -0.00164931 0)
(0.997304 0.000469091 0)
(0.999118 0.00198325 0)
(1.00156 0.000376939 0)
(1.00058 0.00271783 0)
(1.00002 0.00390624 0)
(1.00099 0.00210042 0)
(1.00088 0.00309544 0)
(1.00059 0.00410521 0)
(0.999694 0.0048712 0)
(0.999542 0.00662332 0)
(1.0018 0.00744331 0)
(1.00298 0.0070876 0)
(1.00267 0.00760552 0)
(1.00212 0.00833559 0)
(1.00414 0.00840848 0)
(1.00553 0.00759465 0)
(1.00592 0.00762941 0)
(1.00478 0.00802907 0)
(1.00507 0.0085719 0)
(1.00079 -0.00145205 0)
(0.99754 0.000297845 0)
(0.999022 0.00198915 0)
(1.00151 0.000425394 0)
(1.00073 0.00233986 0)
(0.999838 0.00392315 0)
(1.00078 0.00241594 0)
(1.00099 0.00306361 0)
(1.00074 0.00414218 0)
(0.999965 0.00497348 0)
(0.999855 0.0063856 0)
(1.00187 0.00716939 0)
(1.00304 0.00691123 0)
(1.00294 0.00740181 0)
(1.00233 0.00808973 0)
(1.00405 0.00826989 0)
(1.0054 0.0075442 0)
(1.00605 0.00748279 0)
(1.00509 0.00769578 0)
(1.00519 0.00824753 0)
(1.00076 -0.0012623 0)
(0.997776 0.000136022 0)
(0.998941 0.00198107 0)
(1.00142 0.000510613 0)
(1.00088 0.00196478 0)
(0.999725 0.0038634 0)
(1.00056 0.00275336 0)
(1.00107 0.00308523 0)
(1.0009 0.00411547 0)
(1.00021 0.0050547 0)
(1.00012 0.00619909 0)
(1.00196 0.00693199 0)
(1.00311 0.00676277 0)
(1.00317 0.00718757 0)
(1.00254 0.00780274 0)
(1.00399 0.00808823 0)
(1.00528 0.00748315 0)
(1.00612 0.00736277 0)
(1.00534 0.00741035 0)
(1.00537 0.00787003 0)
(1.00072 -0.00107427 0)
(0.998009 -1.42424e-05 0)
(0.998881 0.00194782 0)
(1.0013 0.000623206 0)
(1.00102 0.00163227 0)
(0.999675 0.00374482 0)
(1.00034 0.00306845 0)
(1.0011 0.00316156 0)
(1.00107 0.00406403 0)
(1.00045 0.00508569 0)
(1.00036 0.00606639 0)
(1.00205 0.00673513 0)
(1.00316 0.00657962 0)
(1.00339 0.00696016 0)
(1.00278 0.00753626 0)
(1.00397 0.00790097 0)
(1.00515 0.00736126 0)
(1.0061 0.00718342 0)
(1.0055 0.00716512 0)
(1.00556 0.00751834 0)
(1.00068 -0.000896086 0)
(0.998238 -0.000139408 0)
(0.998846 0.00188313 0)
(1.00115 0.000767258 0)
(1.00115 0.00134055 0)
(0.999693 0.0035372 0)
(1.00015 0.00334016 0)
(1.0011 0.00330705 0)
(1.00124 0.00400616 0)
(1.00069 0.00507457 0)
(1.00057 0.00595062 0)
(1.00212 0.00654576 0)
(1.00321 0.0064118 0)
(1.0036 0.00673932 0)
(1.00301 0.00723628 0)
(1.00395 0.00765378 0)
(1.005 0.00721116 0)
(1.00609 0.00702837 0)
(1.00564 0.00697654 0)
(1.00573 0.0072569 0)
(1.00064 -0.0007277 0)
(0.998459 -0.000244375 0)
(0.99884 0.00178555 0)
(1.00098 0.000923876 0)
(1.00126 0.00111398 0)
(0.999773 0.00328964 0)
(0.999993 0.00354344 0)
(1.00105 0.00346809 0)
(1.00139 0.00395636 0)
(1.00093 0.00502667 0)
(1.00077 0.00583425 0)
(1.00218 0.00638586 0)
(1.00325 0.00625398 0)
(1.00377 0.00651394 0)
(1.00324 0.00691271 0)
(1.00399 0.00740081 0)
(1.00488 0.00709372 0)
(1.00603 0.00688372 0)
(1.00573 0.00674505 0)
(1.00583 0.00700912 0)
(1.0006 -0.00057425 0)
(0.99867 -0.000316394 0)
(0.998865 0.00165434 0)
(1.0008 0.0010851 0)
(1.00133 0.000960503 0)
(0.999905 0.00300403 0)
(0.999889 0.0036592 0)
(1.00098 0.00365192 0)
(1.00151 0.00393633 0)
(1.00117 0.00494659 0)
(1.00096 0.00571433 0)
(1.00223 0.00623559 0)
(1.00327 0.00608778 0)
(1.00391 0.00630259 0)
(1.00347 0.00661782 0)
(1.00407 0.00712169 0)
(1.00476 0.00691849 0)
(1.00591 0.00674253 0)
(1.0058 0.00651554 0)
(1.0059 0.00680166 0)
(1.00055 -0.000435202 0)
(0.998867 -0.000358732 0)
(0.99892 0.00149734 0)
(1.00062 0.00123227 0)
(1.00137 0.000894452 0)
(1.00008 0.00271064 0)
(0.999848 0.00367765 0)
(1.0009 0.00382353 0)
(1.00159 0.00393047 0)
(1.0014 0.00484015 0)
(1.00114 0.00557752 0)
(1.00228 0.00609315 0)
(1.00327 0.00593512 0)
(1.00402 0.00611032 0)
(1.00367 0.00633655 0)
(1.00416 0.00682235 0)
(1.00469 0.00670463 0)
(1.00579 0.00662941 0)
(1.00583 0.00633192 0)
(1.00596 0.0065826 0)
(1.00051 -0.00031481 0)
(0.999046 -0.000368093 0)
(0.999003 0.00133062 0)
(1.00045 0.00135312 0)
(1.00137 0.000908519 0)
(1.00026 0.00242976 0)
(0.999871 0.00361363 0)
(1.00082 0.00395194 0)
(1.00165 0.00394246 0)
(1.00161 0.00472766 0)
(1.00133 0.00542245 0)
(1.00232 0.00595136 0)
(1.00325 0.00578738 0)
(1.00409 0.0059163 0)
(1.00385 0.00605493 0)
(1.00427 0.00654193 0)
(1.00466 0.00646947 0)
(1.00567 0.00647455 0)
(1.00581 0.00616199 0)
(1.00598 0.00634231 0)
(1.00047 -0.000211185 0)
(0.999206 -0.000349383 0)
(0.999109 0.00116453 0)
(1.0003 0.00143765 0)
(1.00133 0.000982703 0)
(1.00045 0.00219404 0)
(0.999957 0.00349021 0)
(1.00076 0.00403289 0)
(1.00166 0.00395988 0)
(1.0018 0.00460041 0)
(1.00152 0.00523996 0)
(1.00237 0.00579691 0)
(1.00322 0.00563898 0)
(1.00413 0.00574142 0)
(1.00402 0.00578683 0)
(1.00439 0.00626219 0)
(1.00465 0.00623479 0)
(1.00557 0.00628168 0)
(1.00576 0.00600803 0)
(1.00599 0.00613045 0)
(1.00044 -0.000125468 0)
(0.999346 -0.000305083 0)
(0.999232 0.00100799 0)
(1.00018 0.00148559 0)
(1.00126 0.00108723 0)
(1.00062 0.00203119 0)
(1.00009 0.00331968 0)
(1.00073 0.00405071 0)
(1.00165 0.00397381 0)
(1.00197 0.00447354 0)
(1.00172 0.00503183 0)
(1.00243 0.00562628 0)
(1.00318 0.00549501 0)
(1.00414 0.00558477 0)
(1.00414 0.00554526 0)
(1.00452 0.00595605 0)
(1.00467 0.00599025 0)
(1.00548 0.00607691 0)
(1.0057 0.00582367 0)
(1.00596 0.00593622 0)
(1.0004 -5.57774e-05 0)
(0.999465 -0.000241549 0)
(0.999366 0.000867236 0)
(1.00009 0.00150019 0)
(1.00118 0.00119657 0)
(1.00077 0.00193967 0)
(1.00026 0.00313244 0)
(1.00073 0.00400145 0)
(1.00163 0.00397705 0)
(1.00209 0.00435917 0)
(1.00191 0.00480618 0)
(1.0025 0.00543062 0)
(1.00315 0.00533899 0)
(1.00412 0.00542283 0)
(1.00422 0.00533362 0)
(1.00464 0.00565864 0)
(1.00472 0.00570951 0)
(1.0054 0.00587895 0)
(1.00564 0.00562055 0)
(1.00593 0.00574274 0)
(1.00038 -8.24632e-07 0)
(0.999564 -0.000163045 0)
(0.999503 0.000747368 0)
(1.00004 0.00148477 0)
(1.00109 0.00129737 0)
(1.00088 0.00189851 0)
(1.00044 0.00295184 0)
(1.00078 0.00389629 0)
(1.00159 0.00395358 0)
(1.00218 0.0042539 0)
(1.0021 0.00458159 0)
(1.0026 0.0052079 0)
(1.00312 0.0051677 0)
(1.00408 0.00525859 0)
(1.00426 0.00513331 0)
(1.00472 0.00540852 0)
(1.0048 0.00540444 0)
(1.00535 0.0056596 0)
(1.00556 0.00542929 0)
(1.0059 0.00551954 0)
(1.00035 4.11228e-05 0)
(0.999645 -7.77212e-05 0)
(0.999638 0.00065172 0)
(1.00001 0.00144281 0)
(1.001 0.00138176 0)
(1.00097 0.00188717 0)
(1.00062 0.00279006 0)
(1.00085 0.00375282 0)
(1.00157 0.00389728 0)
(1.00223 0.00415986 0)
(1.00225 0.00436655 0)
(1.00271 0.00496496 0)
(1.00311 0.00497844 0)
(1.00403 0.00509775 0)
(1.00427 0.00492564 0)
(1.00477 0.00518365 0)
(1.00488 0.00511689 0)
(1.00534 0.00538558 0)
(1.00547 0.00524937 0)
(1.00587 0.00527828 0)
(1.00033 7.28036e-05 0)
(0.999709 8.6657e-06 0)
(0.999765 0.000580074 0)
(1.00001 0.00138554 0)
(1.00093 0.00144077 0)
(1.00103 0.00189256 0)