/*--------------------------------*- C++ -*----------------------------------*\
| =========                 |                                                 |
| \\      /  F ield         | OpenFOAM: The Open Source CFD Toolbox           |
|  \\    /   O peration     | Version:  v1912                                 |
|   \\  /    A nd           | Website:  www.openfoam.com                      |
|    \\/     M anipulation  |                                                 |
\*---------------------------------------------------------------------------*/
FoamFile
{
    version     2.0;
    format      ascii;
    class       volVectorField;
    location    "7.9";
    object      U;
}
// * * * * * * * * * * * * * * * * * * * * * * * * * * * * * * * * * * * * * //

dimensions      [0 1 -1 0 0 0 0];


internalField   nonuniform List<vector> 
9600
(
(0.863211 0.00227023 0)
(1.16541 0.0104492 0)
(0.944078 -0.00390386 0)
(1.03664 -0.00964752 0)
(0.882477 0.0263156 0)
(1.2528 -0.0053245 0)
(0.591646 -0.00951113 0)
(1.28492 0.0197057 0)
(0.690779 -0.00775828 0)
(1.18625 0.0120594 0)
(0.891146 -0.00111063 0)
(1.09473 0.0196823 0)
(0.922985 0.0171642 0)
(1.07182 0.0027192 0)
(0.901974 0.0257519 0)
(1.103 0.00157985 0)
(0.851997 0.024601 0)
(1.12266 0.0112819 0)
(0.809919 0.0148599 0)
(1.11576 0.0141942 0)
(0.868716 0.00200347 0)
(1.15731 0.0100183 0)
(0.953474 -0.00290656 0)
(1.03522 -0.00896758 0)
(0.885806 0.0242932 0)
(1.24128 -0.00143154 0)
(0.608233 -0.0104438 0)
(1.27339 0.0189317 0)
(0.730127 -0.00684637 0)
(1.17614 0.00959589 0)
(0.917434 0.000398269 0)
(1.08786 0.0198968 0)
(0.949206 0.0174229 0)
(1.05413 0.00354479 0)
(0.93416 0.0246883 0)
(1.06571 0.00380234 0)
(0.90502 0.0238496 0)
(1.05251 0.0125491 0)
(0.912121 0.0163673 0)
(0.994039 0.0117213 0)
(0.880791 0.00173088 0)
(1.13936 0.00956536 0)
(0.968024 -0.00209016 0)
(1.03033 -0.00834503 0)
(0.894456 0.0221533 0)
(1.21988 0.00119005 0)
(0.649621 -0.0112876 0)
(1.24307 0.0179578 0)
(0.797977 -0.00602016 0)
(1.14704 0.00731128 0)
(0.958911 0.00114197 0)
(1.07213 0.0194317 0)
(0.989191 0.0179678 0)
(1.02981 0.00387253 0)
(0.97712 0.0241649 0)
(1.03444 0.00448706 0)
(0.960367 0.0235815 0)
(1.01359 0.0127147 0)
(0.972367 0.016955 0)
(0.97635 0.0113225 0)
(0.898517 0.00154131 0)
(1.11337 0.00908315 0)
(0.985159 -0.00138866 0)
(1.02198 -0.00767198 0)
(0.908605 0.0203677 0)
(1.18739 0.00361884 0)
(0.715836 -0.0117487 0)
(1.19125 0.0165509 0)
(0.875778 -0.00508624 0)
(1.10314 0.00548998 0)
(0.993076 0.0019911 0)
(1.05488 0.0189147 0)
(1.0179 0.0186649 0)
(1.01248 0.00406001 0)
(1.00354 0.0240025 0)
(1.01838 0.00485824 0)
(0.991209 0.0240459 0)
(1.00489 0.0124658 0)
(0.993687 0.0176443 0)
(0.986327 0.0120335 0)
(0.919459 0.00143085 0)
(1.08347 0.00855914 0)
(1.0016 -0.000777254 0)
(1.01219 -0.00696106 0)
(0.926311 0.0188615 0)
(1.14599 0.0054729 0)
(0.794435 -0.0118447 0)
(1.12732 0.0148268 0)
(0.940677 -0.0041419 0)
(1.05828 0.0041977 0)
(1.00823 0.00238687 0)
(1.04012 0.0185472 0)
(1.02874 0.0193772 0)
(1.00477 0.00447487 0)
(1.00995 0.02373 0)
(1.00962 0.00543937 0)
(0.999809 0.0240789 0)
(1.00245 0.0127428 0)
(0.997033 0.0181494 0)
(0.989424 0.0128082 0)
(0.940603 0.00139093 0)
(1.0547 0.00802602 0)
(1.01416 -0.000283727 0)
(1.00368 -0.00626974 0)
(0.944073 0.017661 0)
(1.10226 0.00665003 0)
(0.867302 -0.011588 0)
(1.06804 0.0131581 0)
(0.98124 -0.00340218 0)
(1.02389 0.00348845 0)
(1.00816 0.00241555 0)
(1.02684 0.0182647 0)
(1.02806 0.0200116 0)
(1.00373 0.00499403 0)
(1.0057 0.0235373 0)
(1.00414 0.00597387 0)
(0.99685 0.0238523 0)
(0.998753 0.013209 0)
(0.994057 0.018208 0)
(0.987516 0.0136096 0)
(0.959333 0.00140941 0)
(1.03137 0.00752299 0)
(1.02109 7.62512e-05 0)
(0.998462 -0.0056281 0)
(0.958512 0.0168251 0)
(1.06429 0.00722257 0)
(0.922233 -0.0111057 0)
(1.02541 0.0118015 0)
(0.999749 -0.00291537 0)
(1.00334 0.00326339 0)
(1.0023 0.00225992 0)
(1.01471 0.0179446 0)
(1.02298 0.0204057 0)
(1.00584 0.00556165 0)
(0.999987 0.0234767 0)
(1.00158 0.00646635 0)
(0.991748 0.0236439 0)
(0.995154 0.0136318 0)
(0.991182 0.0181319 0)
(0.986151 0.0145726 0)
(0.974163 0.00146141 0)
(1.01555 0.00708727 0)
(1.02258 0.000312558 0)
(0.996822 -0.00504977 0)
(0.968195 0.0163191 0)
(1.03732 0.00736233 0)
(0.956913 -0.0105211 0)
(1.00093 0.0108395 0)
(1.00475 -0.00262367 0)
(0.993978 0.00327768 0)
(0.997064 0.0020592 0)
(1.00504 0.0175462 0)
(1.01738 0.020508 0)
(1.00807 0.00610876 0)
(0.996758 0.0234718 0)
(1.00163 0.00700313 0)
(0.989367 0.0234553 0)
(0.993714 0.0140537 0)
(0.990949 0.0179905 0)
(0.987478 0.0154953 0)
(0.984889 0.00151724 0)
(1.00679 0.00674328 0)
(1.02022 0.000447964 0)
(0.997528 -0.00453731 0)
(0.97406 0.0160496 0)
(1.02173 0.00723833 0)
(0.975437 -0.00991481 0)
(0.989432 0.0101965 0)
(1.00444 -0.0024666 0)
(0.991373 0.00335657 0)
(0.994131 0.00191344 0)
(0.998415 0.0171102 0)
(1.01232 0.0203841 0)
(1.00841 0.00658333 0)
(0.995684 0.0234676 0)
(1.00295 0.00757434 0)
(0.990348 0.0232439 0)
(0.99484 0.0145074 0)
(0.993339 0.0176984 0)
(0.991136 0.0162724 0)
(0.992173 0.00155301 0)
(1.00311 0.0064984 0)
(1.01602 0.000513748 0)
(0.998888 -0.00409198 0)
(0.97824 0.0159203 0)
(1.01447 0.00698116 0)
(0.983709 -0.00930725 0)
(0.985135 0.00973057 0)
(1.0037 -0.00240164 0)
(0.991993 0.00344049 0)
(0.992853 0.00187423 0)
(0.994008 0.0166909 0)
(1.00751 0.0201465 0)
(1.00634 0.00697243 0)
(0.995123 0.0233973 0)
(1.00396 0.00811698 0)
(0.993183 0.0229527 0)
(0.997601 0.0149806 0)
(0.997307 0.0172741 0)
(0.995954 0.0169251 0)
(0.99693 0.00155536 0)
(1.00229 0.00634704 0)
(1.01163 0.000545365 0)
(0.999667 -0.00372618 0)
(0.982577 0.0158543 0)
(1.01177 0.0066974 0)
(0.986773 -0.00869165 0)
(0.984415 0.00931837 0)
(1.00417 -0.0023943 0)
(0.993754 0.00353204 0)
(0.992478 0.00195874 0)
(0.990797 0.0163307 0)
(1.00271 0.0198925 0)
(1.00257 0.00727123 0)
(0.994151 0.0232043 0)
(1.0039 0.00857859 0)
(0.996243 0.0225256 0)
(1.00077 0.0154482 0)
(1.00168 0.0167621 0)
(1.00086 0.0174553 0)
(0.999894 0.00152189 0)
(1.00264 0.00627385 0)
(1.00807 0.000570975 0)
(0.999394 -0.00345458 0)
(0.9878 0.0158066 0)
(1.01096 0.00645126 0)
(0.987949 -0.00807694 0)
(0.98557 0.00889227 0)
(1.00558 -0.00242371 0)
(0.995675 0.00364247 0)
(0.992765 0.00216579 0)
(0.988477 0.016054 0)
(0.998396 0.0196764 0)
(0.998536 0.00748197 0)
(0.992945 0.0228728 0)
(1.0031 0.00894347 0)
(0.998757 0.0219215 0)
(1.00362 0.0158865 0)
(1.0056 0.0161855 0)
(1.0051 0.0178478 0)
(1.00152 0.00145808 0)
(1.00322 0.00625744 0)
(1.00577 0.000610345 0)
(0.998226 -0.00328402 0)
(0.993517 0.0157538 0)
(1.01083 0.0062682 0)
(0.988928 -0.00747731 0)
(0.987798 0.00843509 0)
(1.00713 -0.00246733 0)
(0.997371 0.00377747 0)
(0.993665 0.00248153 0)
(0.987305 0.0158593 0)
(0.995454 0.0195149 0)
(0.995633 0.0076214 0)
(0.99223 0.0224104 0)
(1.00242 0.00923216 0)
(1.00077 0.0211275 0)
(1.00595 0.0162812 0)
(1.00875 0.0155822 0)
(1.00829 0.0180977 0)
(1.00209 0.00137384 0)
(1.00361 0.00627461 0)
(1.00472 0.000674386 0)
(0.996644 -0.00320879 0)
(0.998729 0.0156803 0)
(1.0111 0.00615338 0)
(0.990252 -0.00690099 0)
(0.990517 0.00795724 0)
(1.00822 -0.00250289 0)
(0.998648 0.00392859 0)
(0.994981 0.00287303 0)
(0.987466 0.0157266 0)
(0.994407 0.0193996 0)
(0.994579 0.00771234 0)
(0.992548 0.0218421 0)
(1.00249 0.0094792 0)
(1.00259 0.0201892 0)
(1.00785 0.0166142 0)
(1.01116 0.0150163 0)
(1.01037 0.0182167 0)
(1.00184 0.00128022 0)
(1.00369 0.00630394 0)
(1.0047 0.000763622 0)
(0.995132 -0.00320531 0)
(1.00254 0.0155741 0)
(1.01173 0.00609419 0)
(0.991875 -0.00635393 0)
(0.993194 0.00748808 0)
(1.00867 -0.00251594 0)
(0.999325 0.00407231 0)
(0.996318 0.0032979 0)
(0.988717 0.0156189 0)
(0.995036 0.0193049 0)
(0.995193 0.00778294 0)
(0.993853 0.0212055 0)
(1.00331 0.00971938 0)
(1.00434 0.0191705 0)
(1.00924 0.016893 0)
(1.0129 0.0145447 0)
(1.01151 0.0182177 0)
(1.00104 0.00118843 0)
(1.00344 0.00632543 0)
(1.00542 0.000872571 0)
(0.993957 -0.0032394 0)
(1.00463 0.0154281 0)
(1.01249 0.00606538 0)
(0.993607 -0.00583271 0)
(0.995487 0.0070482 0)
(1.00861 -0.00249293 0)
(0.99927 0.00419652 0)
(0.997268 0.00371927 0)
(0.990477 0.0154993 0)
(0.996594 0.0192083 0)
(0.996725 0.00785827 0)
(0.995614 0.0205373 0)
(1.00439 0.00997282 0)
(1.00581 0.0181365 0)
(1.00995 0.0171315 0)
(1.01396 0.014201 0)
(1.01193 0.0181244 0)
(0.999965 0.00110764 0)
(1.0029 0.00632415 0)
(1.00663 0.000993545 0)
(0.993178 -0.00327733 0)
(1.00521 0.0152411 0)
(1.01306 0.00603881 0)
(0.995298 -0.00533456 0)
(0.997325 0.00665504 0)
(1.00826 -0.00242424 0)
(0.998513 0.00430208 0)
(0.99763 0.00410567 0)
(0.99216 0.0153376 0)
(0.998284 0.0190971 0)
(0.998409 0.00796119 0)
(0.997231 0.0198533 0)
(1.0052 0.0102599 0)
(1.00675 0.0171382 0)
(1.00985 0.0173246 0)
(1.01426 0.013991 0)
(1.01184 0.0179397 0)
(0.998884 0.00104384 0)
(1.00212 0.00629185 0)
(1.00808 0.00111752 0)
(0.99278 -0.00328963 0)
(1.00467 0.0150175 0)
(1.01327 0.00599156 0)
(0.996842 -0.00486294 0)
(0.998766 0.00631763 0)
(1.0078 -0.00230077 0)
(0.997271 0.00440046 0)
(0.997465 0.00444367 0)
(0.993399 0.0151183 0)
(0.999567 0.0189674 0)
(0.999762 0.00809732 0)
(0.998353 0.0191714 0)
(1.00547 0.0105819 0)
(1.00708 0.0162126 0)
(1.00904 0.0174572 0)
(1.01387 0.0139034 0)
(1.01137 0.0176483 0)
(0.997982 0.0010007 0)
(1.0012 0.00622426 0)
(1.0095 0.00123461 0)
(0.99276 -0.00325611 0)
(1.00341 0.0147652 0)
(1.01317 0.00591345 0)
(0.998133 -0.00442318 0)
(0.999814 0.00604131 0)
(1.00738 -0.00212151 0)
(0.995881 0.00450251 0)
(0.996991 0.00473056 0)
(0.994086 0.0148447 0)
(1.00021 0.0188147 0)
(1.00058 0.00826159 0)
(0.998915 0.0185099 0)
(1.00523 0.0109248 0)
(1.00692 0.0153753 0)
(1.00778 0.0175187 0)
(1.01299 0.013915 0)
(1.01069 0.0172546 0)
(0.997352 0.000977853 0)
(1.00028 0.00612385 0)
(1.01069 0.00133684 0)
(0.993077 -0.00316396 0)
(1.00175 0.0144932 0)
(1.01295 0.00579654 0)
(0.999096 -0.0040155 0)
(1.00042 0.00582349 0)
(1.00707 -0.00189132 0)
(0.994668 0.00461208 0)
(0.996438 0.00498137 0)
(0.994288 0.014528 0)
(1.0002 0.0186388 0)
(1.00084 0.00844782 0)
(0.999012 0.0178658 0)
(1.00465 0.0112811 0)
(1.00651 0.0146252 0)
(1.0064 0.0175013 0)
(1.01188 0.0139923 0)
(1.00997 0.0167727 0)
(0.996992 0.000972372 0)
(0.99947 0.00599719 0)
(1.01155 0.00141803 0)
(0.993618 -0.00300841 0)
(1.00003 0.0142055 0)
(1.01273 0.00564274 0)
(0.999708 -0.00363501 0)
(1.00063 0.00565133 0)
(1.00691 -0.00162193 0)
(0.99383 0.00472643 0)
(0.995965 0.0052219 0)
(0.994178 0.0141875 0)
(0.999752 0.018443 0)
(1.00066 0.00863952 0)
(0.99881 0.0172398 0)
(1.00389 0.0116323 0)
(1.00602 0.013966 0)
(1.00515 0.0173964 0)
(1.01074 0.0141162 0)
(1.00936 0.0162259 0)
(0.996847 0.000979983 0)
(0.998818 0.00585226 0)
(1.0121 0.00147398 0)
(0.994243 -0.00279135 0)
(0.998535 0.013903 0)
(1.01256 0.00546226 0)
(1 -0.00327539 0)
(1.00058 0.00551501 0)
(1.00688 -0.001337 0)
(0.993392 0.00485183 0)
(0.995641 0.0054675 0)
(0.993974 0.0138406 0)
(0.999125 0.0182258 0)
(1.00024 0.00884014 0)
(0.998495 0.016616 0)
(1.00306 0.0119701 0)
(1.00552 0.0133786 0)
(1.00414 0.0172009 0)
(1.00964 0.0142927 0)
(1.00893 0.0156467 0)
(0.99685 0.000996707 0)
(0.998323 0.00569559 0)
(1.0124 0.00150594 0)
(0.994859 -0.00252112 0)
(0.997381 0.0135863 0)
(1.01244 0.00526579 0)
(1.00006 -0.00293329 0)
(1.00043 0.00539954 0)
(1.00695 -0.00104285 0)
(0.993258 0.00498817 0)
(0.995448 0.00573648 0)
(0.993864 0.0134928 0)
(0.998572 0.0179963 0)
(0.999789 0.00904649 0)
(0.99823 0.0159948 0)
(1.00226 0.0122936 0)
(1.00504 0.0128514 0)
(1.0034 0.0169115 0)
(1.00859 0.0145122 0)
(1.00864 0.0150639 0)
(0.996944 0.0010187 0)
(0.997963 0.005533 0)
(1.01249 0.00151525 0)
(0.995443 -0.00220577 0)
(0.996547 0.0132516 0)
(1.01235 0.00506898 0)
(0.99998 -0.00260692 0)
(1.00025 0.00529667 0)
(1.00705 -0.000744514 0)
(0.993305 0.00512992 0)
(0.995322 0.0060355 0)
(0.993947 0.0131422 0)
(0.998237 0.0177614 0)
(0.999433 0.00925852 0)
(0.998113 0.015385 0)
(1.00156 0.0125929 0)
(1.00455 0.0124063 0)
(1.00287 0.0165086 0)
(1.00755 0.0147403 0)
(1.0084 0.0145211 0)
(0.997095 0.00104347 0)
(0.997729 0.00536868 0)
(1.01239 0.00150225 0)
(0.99601 -0.00185095 0)
(0.995957 0.0128971 0)
(1.01227 0.00488212 0)
(0.999862 -0.00229623 0)
(1.00003 0.00520257 0)
(1.0071 -0.000446377 0)
(0.993458 0.00527403 0)
(0.995198 0.00635576 0)
(0.994233 0.0127886 0)
(0.998148 0.0175187 0)
(0.999234 0.00949084 0)
(0.998173 0.0147706 0)
(1.00102 0.0128753 0)
(1.00408 0.0120512 0)
(1.00253 0.0159949 0)
(1.00649 0.0149567 0)
(1.00814 0.0140715 0)
(0.997278 0.00106831 0)
(0.997623 0.00520734 0)
(1.0121 0.00146819 0)
(0.996568 -0.00146562 0)
(0.995571 0.0125256 0)
(1.01215 0.00470859 0)
(0.9998 -0.0019969 0)
(0.999729 0.0051156 0)
(1.00701 -0.000148109 0)
(0.993688 0.00541345 0)
(0.995051 0.00669389 0)
(0.994678 0.012423 0)
(0.998258 0.0172531 0)
(0.999198 0.00975973 0)
(0.998399 0.0141567 0)
(1.00066 0.0131383 0)
(1.00365 0.0118002 0)
(1.00236 0.0153855 0)
(1.00547 0.0151145 0)
(1.00782 0.0137595 0)
(0.997476 0.00108956 0)
(0.997654 0.00505528 0)
(1.0116 0.00141481 0)
(0.997106 -0.00106043 0)
(0.995392 0.0121426 0)
(1.01194 0.00454859 0)
(0.999848 -0.00170772 0)
(0.999346 0.00503902 0)
(1.00676 0.000146275 0)
(0.993996 0.00554524 0)
(0.994888 0.00704992 0)
(0.995232 0.0120349 0)
(0.998497 0.0169654 0)
(0.999306 0.0100646 0)
(0.998765 0.0135618 0)
(1.00051 0.0133624 0)
(1.0033 0.0116666 0)
(1.00236 0.0147105 0)
(1.00458 0.0151731 0)
(1.00745 0.0136133 0)
(0.997678 0.00110452 0)
(0.997819 0.00491637 0)
(1.01094 0.00134577 0)
(0.997594 -0.000644671 0)
(0.995445 0.0117468 0)
(1.0116 0.00440659 0)
(1.00002 -0.00142524 0)
(0.998907 0.00498072 0)
(1.00633 0.000429376 0)
(0.994376 0.0056532 0)
(0.994729 0.00741582 0)
(0.995859 0.0116405 0)
(0.998802 0.016638 0)
(0.999519 0.0104065 0)
(0.999248 0.0129822 0)
(1.00056 0.0135417 0)
(1.00307 0.0116611 0)
(1.00253 0.0140211 0)
(1.00391 0.0151025 0)
(1.00707 0.0136161 0)
(0.997872 0.00111009 0)
(0.998096 0.00479574 0)
(1.01015 0.00126524 0)
(0.998001 -0.00023233 0)
(0.995737 0.0113443 0)
(1.01115 0.00428106 0)
(1.00029 -0.00114504 0)
(0.998463 0.00494941 0)
(1.00577 0.000699865 0)
(0.994816 0.00573188 0)
(0.994593 0.00778405 0)
(0.996528 0.0112459 0)
(0.999134 0.0162497 0)
(0.999791 0.0107972 0)
(0.999816 0.0124222 0)
(1.0008 0.0136469 0)
(1.00299 0.0117773 0)
(1.00287 0.0133704 0)
(1.00353 0.0148741 0)
(1.00672 0.0137013 0)
(0.99805 0.00110308 0)
(0.998446 0.00469798 0)
(1.0093 0.00117671 0)
(0.998311 0.000165711 0)
(0.996233 0.0109423 0)
(1.01059 0.00416882 0)
(1.00063 -0.000865917 0)
(0.998072 0.00494723 0)
(1.00514 0.000966981 0)
(0.995292 0.00577726 0)
(0.994487 0.00814556 0)
(0.997212 0.0108585 0)
(0.999473 0.0157988 0)
(1.00007 0.0112173 0)
(1.00043 0.0119122 0)
(1.0012 0.0136566 0)
(1.00305 0.0119832 0)
(1.00332 0.0128029 0)
(1.00348 0.0144891 0)
(1.00645 0.0137947 0)
(0.99821 0.00108207 0)
(0.998823 0.00462365 0)
(1.00848 0.00108801 0)
(0.998527 0.000536351 0)
(0.996858 0.0105459 0)
(1.00998 0.00407677 0)
(1.00096 -0.00059245 0)
(0.99777 0.00497714 0)
(1.00451 0.00123383 0)
(0.995779 0.00577426 0)
(0.994418 0.00849746 0)
(0.997877 0.0104967 0)
(0.999811 0.0152781 0)
(1.00033 0.0116421 0)
(1.00104 0.011473 0)
(1.00171 0.0135586 0)
(1.00322 0.0122411 0)
(1.00382 0.0123646 0)
(1.00372 0.0139655 0)
(1.0063 0.0138166 0)
(0.998351 0.00104695 0)
(0.99918 0.00457192 0)
(1.00774 0.00100311 0)
(0.998668 0.000872437 0)
(0.997523 0.0101587 0)
(1.00937 0.0040032 0)
(1.00127 -0.000327145 0)
(0.997574 0.00503311 0)
(1.00394 0.00150129 0)
(0.996262 0.0057364 0)
(0.994389 0.00882592 0)
(0.998488 0.010172 0)
(1.00015 0.0146973 0)
(1.00053 0.0120507 0)
(1.0016 0.0111226 0)
(1.00226 0.0133294 0)
(1.00347 0.0125035 0)
(1.0043 0.0120846 0)
(1.00416 0.0133643 0)
(1.0063 0.0137172 0)
(0.998476 0.00099744 0)
(0.999485 0.0045416 0)
(1.00712 0.00092415 0)
(0.998765 0.00117105 0)
(0.998145 0.0097843 0)
(1.00879 0.00394274 0)
(1.00151 -6.28558e-05 0)
(0.997478 0.00510653 0)
(1.00345 0.00177676 0)
(0.996733 0.00566705 0)
(0.994407 0.00911916 0)
(0.999022 0.00989875 0)
(1.00048 0.0140634 0)
(1.00066 0.0124117 0)
(1.00207 0.0108856 0)
(1.00283 0.0129809 0)
(1.00376 0.0127201 0)
(1.0047 0.0119567 0)
(1.00469 0.0127635 0)
(1.00642 0.0134672 0)
(0.998591 0.000935244 0)
(0.999718 0.00452778 0)
(1.00663 0.000857226 0)
(0.998846 0.00142475 0)
(0.998667 0.00942765 0)
(1.00827 0.00389775 0)
(1.0017 0.00019266 0)
(0.997466 0.00519377 0)
(1.00306 0.00206797 0)
(0.997192 0.00556355 0)
(0.994477 0.00938016 0)
(0.999464 0.00967652 0)
(1.00081 0.0133849 0)
(1.00072 0.012693 0)
(1.00242 0.0107673 0)
(1.00336 0.0125456 0)
(1.00405 0.0128507 0)
(1.005 0.0119655 0)
(1.00521 0.0122317 0)
(1.00664 0.0130562 0)
(0.9987 0.000863037 0)
(0.999875 0.00452525 0)
(1.00626 0.000801195 0)
(0.998936 0.00164131 0)
(0.999063 0.00908819 0)
(1.0078 0.00386032 0)
(1.00184 0.000450347 0)
(0.997514 0.00528536 0)
(1.00278 0.00237176 0)
(0.997646 0.00543902 0)
(0.994601 0.00958564 0)
(0.999815 0.00951523 0)
(1.00115 0.0126933 0)
(1.00075 0.0128848 0)
(1.00263 0.0107571 0)
(1.00385 0.0120617 0)
(1.00433 0.0128631 0)
(1.00518 0.0120628 0)
(1.00564 0.0118227 0)
(1.00691 0.0125412 0)
(0.998809 0.00078208 0)
(0.99996 0.00453013 0)
(1.00597 0.000758463 0)
(0.999054 0.00181797 0)
(0.999334 0.00877064 0)
(1.00738 0.00382833 0)
(1.00194 0.00070782 0)
(0.997599 0.00538297 0)
(1.00259 0.00267925 0)
(0.9981 0.00530939 0)
(0.994782 0.00973658 0)
(1.00008 0.00940831 0)
(1.00151 0.0119983 0)
(1.00076 0.0129722 0)
(1.00271 0.0108443 0)
(1.00426 0.0115793 0)
(1.0046 0.0127514 0)
(1.00525 0.0121772 0)
(1.00592 0.0115457 0)
(1.00718 0.0120236 0)
(0.998921 0.000693966 0)
(0.999986 0.00453916 0)
(1.00575 0.000731238 0)
(0.999205 0.00195904 0)
(0.999498 0.00847855 0)
(1.00699 0.00379686 0)
(1.00202 0.000954704 0)
(0.997703 0.00547686 0)
(1.00247 0.00299631 0)
(0.998563 0.0051794 0)
(0.995014 0.00984044 0)
(1.00028 0.00936159 0)
(1.00188 0.0113227 0)
(1.00079 0.0129419 0)
(1.00268 0.0110028 0)
(1.0046 0.0111337 0)
(1.00487 0.0125112 0)
(1.00526 0.0122811 0)
(1.00606 0.0113805 0)
(1.0074 0.0115728 0)
(0.999037 0.00060331 0)
(0.999966 0.00454669 0)
(1.00557 0.00071575 0)
(0.99939 0.00206547 0)
(0.999579 0.00821466 0)
(1.00662 0.00377046 0)
(1.0021 0.00119659 0)
(0.997815 0.00556859 0)
(1.00241 0.0033095 0)
(0.999038 0.00504516 0)
(0.995298 0.00987791 0)
(1.00042 0.00936494 0)
(1.00225 0.010685 0)
(1.00088 0.0128035 0)
(1.00256 0.011216 0)
(1.00486 0.0107684 0)
(1.00516 0.0121274 0)
(1.00525 0.0123491 0)
(1.00606 0.0113105 0)
(1.00753 0.0112025 0)
(0.999156 0.000508078 0)
(0.999913 0.00455275 0)
(1.00539 0.000721991 0)
(0.999604 0.00213326 0)
(0.999607 0.00797426 0)
(1.00625 0.00374688 0)
(1.00218 0.00142073 0)
(0.997926 0.00565797 0)
(1.00237 0.00362134 0)
(0.999527 0.00491877 0)
(0.995629 0.00986331 0)
(1.0005 0.00941166 0)
(1.00262 0.0101013 0)
(1.00104 0.0125345 0)
(1.0024 0.0114421 0)
(1.00503 0.0105352 0)
(1.00547 0.0116441 0)
(1.00526 0.0123224 0)
(1.00597 0.0113062 0)
(1.00757 0.0108899 0)
(0.999278 0.000412676 0)
(0.99984 0.00455109 0)
(1.00521 0.000741886 0)
(0.999839 0.00216917 0)
(0.999605 0.00776875 0)
(1.00589 0.00373495 0)
(1.00227 0.00162363 0)
(0.998043 0.00574004 0)
(1.00233 0.00392733 0)
(1.00002 0.00480739 0)
(0.996008 0.00978921 0)
(1.00054 0.00948125 0)
(1.00297 0.00960265 0)
(1.00129 0.0121885 0)
(1.00223 0.011621 0)
(1.0051 0.0104159 0)
(1.00579 0.0111418 0)
(1.00532 0.0121835 0)
(1.00581 0.0113575 0)
(1.00751 0.0106416 0)
(0.999399 0.000318524 0)
(0.999755 0.00454101 0)
(1.00502 0.000785115 0)
(1.00009 0.00216644 0)
(0.999591 0.00757467 0)
(1.00552 0.00373739 0)
(1.00237 0.00179689 0)
(0.998164 0.00582395 0)
(1.00228 0.00424825 0)
(1.00052 0.00468448 0)
(0.99643 0.00967284 0)
(1.00055 0.00957619 0)
(1.00329 0.00915178 0)
(1.00162 0.0117498 0)
(1.00209 0.0117653 0)
(1.00508 0.0104112 0)
(1.0061 0.0106926 0)
(1.00547 0.0119396 0)
(1.00563 0.0114331 0)
(1.00734 0.0105066 0)
(0.999519 0.000227309 0)
(0.999665 0.00451437 0)
(1.00481 0.000851534 0)
(1.00034 0.00213147 0)
(0.999577 0.00740529 0)
(1.00515 0.00376391 0)
(1.00249 0.00193666 0)
(0.998305 0.00588926 0)
(1.00221 0.00455536 0)
(1.00101 0.00459367 0)
(0.996902 0.00947255 0)
(1.00053 0.00969469 0)
(1.00355 0.00884105 0)
(1.00204 0.0112097 0)
(1.00201 0.0117681 0)
(1.00497 0.0104637 0)
(1.00638 0.0103278 0)
(1.0057 0.0116006 0)
(1.00547 0.0115257 0)
(1.00706 0.0105382 0)
(0.999633 0.000138371 0)
(0.999573 0.0044769 0)
(1.00459 0.000940434 0)
(1.00059 0.00205969 0)
(0.999569 0.0072314 0)
(1.00476 0.0038274 0)
(1.00261 0.00203783 0)
(0.998465 0.00594371 0)
(1.00211 0.00488335 0)
(1.00147 0.00448959 0)
(0.997414 0.00925354 0)
(1.00052 0.00977245 0)
(1.00376 0.00857196 0)
(1.00248 0.0106824 0)
(1.00201 0.0116691 0)
(1.00484 0.0105208 0)
(1.00661 0.00990121 0)
(1.00603 0.0110751 0)
(1.0054 0.0113693 0)
(1.00668 0.0106516 0)
(0.999744 6.04896e-05 0)
(0.999484 0.00441113 0)
(1.00434 0.00106048 0)
(1.00084 0.0019594 0)
(0.999573 0.0070666 0)
(1.00437 0.00392347 0)
(1.00274 0.00210519 0)
(0.998661 0.00595447 0)
(1.00199 0.00521345 0)
(1.00192 0.00443029 0)
(0.997975 0.00893637 0)
(1.00049 0.00987948 0)
(1.00391 0.00841879 0)
(1.00298 0.0100695 0)
(1.00209 0.0114265 0)
(1.00462 0.0106013 0)
(1.00674 0.00950069 0)
(1.00639 0.0103762 0)
(1.00547 0.010875 0)
(1.0064 0.0106429 0)
(0.999847 -1.41454e-05 0)
(0.999398 0.00433412 0)
(1.00408 0.00119779 0)
(1.00108 0.00183419 0)
(0.999593 0.0068795 0)
(1.00396 0.00407459 0)
(1.00285 0.00216164 0)
(0.998882 0.00593562 0)
(1.00186 0.00554124 0)
(1.0023 0.00442434 0)
(0.998579 0.00856047 0)
(1.00052 0.00989624 0)
(1.00395 0.00834378 0)
(1.00345 0.00953124 0)
(1.00229 0.0110427 0)
(1.00441 0.0105636 0)
(1.00673 0.00924644 0)
(1.00672 0.00974216 0)
(1.00569 0.0103945 0)
(1.00624 0.010562 0)
(0.999944 -7.41497e-05 0)
(0.999318 0.00422008 0)
(1.0038 0.00137188 0)
(1.00131 0.00168685 0)
(0.999633 0.00666947 0)
(1.00356 0.00425864 0)
(1.00295 0.00221945 0)
(0.999145 0.00585248 0)
(1.00171 0.00588379 0)
(1.00263 0.00444342 0)
(0.999205 0.00816593 0)
(1.00055 0.00986644 0)
(1.00396 0.00831982 0)
(1.00391 0.00900221 0)
(1.00253 0.0105973 0)
(1.00421 0.0105235 0)
(1.00665 0.00915588 0)
(1.00704 0.00939427 0)
(1.00601 0.0100346 0)
(1.00622 0.0105368 0)
(1.00003 -0.000126325 0)
(0.999247 0.00408501 0)
(1.00351 0.00155272 0)
(1.00152 0.00155159 0)
(0.999697 0.00642322 0)
(1.00314 0.00448232 0)
(1.00303 0.00229783 0)
(0.999441 0.00570985 0)
(1.00157 0.00618799 0)
(1.00289 0.00455501 0)
(0.999858 0.0077117 0)
(1.00066 0.00974017 0)
(1.00386 0.00837126 0)
(1.0043 0.00854858 0)
(1.00291 0.010051 0)
(1.00409 0.010449 0)
(1.0065 0.00914987 0)
(1.00728 0.00907921 0)
(1.00639 0.00966026 0)
(1.00632 0.0103302 0)
(1.00011 -0.000166142 0)
(0.999185 0.00392884 0)
(1.0032 0.00174492 0)
(1.00171 0.00143495 0)
(0.999788 0.00611591 0)
(1.00274 0.00473436 0)
(1.00307 0.00240862 0)
(0.999771 0.00551889 0)
(1.00145 0.00643237 0)
(1.00307 0.00473099 0)
(1.00048 0.00727726 0)
(1.00082 0.00950924 0)
(1.00376 0.00844251 0)
(1.00461 0.00823856 0)
(1.0033 0.00948308 0)
(1.00405 0.0102949 0)
(1.0063 0.00920674 0)
(1.00747 0.00878256 0)
(1.00679 0.00920721 0)
(1.00653 0.00987691 0)
(1.00018 -0.000186427 0)
(0.999134 0.00373343 0)
(1.00288 0.00195056 0)
(1.00187 0.00133899 0)
(0.99991 0.0057784 0)
(1.00234 0.00497898 0)
(1.00306 0.00258217 0)
(1.00012 0.00526743 0)
(1.00136 0.00660946 0)
(1.00317 0.00496763 0)
(1.00109 0.00686943 0)
(1.00107 0.00923122 0)
(1.0036 0.00851149 0)
(1.00481 0.00799169 0)
(1.00377 0.00903317 0)
(1.00414 0.0101018 0)
(1.00606 0.00928335 0)
(1.00749 0.00874471 0)
(1.00711 0.00885012 0)
(1.00681 0.0095123 0)
(1.00025 -0.000197633 0)
(0.9991 0.00352684 0)
(1.00255 0.00214605 0)
(1.002 0.00128775 0)
(1.00006 0.0053651 0)
(1.00198 0.00520243 0)
(1.003 0.00283099 0)
(1.00048 0.00502769 0)
(1.00131 0.00669556 0)
(1.0032 0.00523388 0)
(1.00163 0.00656451 0)
(1.00136 0.00884327 0)
(1.00348 0.00853287 0)
(1.00496 0.00795805 0)
(1.00421 0.0086212 0)
(1.00429 0.0097541 0)
(1.00588 0.00927957 0)
(1.00745 0.00877146 0)
(1.00737 0.00862378 0)
(1.00716 0.00910619 0)
(1.0003 -0.000186116 0)
(0.99908 0.00328569 0)
(1.00223 0.00233567 0)
(1.00209 0.00128661 0)
(1.00025 0.00493528 0)
(1.00166 0.0053607 0)
(1.00289 0.00314136 0)
(1.00082 0.00479346 0)
(1.00132 0.00668171 0)
(1.00319 0.00552393 0)
(1.00211 0.00634064 0)
(1.00173 0.00846151 0)
(1.0034 0.00851654 0)
(1.00499 0.00792935 0)
(1.00458 0.00822078 0)
(1.00455 0.00939155 0)
(1.00577 0.00921344 0)
(1.00734 0.00870858 0)
(1.00746 0.00840012 0)
(1.0074 0.00863897 0)
(1.00034 -0.000164617 0)
(0.999079 0.00303455 0)
(1.00191 0.0025107 0)
(1.00213 0.00132635 0)
(1.00045 0.00448933 0)
(1.00139 0.00543945 0)
(1.00273 0.00348713 0)
(1.00115 0.00462874 0)
(1.00139 0.00659601 0)
(1.00315 0.00575728 0)
(1.0025 0.00621884 0)
(1.0021 0.00805966 0)
(1.00337 0.00838314 0)
(1.005 0.00792922 0)
(1.00491 0.00797537 0)
(1.00484 0.00897167 0)
(1.00569 0.00898572 0)
(1.0072 0.00858034 0)
(1.00749 0.00821572 0)
(1.00758 0.00835598 0)
(1.00038 -0.000124785 0)
(0.999096 0.00276668 0)
(1.00161 0.002651 0)
(1.00213 0.00142459 0)
(1.00067 0.00406732 0)
(1.00119 0.0054228 0)
(1.00254 0.00384384 0)
(1.00142 0.00453003 0)
(1.00149 0.00643264 0)
(1.00311 0.00594162 0)
(1.00282 0.00616549 0)
(1.00249 0.00770007 0)
(1.00341 0.00820621 0)
(1.00496 0.00790547 0)
(1.00512 0.00775062 0)
(1.00512 0.00852355 0)
(1.00569 0.00869463 0)
(1.00707 0.00845844 0)
(1.00748 0.00804639 0)
(1.00767 0.008154 0)
(1.00041 -7.60154e-05 0)
(0.999132 0.00250855 0)
(1.00133 0.00275641 0)
(1.00209 0.0015682 0)
(1.00089 0.00366159 0)
(1.00107 0.00529265 0)
(1.00234 0.00417947 0)
(1.00165 0.00452608 0)
(1.00164 0.00627689 0)
(1.00307 0.00606656 0)
(1.00306 0.00614149 0)
(1.00284 0.00736573 0)
(1.00349 0.00795727 0)
(1.00492 0.00782294 0)
(1.00528 0.00758257 0)
(1.0054 0.00817096 0)
(1.00576 0.00837699 0)
(1.00696 0.00829985 0)
(1.00744 0.00787286 0)
(1.0077 0.00795638 0)
(1.00043 -1.95152e-05 0)
(0.999183 0.00226757 0)
(1.00109 0.00280695 0)
(1.002 0.00174739 0)
(1.0011 0.00331377 0)
(1.00102 0.00508768 0)
(1.00216 0.00445797 0)
(1.00182 0.00458153 0)
(1.00179 0.0060977 0)
(1.00305 0.00612153 0)
(1.00324 0.00613768 0)
(1.00318 0.00708373 0)
(1.00362 0.00769335 0)
(1.0049 0.00771847 0)
(1.00537 0.00743671 0)
(1.00562 0.00784971 0)
(1.00585 0.00803019 0)
(1.00688 0.00808012 0)
(1.00738 0.00769272 0)
(1.00768 0.007734 0)
(1.00044 4.00113e-05 0)
(0.999247 0.00205301 0)
(1.00088 0.00280561 0)
(1.00189 0.0019453 0)
(1.00128 0.00303478 0)
(1.00103 0.00481542 0)
(1.002 0.00464498 0)
(1.00194 0.00467008 0)
(1.00194 0.00595682 0)
(1.00306 0.00614297 0)
(1.00337 0.00612934 0)
(1.00346 0.00683964 0)
(1.00377 0.00739532 0)
(1.00489 0.00754577 0)
(1.00542 0.0072836 0)
(1.00579 0.00757704 0)
(1.00597 0.00770888 0)
(1.00683 0.00782883 0)
(1.00731 0.00749302 0)
(1.00762 0.00753991 0)
(1.00045 9.90133e-05 0)
(0.999318 0.00186392 0)
(1.00071 0.00276432 0)
(1.00175 0.00212658 0)
(1.00142 0.00285561 0)
(1.0011 0.00452977 0)
(1.00189 0.00473326 0)
(1.00203 0.00476083 0)
(1.00209 0.00582693 0)
(1.00307 0.00610498 0)
(1.00347 0.00609374 0)
(1.00371 0.00662813 0)
(1.00394 0.00710768 0)
(1.00491 0.00735089 0)
(1.00546 0.00713917 0)
(1.00593 0.00734317 0)
(1.00607 0.00739778 0)
(1.00681 0.00755111 0)
(1.00727 0.00725529 0)
(1.00756 0.00735382 0)
(1.00045 0.000155011 0)
(0.999395 0.00170424 0)
(1.00058 0.00269036 0)
(1.00161 0.00228158 0)
(1.00153 0.00276993 0)
(1.0012 0.00425775 0)
(1.00182 0.00472601 0)
(1.0021 0.00481379 0)
(1.00222 0.00569742 0)
(1.0031 0.00604583 0)
(1.00354 0.00605976 0)
(1.00391 0.00644897 0)
(1.00411 0.00682616 0)
(1.00496 0.00712137 0)
(1.00548 0.00694963 0)
(1.00601 0.00710801 0)
(1.00616 0.00711007 0)
(1.0068 0.00728682 0)
(1.00725 0.00700773 0)
(1.00751 0.00713804 0)
(1.00045 0.000204926 0)
(0.999471 0.00157627 0)
(1.00048 0.00259104 0)
(1.00148 0.0024073 0)
(1.0016 0.00273224 0)
(1.00131 0.00402553 0)
(1.0018 0.00466422 0)
(1.00216 0.00482409 0)
(1.00235 0.00557182 0)
(1.00314 0.00595248 0)
(1.00359 0.00598994 0)
(1.00406 0.00627787 0)
(1.00427 0.00655335 0)
(1.00502 0.00687123 0)
(1.0055 0.00674631 0)
(1.00609 0.00688532 0)
(1.00625 0.00685688 0)
(1.00679 0.00704831 0)
(1.00723 0.00676342 0)
(1.0075 0.00687519 0)
(1.00044 0.000247744 0)
(0.999546 0.00147608 0)
(1.00042 0.00247877 0)
(1.00135 0.00249913 0)
(1.00164 0.00272154 0)
(1.00143 0.00384097 0)
(1.0018 0.00456618 0)
(1.00222 0.00479062 0)
(1.00246 0.00542788 0)
(1.00319 0.00582513 0)
(1.00363 0.00589488 0)
(1.00417 0.00613205 0)
(1.00441 0.0063105 0)
(1.0051 0.00661219 0)
(1.00553 0.00653269 0)
(1.00613 0.00665481 0)
(1.00633 0.00657802 0)
(1.00677 0.00679936 0)
(1.00718 0.00653251 0)
(1.00752 0.00659112 0)
(1.00043 0.000284405 0)
(0.999616 0.00139962 0)
(1.00038 0.00236016 0)
(1.00124 0.0025551 0)
(1.00166 0.00272189 0)
(1.00154 0.00368984 0)
(1.00182 0.00444479 0)
(1.00227 0.00473117 0)
(1.00256 0.00527486 0)
(1.00325 0.00568294 0)
(1.00366 0.00578082 0)
(1.00426 0.00598367 0)
(1.00451 0.00608119 0)
(1.00517 0.00634591 0)
(1.00556 0.00629038 0)
(1.00616 0.00643377 0)
(1.0064 0.00629729 0)
(1.00679 0.00653845 0)
(1.00711 0.00634229 0)
(1.00752 0.00632536 0)
(1.00042 0.000312932 0)
(0.99968 0.00134386 0)
(1.00036 0.00224123 0)
(1.00115 0.00257779 0)
(1.00166 0.00272388 0)
(1.00164 0.00355649 0)
(1.00186 0.00431423 0)
(1.00232 0.00465181 0)
(1.00266 0.00511956 0)
(1.00332 0.00551077 0)
(1.0037 0.00563652 0)
(1.00432 0.00582456 0)
(1.0046 0.00586953 0)
(1.00524 0.00609974 0)
(1.00561 0.00602712 0)
(1.00617 0.00621379 0)
(1.00645 0.00605063 0)
(1.00683 0.0062423 0)
(1.00703 0.00614783 0)
(1.00749 0.00608206 0)
(1.00041 0.000334511 0)
(0.999737 0.00130413 0)
(1.00036 0.00212591 0)
(1.00108 0.00256968 0)
(1.00164 0.00272084 0)
(1.00173 0.00343625 0)
(1.00191 0.0041754 0)
(1.00236 0.00455005 0)
(1.00273 0.00496675 0)
(1.00339 0.00532058 0)
(1.00374 0.00546592 0)
(1.00436 0.00566271 0)
(1.00466 0.00566239 0)
(1.00528 0.00587008 0)
(1.00566 0.00576068 0)
(1.00619 0.00595557 0)
(1.00645 0.00582912 0)
(1.00688 0.00593644 0)
(1.00698 0.005912 0)
(1.00742 0.00587083 0)
(1.0004 0.00034974 0)
(0.999788 0.00127421 0)
(1.00037 0.00201714 0)
(1.00102 0.00253413 0)
(1.00162 0.00270696 0)
(1.0018 0.00332988 0)
(1.00196 0.00402959 0)
(1.00241 0.00443012 0)