/*--------------------------------*- C++ -*----------------------------------*\
| =========                 |                                                 |
| \\      /  F ield         | OpenFOAM: The Open Source CFD Toolbox           |
|  \\    /   O peration     | Version:  v1912                                 |
|   \\  /    A nd           | Website:  www.openfoam.com                      |
|    \\/     M anipulation  |                                                 |
\*---------------------------------------------------------------------------*/
FoamFile
{
    version     2.0;
    format      ascii;
    class       volScalarField;
    location    "6.5";
    object      p;
}
// * * * * * * * * * * * * * * * * * * * * * * * * * * * * * * * * * * * * * //

dimensions      [0 2 -2 0 0 0 0];


internalField   nonuniform List<scalar> 
9600
(
-2.6718e-10
-0.00223887
-0.00181928
-0.00137172
-0.00197538
0.00135596
-0.00490915
-0.00390956
0.000108482
0.00122581
-0.000295167
7.12426e-05
0.00182283
0.00111234
0.0043478
0.00546769
0.00800539
0.00914245
0.0119538
0.016773
2.48695e-06
-0.00224479
-0.00181369
-0.00137139
-0.0019689
0.00130007
-0.00487112
-0.00387717
8.3668e-05
0.00128019
-0.000311231
6.77431e-05
0.00183003
0.00110865
0.00436533
0.00536513
0.00800259
0.00895595
0.0119818
0.0159961
3.4684e-06
-0.00225198
-0.00180359
-0.00137032
-0.00197083
0.00123579
-0.00483255
-0.00382994
5.24294e-05
0.00131805
-0.000340914
6.20442e-05
0.00184141
0.00110617
0.0043628
0.00525789
0.00797285
0.00882728
0.0119489
0.0152186
7.64677e-07
-0.0022617
-0.00179114
-0.00137037
-0.00198055
0.00115925
-0.00478356
-0.00376724
1.07602e-05
0.00131736
-0.000376797
4.66744e-05
0.00185086
0.00109898
0.0043488
0.005146
0.00793222
0.00870466
0.0118398
0.0145937
-5.91293e-06
-0.00227436
-0.00177607
-0.00137187
-0.00199588
0.00107508
-0.00472188
-0.00369561
-4.44794e-05
0.00128821
-0.00041416
2.20085e-05
0.00185659
0.00108982
0.00433723
0.00502578
0.00789054
0.00856725
0.0117179
0.013998
-1.65805e-05
-0.00228997
-0.00175821
-0.00137476
-0.00201549
0.000988191
-0.00464907
-0.00362501
-0.000113246
0.0012415
-0.00045083
-5.32225e-06
0.00185895
0.00108333
0.00432168
0.00490121
0.00784559
0.00842244
0.0115742
0.0134193
-3.11814e-05
-0.00230796
-0.00173759
-0.00137902
-0.0020379
0.000900666
-0.00456901
-0.00356099
-0.000191526
0.00118791
-0.000485461
-2.92943e-05
0.00186067
0.0010775
0.00429905
0.00477389
0.00779226
0.00827412
0.0113904
0.0128665
-4.9413e-05
-0.00232757
-0.00171454
-0.00138453
-0.00206202
0.000812506
-0.00448534
-0.00350528
-0.000273038
0.00113463
-0.000518794
-4.95285e-05
0.00186375
0.00106927
0.00427107
0.00464365
0.0077287
0.00812463
0.0111676
0.0123526
-7.07401e-05
-0.00234828
-0.00168962
-0.00139121
-0.00208731
0.000723173
-0.00440024
-0.00345652
-0.000351928
0.00108563
-0.000552343
-6.87914e-05
0.00186845
0.00105659
0.0042376
0.00451264
0.00765208
0.00798049
0.0109067
0.0118673
-9.44654e-05
-0.00236997
-0.00166353
-0.00139907
-0.00211358
0.000632336
-0.00431456
-0.00341275
-0.000424277
0.00104152
-0.000587441
-9.05433e-05
0.00187415
0.00103843
0.00419756
0.00438367
0.00755859
0.00784584
0.0106054
0.0114034
-0.000119784
-0.00239284
-0.00163718
-0.00140826
-0.00214075
0.000539979
-0.00422844
-0.00337238
-0.000488882
0.00100403
-0.000624981
-0.000116705
0.00188042
0.00101495
0.0041497
0.00425889
0.00744507
0.00772198
0.0102632
0.0109576
-0.000145858
-0.00241727
-0.0016116
-0.00141903
-0.00216867
0.000446217
-0.00414175
-0.00333473
-0.000547136
0.000967503
-0.000665383
-0.000147252
0.00188709
0.000986702
0.00409316
0.00413996
0.00730891
0.00760774
0.00988239
0.0105215
-0.000171912
-0.00244362
-0.00158773
-0.00143158
-0.00219693
0.000351114
-0.00405426
-0.0032991
-0.000602287
0.000929583
-0.000708511
-0.000181287
0.00189369
0.000954596
0.0040279
0.00402768
0.00714776
0.00750046
0.00946694
0.0100848
-0.000197342
-0.00247212
-0.00156614
-0.00144587
-0.00222496
0.000254592
-0.00396573
-0.00326506
-0.000657895
0.000890371
-0.000751397
-0.000218558
0.0018997
0.00091995
0.00395364
0.00392244
0.0069599
0.00739644
0.0090227
0.00963689
-0.000221786
-0.00250287
-0.00154711
-0.00146158
-0.00225217
0.000156401
-0.00387592
-0.00323237
-0.000716563
0.000849528
-0.000794544
-0.0002597
0.00190485
0.000883938
0.00386886
0.00382504
0.0067445
0.00729022
0.0085578
0.00916941
-0.000245156
-0.00253582
-0.00153042
-0.0014782
-0.00227809
5.61849e-05
-0.00378479
-0.00320071
-0.000779537
0.000807129
-0.000837556
-0.000305592
0.00190878
0.000847763
0.00377157
0.00373611
0.00650147
0.00717489
0.00808138
0.00867715
-0.000267606
-0.00257085
-0.00151591
-0.00149526
-0.00230245
-4.63898e-05
-0.00369252
-0.00316981
-0.000847258
0.000763458
-0.000880001
-0.000356539
0.00191082
0.000812988
0.00366026
0.00365481
0.00623188
0.00704305
0.00760194
0.00815826
-0.000289467
-0.00260775
-0.00150352
-0.00151235
-0.00232525
-0.000151503
-0.00359946
-0.00313964
-0.00091986
0.000718681
-0.000921263
-0.000412247
0.00191036
0.000781466
0.00353376
0.00357896
0.00593821
0.0068873
0.00712774
0.00761397
-0.000311154
-0.00264629
-0.00149327
-0.00152926
-0.00234682
-0.000259087
-0.00350621
-0.00311013
-0.000997317
0.000672869
-0.000960683
-0.00047238
0.0019071
0.000754797
0.00339114
0.00350587
0.00562409
0.00670114
0.00666702
0.00704717
-0.000333094
-0.00268624
-0.00148525
-0.00154591
-0.00236771
-0.000368803
-0.00341363
-0.00308136
-0.00107938
0.000625903
-0.000997763
-0.000536986
0.00190057
0.000733532
0.00323193
0.00343335
0.00529392
0.00647968
0.0062263
0.00646232
-0.000355677
-0.00272741
-0.00147964
-0.00156231
-0.00238852
-0.000480141
-0.00332275
-0.00305338
-0.00116557
0.000577482
-0.00103213
-0.000606836
0.00188987
0.000717385
0.00305586
0.00335944
0.00495214
0.00621942
0.00580986
0.00586562
-0.000379221
-0.0027696
-0.00147669
-0.00157853
-0.00240981
-0.000592505
-0.0032347
-0.00302617
-0.00125529
0.000526995
-0.00106349
-0.000683301
0.00187385
0.000705858
0.00286247
0.00328131
0.00460301
0.00591819
0.00541958
0.00526582
-0.000403972
-0.00281265
-0.00147669
-0.00159455
-0.00243205
-0.000705219
-0.00315064
-0.0029997
-0.00134784
0.000473572
-0.00109168
-0.00076781
0.00185119
0.000698543
0.00265072
0.00319586
0.00425203
0.00557484
0.00505377
0.00467379
-0.000430124
-0.00285637
-0.00147999
-0.00161032
-0.00245562
-0.00081764
-0.0030715
-0.00297403
-0.00144267
0.000416345
-0.00111648
-0.000861431
0.00182015
0.000695204
0.00242006
0.0030999
0.0039055
0.00518947
0.00470641
0.00410212
-0.000457837
-0.00290062
-0.00148699
-0.0016257
-0.00248083
-0.000929193
-0.00299807
-0.00294933
-0.00153922
0.000354258
-0.00113771
-0.000964649
0.00177837
0.000696089
0.00217122
0.00298865
0.00356921
0.00476458
0.00436785
0.00356441
-0.000487233
-0.00294524
-0.00149807
-0.00164051
-0.00250798
-0.00103933
-0.00293107
-0.00292579
-0.00163682
0.000285997
-0.00117056
-0.0010774
0.00172277
0.000701906
0.00190564
0.00285597
0.00324869
0.0043044
0.00402597
0.00307234
-0.000518396
-0.00299009
-0.00151373
-0.00165459
-0.0025373
-0.00114758
-0.00287104
-0.00290369
-0.00173488
0.000210394
-0.00118283
-0.00119888
0.00164981
0.000712959
0.00162581
0.00269537
0.00294837
0.00381585
0.0036671
0.0026327
-0.00055143
-0.00303499
-0.00153445
-0.00166774
-0.00256903
-0.00125362
-0.00281834
-0.00288355
-0.0018327
0.000126562
-0.00118993
-0.00132789
0.00155621
0.000728771
0.0013357
0.00250091
0.00267015
0.00330934
0.0032778
0.00224534
-0.000586467
-0.0030798
-0.0015607
-0.00167972
-0.00260345
-0.00135724
-0.00277318
-0.00286619
-0.00192932
3.90299e-05
-0.00119265
-0.00146214
0.00143881
0.00074777
0.00104058
0.00226774
0.00241302
0.00279802
0.00284774
0.00190147
-0.000623632
-0.00312436
-0.00159303
-0.00169037
-0.00264074
-0.00145842
-0.00273561
-0.00285281
-0.00202345
-6.58797e-05
-0.00119204
-0.00159883
0.0012943
0.000766957
0.000747247
0.00199268
0.00217221
0.00229681
0.00237237
0.00158251
-0.000663058
-0.0031685
-0.00163204
-0.00169958
-0.00268105
-0.00155725
-0.00270531
-0.00284492
-0.00211362
-0.000183487
-0.00119046
-0.00173536
0.00112074
0.000782273
0.000462859
0.00167613
0.00193821
0.00182008
0.00185458
0.00126284
-0.000704911
-0.00321208
-0.00167829
-0.00170722
-0.0027244
-0.00165405
-0.00268154
-0.00284423
-0.00219906
-0.000313043
-0.00119138
-0.00186812
0.000918513
0.000787599
0.000193647
0.00132157
0.00169811
0.00137943
0.00130502
0.000914061
-0.000749369
-0.00325492
-0.00173239
-0.00171321
-0.00277058
-0.00174967
-0.00266315
-0.00285236
-0.00228007
-0.000453828
-0.00119843
-0.00199436
0.000688792
0.000776003
-5.55072e-05
0.000934584
0.00143951
0.000980596
0.000739874
0.000513498
-0.000796614
-0.00329677
-0.00179497
-0.00171754
-0.00281933
-0.00184509
-0.00264861
-0.00287081
-0.00235788
-0.000603459
-0.0012152
-0.00211319
0.00043404
0.000741447
-0.00028242
0.000522303
0.00115275
0.000621982
0.000180292
5.22029e-05
-0.00084685
-0.00333742
-0.00186663
-0.00172049
-0.00287003
-0.00194086
-0.00263636
-0.00290028
-0.00243463
-0.000759231
-0.00124531
-0.00222462
0.000158784
0.000678339
-0.000487708
9.35528e-05
0.000831639
0.000295541
-0.000351434
-0.000462855
-0.000900328
-0.00337653
-0.00194801
-0.00172252
-0.00292171
-0.00203435
-0.00262524
-0.00294015
-0.00251345
-0.000917931
-0.00129122
-0.00232969
-0.000131946
0.000582757
-0.000674103
-0.000342913
0.000474684
-1.06136e-05
-0.000840706
-0.00101572
-0.00095727
-0.00341379
-0.00203966
-0.00172433
-0.00297319
-0.00214047
-0.0026148
-0.00298948
-0.00259753
-0.00107711
-0.00135341
-0.00243134
-0.000433652
0.000452877
-0.000846508
-0.000780354
8.35268e-05
-0.000307117
-0.00128094
-0.00158272
-0.00101793
-0.00344885
-0.0021419
-0.00172687
-0.00302304
-0.00225341
-0.00260506
-0.0030463
-0.00269027
-0.00123598
-0.00143151
-0.00253325
-0.000743065
0.000288187
-0.0010099
-0.00121385
-0.000340113
-0.000602922
-0.0016733
-0.00213318
-0.00108269
-0.00348122
-0.00225511
-0.00173136
-0.00306926
-0.00237466
-0.00259728
-0.00310714
-0.00279468
-0.00139596
-0.00152377
-0.00263846
-0.00105856
8.83858e-05
-0.00116769
-0.00163696
-0.000794155
-0.000905113
-0.00202545
-0.00264864
-0.001152
-0.00351026
-0.00237921
-0.0017399
-0.00310971
-0.00250477
-0.0025937
-0.00316885
-0.00291257
-0.00155872
-0.00162733
-0.00274959
-0.00137915
-0.000145976
-0.00132761
-0.00204471
-0.00127312
-0.00121537
-0.00233597
-0.00312279
-0.0012263
-0.00353559
-0.00251389
-0.00175449
-0.00314247
-0.00264437
-0.00259717
-0.00322736
-0.00304454
-0.00172739
-0.00173894
-0.00286762
-0.00170567
-0.000411606
-0.00149635
-0.00243979
-0.00177587
-0.00153818
-0.00259979
-0.00353807
-0.00130609
-0.00355676
-0.00265848
-0.00177789
-0.00316539
-0.00279285
-0.00261015
-0.00327916
-0.00318913
-0.0019079
-0.00185718
-0.00299089
-0.00203914
-0.000707399
-0.00167496
-0.0028221
-0.00230639
-0.00188337
-0.0028227
-0.00388137
-0.00139169
-0.00357369
-0.00281145
-0.00181322
-0.00317802
-0.00294801
-0.00263942
-0.00332213
-0.00334447
-0.00210574
-0.00198379
-0.00311684
-0.00237624
-0.00103213
-0.00186432
-0.00318472
-0.00286449
-0.00227382
-0.00302542
-0.00415165
-0.00148336
-0.00358637
-0.00297103
-0.00186364
-0.00318023
-0.00310674
-0.00268816
-0.00335553
-0.00350653
-0.00232371
-0.0021197
-0.00324319
-0.00271623
-0.00138425
-0.0020585
-0.00350091
-0.00341161
-0.00271838
-0.00324819
-0.00442332
-0.00158158
-0.00359453
-0.00313492
-0.00193348
-0.00317284
-0.00326459
-0.0027597
-0.00338124
-0.00366838
-0.00256423
-0.00227076
-0.00336514
-0.0030532
-0.0017647
-0.00226168
-0.00376723
-0.00392528
-0.00321718
-0.00352195
-0.00471469
-0.00168667
-0.00359853
-0.00329966
-0.00202644
-0.00315924
-0.00341573
-0.00285592
-0.00340293
-0.0038242
-0.00282566
-0.00244266
-0.00348252
-0.00338061
-0.00216954
-0.00247887
-0.003999
-0.00441589
-0.00378317
-0.00386864
-0.00500463
-0.00179968
-0.00359812
-0.00346125
-0.00214679
-0.00314307
-0.00355498
-0.00297715
-0.00342588
-0.0039679
-0.00310468
-0.00264095
-0.00360031
-0.00369245
-0.00259375
-0.00272907
-0.0042277
-0.0049131
-0.00440629
-0.00429974
-0.00522991
-0.00192125
-0.00359372
-0.00361584
-0.00229625
-0.00313066
-0.00367802
-0.00312055
-0.00345767
-0.00409593
-0.00339563
-0.0028726
-0.00372272
-0.00398078
-0.00303674
-0.00302457
-0.00442676
-0.00533548
-0.00503106
-0.00479349
-0.00551344
-0.00205095
-0.00358679
-0.00376074
-0.00247536
-0.00312866
-0.0037822
-0.00328336
-0.00350464
-0.00420665
-0.00368963
-0.00313704
-0.00385848
-0.00425406
-0.00349228
-0.0033713
-0.00463309
-0.00570659
-0.00564213
-0.00536284
-0.00585338
-0.00218833
-0.00358047
-0.00389434
-0.00268096
-0.00314321
-0.00386905
-0.00345894
-0.00357206
-0.00430141
-0.00397717
-0.00343505
-0.00401886
-0.0045132
-0.00394884
-0.00376667
-0.00486865
-0.00603479
-0.00620911
-0.0059743
-0.00623838
-0.00233296
-0.00357891
-0.00401474
-0.00290584
-0.00318126
-0.00394157
-0.00364129
-0.00366429
-0.00438502
-0.00425225
-0.00376073
-0.00421042
-0.00476217
-0.00440319
-0.00420411
-0.00513366
-0.0063278
-0.00670884
-0.00655758
-0.00666835
-0.00248413
-0.00358476
-0.00411972
-0.00314242
-0.00324874
-0.00400665
-0.00382574
-0.0037814
-0.00446534
-0.00451151
-0.00410504
-0.00444052
-0.00501057
-0.00484013
-0.00466163
-0.0054283
-0.00659496
-0.00714365
-0.00712034
-0.00715699
-0.0026408
-0.00360141
-0.00420871
-0.00338214
-0.00334925
-0.00407279
-0.00400906
-0.00392243
-0.00455031
-0.00475283
-0.00446036
-0.00470888
-0.0052612
-0.00525084
-0.00512621
-0.00575789
-0.00685963
-0.00753837
-0.00765817
-0.00766388
-0.00280178
-0.00363116
-0.0042831
-0.00361804
-0.00348313
-0.00414781
-0.00419129
-0.00408657
-0.00464509
-0.00497594
-0.00481655
-0.00501027
-0.00552217
-0.0056373
-0.0055859
-0.00611908
-0.00713988
-0.00789635
-0.00815169
-0.00817635
-0.00296601
-0.00367522
-0.00434638
-0.00384552
-0.00364727
-0.00423677
-0.00437348
-0.00427254
-0.00475589
-0.00518318
-0.00516471
-0.00533774
-0.0057996
-0.00600487
-0.00603373
-0.00650107
-0.00744205
-0.00823078
-0.00859585
-0.00868251
-0.00313253
-0.00373378
-0.00440418
-0.0040619
-0.00383507
-0.00434288
-0.00455785
-0.00448043
-0.00488805
-0.00537704
-0.00549574
-0.00568164
-0.00609884
-0.00636337
-0.00646889
-0.00689102
-0.007759
-0.00855877
-0.00899301
-0.00915966
-0.0033005
-0.00380728
-0.00446062
-0.0042653
-0.00403982
-0.00446865
-0.00474694
-0.00470931
-0.00504468
-0.00556028
-0.00580558
-0.00603455
-0.00642074
-0.00671795
-0.00689152
-0.0072845
-0.00807982
-0.00888798
-0.00936596
-0.00959718
-0.00346929
-0.00389518
-0.00451955
-0.00445634
-0.00425598
-0.00461312
-0.00494033
-0.00495735
-0.0052308
-0.00573996
-0.00609253
-0.00638527
-0.00676046
-0.00707554
-0.00730287
-0.00768192
-0.00840152
-0.00920989
-0.00973046
-0.00999482
-0.00363858
-0.00399653
-0.00458503
-0.00463693
-0.00447951
-0.00477491
-0.00513675
-0.00522141
-0.00544936
-0.00592432
-0.0063563
-0.00672452
-0.00711251
-0.00744182
-0.007705
-0.00807963
-0.00872948
-0.00951585
-0.0100849
-0.0103728
-0.00380821
-0.00411042
-0.00465987
-0.0048093
-0.00470809
-0.00495298
-0.00533399
-0.00549394
-0.00569887
-0.00612429
-0.00660188
-0.00704664
-0.00746757
-0.00781479
-0.00810367
-0.0084764
-0.00906929
-0.00980931
-0.010417
-0.010741
-0.0039782
-0.00423591
-0.00474614
-0.00497524
-0.00493926
-0.00514689
-0.00553139
-0.00576671
-0.00597538
-0.00634875
-0.00683789
-0.0073483
-0.00781594
-0.00819088
-0.0085025
-0.00887147
-0.00941934
-0.0101014
-0.0107206
-0.0110934
-0.00414873
-0.00437207
-0.00484514
-0.0051366
-0.00517049
-0.00535611
-0.00573145
-0.00603213
-0.00627144
-0.00660267
-0.00707459
-0.00763061
-0.00815139
-0.00856443
-0.0089003
-0.00926423
-0.00977624
-0.0104045
-0.0110057
-0.0114205
-0.00432011
-0.00451787
-0.00495735
-0.00529558
-0.00539976
-0.00557843
-0.00593703
-0.00628785
-0.00657535
-0.00688525
-0.00732413
-0.00789759
-0.00846725
-0.00892769
-0.00929533
-0.00965571
-0.010136
-0.0107214
-0.0112859
-0.0117181
-0.00449271
-0.00467218
-0.00508262
-0.00545447
-0.00562542
-0.00581063
-0.00615131
-0.006536
-0.00687577
-0.00718866
-0.00759534
-0.00815951
-0.00876169
-0.00927106
-0.00968335
-0.0100483
-0.0104953
-0.011046
-0.0115725
-0.011996
-0.00466677
-0.00483389
-0.00522049
-0.00561504
-0.00584673
-0.00604951
-0.00637586
-0.00677986
-0.00716735
-0.0075022
-0.00788667
-0.0084279
-0.00904204
-0.00958907
-0.010053
-0.0104405
-0.0108545
-0.0113718
-0.0118693
-0.0122682
-0.00484246
-0.00500186
-0.00537014
-0.00577876
-0.00606359
-0.00629198
-0.00661021
-0.00702244
-0.00744817
-0.00781638
-0.00819338
-0.00870617
-0.00931685
-0.00988624
-0.010393
-0.0108235
-0.0112173
-0.0116954
-0.0121725
-0.0125439
-0.00501998
-0.00517491
-0.0055304
-0.00594678
-0.00627594
-0.00653519
-0.0068527
-0.00726708
-0.00771852
-0.0081222
-0.00851001
-0.00899577
-0.00958968
-0.0101712
-0.0107034
-0.0111819
-0.0115813
-0.0120167
-0.0124751
-0.0128265
-0.00519942
-0.00535194
-0.00569957
-0.00612018
-0.00648438
-0.00677609
-0.00710026
-0.00751621
-0.00798204
-0.00841431
-0.00882594
-0.00929645
-0.00986244
-0.0104471
-0.0109932
-0.0115056
-0.0119342
-0.0123383
-0.0127715
-0.0131136
-0.00538071
-0.00553186
-0.00587566
-0.00629916
-0.00669003
-0.00701304
-0.00734954
-0.007768
-0.00824133
-0.00869415
-0.00913014
-0.00960104
-0.010141
-0.0107139
-0.0112678
-0.0117978
-0.0122603
-0.0126551
-0.0130574
-0.0133947
-0.00556369
-0.00571392
-0.00605654
-0.0064831
-0.00689301
-0.00724492
-0.00759881
-0.00802048
-0.00849608
-0.00896409
-0.00941806
-0.00989672
-0.0104246
-0.0109779
-0.0115304
-0.0120685
-0.0125556
-0.0129596
-0.0133333
-0.0136587
-0.00574768
-0.00589698
-0.00624036
-0.00667141
-0.00709403
-0.00746958
-0.00784482
-0.00827282
-0.00874616
-0.0092251
-0.00969283
-0.0101727
-0.010698
-0.011237
-0.0117797
-0.0123222
-0.012825
-0.013249
-0.0136088
-0.0139156
-0.00593215
-0.00608065
-0.0064244
-0.00686159
-0.0072945
-0.00768756
-0.00808315
-0.00852195
-0.00899212
-0.00947584
-0.00995688
-0.0104347
-0.010951
-0.0114804
-0.0120079
-0.0125468
-0.0130605
-0.0135065
-0.0138729
-0.0141704
-0.00611533
-0.00626376
-0.00660813
-0.00705071
-0.0074919
-0.00790001
-0.00831361
-0.00876309
-0.0092346
-0.00971624
-0.0102043
-0.0106854
-0.0111884
-0.0117058
-0.0122159
-0.0127382
-0.0132528
-0.0137125
-0.0140936
-0.0143961
-0.00629637
-0.00644483
-0.00678998
-0.00723757
-0.00768442
-0.00810407
-0.00853488
-0.00899332
-0.00946932
-0.00995038
-0.0104351
-0.0109186
-0.0114101
-0.0119113
-0.0124055
-0.0129056
-0.0134087
-0.0138674
-0.0142511
-0.0145499
-0.00647456
-0.00662337
-0.00696723
-0.00741846
-0.00787127
-0.00829972
-0.00874628
-0.00921279
-0.00969022
-0.0101719
-0.0106495
-0.0111262
-0.0116098
-0.0120947
-0.0125755
-0.0130591
-0.0135537
-0.0140166
-0.0144042
-0.0146892
-0.00664603
-0.00679658
-0.00714108
-0.00759164
-0.00804725
-0.0084835
-0.00894535
-0.00942736
-0.00990843
-0.0103801
-0.0108322
-0.0112612
-0.0116982
-0.0121541
-0.0126088
-0.013076
-0.0135784
-0.0140958
-0.0145782
-0.0149772
-0.00681082
-0.00696133
-0.00730563
-0.00775546
-0.00820996
-0.00864964
-0.0091268
-0.00964278
-0.0101842
-0.0107139
-0.0111896
-0.0115739
-0.0118971
-0.0122556
-0.0126328
-0.0129732
-0.0132797
-0.0135415
-0.0137584
-0.0139543
-0.00697562
-0.0071202
-0.00744859
-0.00789
-0.00834165
-0.00878389
-0.00926219
-0.00975004
-0.0102428
-0.0107093
-0.0111276
-0.0115394
-0.0119365
-0.0123494
-0.0127934
-0.01325
-0.0137488
-0.0142811
-0.0148116
-0.015275
-0.00714043
-0.00730036
-0.0075969
-0.00799688
-0.00842466
-0.00886286
-0.00934973
-0.00985136
-0.0103546
-0.0108587
-0.011307
-0.0117253
-0.0121369
-0.0125104
-0.0128502
-0.0131368
-0.0133765
-0.0135903
-0.0138042
-0.0140598
-0.0072326
-0.0074017
-0.00772701
-0.00815044
-0.00858257
-0.00900557
-0.00947719
-0.00997061
-0.0104624
-0.0109542
-0.0114006
-0.0117922
-0.0121716
-0.0125325
-0.0128728
-0.0132003
-0.0135241
-0.0138571
-0.0142081
-0.0145923
0.0227767
0.0120762
-0.000600066
-0.00835635
-0.0109452
-0.0109287
-0.010361
-0.0101471
-0.0104866
-0.0112917
-0.0125041
-0.0138716
-0.014871
-0.0155922
-0.0165625
-0.0176994
-0.018904
-0.0202624
-0.0212395
-0.021495
-0.021596
-0.0218769
-0.0220459
-0.0221594
-0.0225961
-0.0233338
-0.024166
-0.0249158
-0.0255103
-0.0260675
-0.0266209
-0.0272293
-0.0282659
-0.0301398
-0.0323177
-0.0334491
-0.0332783
-0.0330306
-0.0334689
-0.034391
-0.035504
-0.0365541
-0.0373328
-0.0379733
-0.038724
-0.03966
-0.0407199
-0.0418809
-0.0430058
-0.043871
-0.0446071
-0.0455114
-0.0465678
-0.0475793
-0.0485467
-0.049509
-0.0505004
-0.0515553
-0.0526539
-0.0537597
-0.0549187
-0.0561034
-0.0572771
-0.0584495
-0.0596608
-0.0608635
-0.0620591
-0.0633179
-0.0645908
-0.0658696
-0.0671851
-0.0685975
-0.0700385
-0.0714283
-0.0728422
-0.0742217
-0.0756346
-0.0771612
-0.0787779
-0.0803636
-0.0819481
-0.0835436
-0.0851557
-0.0868414
-0.0885353
-0.0902917
-0.0920482
-0.0938864
-0.0956999
-0.0976147
-0.0995252
-0.101433
-0.103395
-0.105341
-0.107432
-0.109373
-0.111409
-0.113464
-0.115042
-0.116814
0.02129
0.0119542
-0.000497989
-0.00824425
-0.0108721
-0.0108894
-0.0103371
-0.0101287
-0.0104696
-0.0112754
-0.0124902
-0.013862
-0.0148642
-0.0155862
-0.0165573
-0.0176949
-0.0188997
-0.0202594
-0.021238
-0.0214931
-0.0215933
-0.0218746
-0.0220437
-0.0221566
-0.0225932
-0.0233311
-0.0241636
-0.0249138
-0.0255083
-0.0260657
-0.0266192
-0.0272272
-0.028263
-0.0301372
-0.0323168
-0.0334493
-0.0332778
-0.0330292
-0.0334675
-0.0343898
-0.0355031
-0.0365535
-0.0373323
-0.0379727
-0.0387233
-0.0396593
-0.0407193
-0.0418803
-0.0430054
-0.0438706
-0.0446066
-0.0455109
-0.0465674
-0.0475789
-0.0485464
-0.0495086
-0.0505
-0.051555
-0.0526536
-0.0537594
-0.0549184
-0.0561031
-0.0572768
-0.0584492
-0.0596606
-0.0608633
-0.0620588
-0.0633177
-0.0645906
-0.0658694
-0.0671849
-0.0685973
-0.0700383
-0.0714281
-0.072842
-0.0742216
-0.0756345
-0.077161
-0.0787777
-0.0803635
-0.0819479
-0.0835435
-0.0851556
-0.0868413
-0.0885352
-0.0902916
-0.0920481
-0.0938862
-0.0956998
-0.0976146
-0.0995251
-0.101433
-0.103394
-0.105341
-0.107432
-0.109373
-0.111409
-0.113464
-0.115042
-0.116813
0.0202953
0.0119889
-0.000239115
-0.00801942
-0.0107493
-0.0108364
-0.0103153
-0.0101187
-0.0104634
-0.0112679
-0.0124791
-0.0138491
-0.0148527
-0.0155775
-0.0165514
-0.0176903
-0.0188953
-0.0202568
-0.0212372
-0.021492
-0.0215913
-0.0218729
-0.022042
-0.0221542
-0.0225908
-0.0233291
-0.0241619
-0.0249121
-0.0255067
-0.0260642
-0.0266177
-0.027225
-0.02826
-0.030135
-0.0323171
-0.0334507
-0.0332774
-0.0330273
-0.0334658
-0.0343887
-0.0355024
-0.0365531
-0.0373319
-0.0379721
-0.0387226
-0.0396587
-0.0407187
-0.0418799
-0.0430052
-0.0438705
-0.0446062
-0.0455104
-0.0465671
-0.0475787
-0.0485461
-0.0495084
-0.0504997
-0.0515547
-0.0526533
-0.0537592
-0.0549181
-0.0561029
-0.0572766
-0.058449
-0.0596604
-0.0608631
-0.0620586
-0.0633175
-0.0645904
-0.0658692
-0.0671846
-0.0685971
-0.0700381
-0.0714279
-0.0728419
-0.0742215
-0.0756343
-0.0771609
-0.0787776
-0.0803634
-0.0819478
-0.0835434
-0.0851555
-0.0868412
-0.0885351
-0.0902915
-0.092048
-0.0938862
-0.0956997
-0.0976145
-0.099525
-0.101433
-0.103394
-0.105341
-0.107432
-0.109373
-0.111409
-0.113464
-0.115042
-0.116813
0.0192842
0.0119485
3.41819e-05
-0.00776316
-0.0105989
-0.0107664
-0.0102854
-0.0101076
-0.0104603
-0.0112643
-0.0124682
-0.0138307
-0.0148336
-0.0155638
-0.0165434
-0.0176839
-0.0188885
-0.0202514
-0.0212347
-0.0214903
-0.0215894
-0.021871
-0.02204
-0.0221518
-0.022589
-0.0233279
-0.0241606
-0.0249105
-0.0255048
-0.0260627
-0.0266161
-0.0272222
-0.0282563
-0.0301325
-0.0323181
-0.0334528
-0.0332768
-0.0330247
-0.0334637
-0.0343875
-0.0355017
-0.0365528
-0.0373316
-0.0379714
-0.0387217
-0.0396579
-0.040718
-0.0418795
-0.0430052
-0.0438703
-0.0446056
-0.0455098
-0.0465668
-0.0475784
-0.0485458
-0.0495081
-0.0504994
-0.0515543
-0.052653
-0.0537589
-0.0549179
-0.0561027
-0.0572764
-0.0584488
-0.0596602
-0.0608629
-0.0620584
-0.0633173
-0.0645902
-0.065869
-0.0671844
-0.0685969
-0.070038
-0.0714278
-0.0728418
-0.0742213
-0.0756341
-0.0771607
-0.0787775
-0.0803633
-0.0819477
-0.0835433
-0.0851553
-0.0868411
-0.088535
-0.0902914
-0.0920479
-0.0938861
-0.0956996
-0.0976144
-0.0995249
-0.101433
-0.103394
-0.105341
-0.107432
-0.109373
-0.111409
-0.113464
-0.115042
-0.116813
0.0182076
0.0118223
0.000316739
-0.00748026
-0.0104293
-0.0106859
-0.0102518
-0.0100968
-0.0104592
-0.0112636
-0.0124574
-0.0138064
-0.014806
-0.0155446
-0.016533
-0.017676
-0.0188791
-0.0202423
-0.0212289
-0.0214874
-0.0215866
-0.0218677
-0.0220366
-0.022149
-0.0225877
-0.0233277
-0.02416
-0.0249092
-0.0255033
-0.0260616
-0.0266145
-0.0272188
-0.0282518
-0.0301296
-0.0323193
-0.033455
-0.0332758
-0.0330215
-0.0334612
-0.0343859
-0.0355007
-0.0365524
-0.0373311
-0.0379704
-0.0387206
-0.0396569
-0.0407172
-0.041879
-0.0430052
-0.0438701
-0.0446049
-0.0455091
-0.0465664
-0.0475781
-0.0485454
-0.0495077
-0.050499
-0.051554
-0.0526527
-0.0537586
-0.0549176
-0.0561024
-0.0572762
-0.0584485
-0.05966
-0.0608627
-0.0620581
-0.0633171
-0.06459
-0.0658688
-0.0671841
-0.0685967
-0.0700379
-0.0714276
-0.0728416
-0.0742212
-0.0756339
-0.0771605
-0.0787773
-0.0803632
-0.0819476
-0.0835432
-0.0851552
-0.086841
-0.0885348
-0.0902913
-0.0920478
-0.093886
-0.0956995
-0.0976143
-0.0995249
-0.101433
-0.103394
-0.105341
-0.107432
-0.109373
-0.111409
-0.113464
-0.115042
-0.116813
0.0171083
0.011644
0.000620489
-0.00717114
-0.0102496
-0.0106025
-0.0102191
-0.010088
-0.0104597
-0.0112638
-0.012446
-0.0137784
-0.0147737
-0.0155229
-0.0165221
-0.0176677
-0.0188684
-0.02023
-0.0212204
-0.0214838
-0.0215833
-0.021862
-0.0220305
-0.0221447
-0.0225865
-0.0233281
-0.0241598
-0.0249081
-0.0255027
-0.026062
-0.0266138
-0.0272154
-0.0282467
-0.0301261
-0.0323199
-0.0334568
-0.0332741
-0.0330176
-0.0334583
-0.0343842
-0.0354995
-0.0365515
-0.0373302
-0.0379692
-0.0387191
-0.0396556
-0.0407162
-0.0418785
-0.0430051
-0.0438698
-0.0446041
-0.0455084
-0.046566
-0.0475778
-0.048545
-0.0495073
-0.0504985
-0.0515535
-0.0526523
-0.0537582
-0.0549173
-0.0561022
-0.0572759
-0.0584483
-0.0596597
-0.0608625
-0.0620578
-0.0633168
-0.0645898
-0.0658686
-0.0671838
-0.0685965
-0.0700377
-0.0714274
-0.0728415
-0.074221
-0.0756336
-0.0771602
-0.0787772
-0.0803631
-0.0819474
-0.083543
-0.085155
-0.0868408
-0.0885347
-0.0902912
-0.0920476
-0.0938859
-0.0956994
-0.0976142
-0.0995248
-0.101432
-0.103394
-0.105341
-0.107432
-0.109373
-0.111409
-0.113464
-0.115043
-0.116813
0.0160119
0.0114129
0.000934481
-0.00684608
-0.0100658
-0.010519
-0.0101881
-0.0100811
-0.0104606
-0.0112636
-0.0124336
-0.0137488
-0.0147401
-0.0155012
-0.0165122
-0.0176603
-0.0188576
-0.0202165
-0.0212108
-0.0214808
-0.0215803
-0.0218545
-0.0220213
-0.0221379
-0.0225841
-0.0233283
-0.0241592
-0.0249064
-0.0255026
-0.0260648
-0.0266156
-0.0272131
-0.0282417
-0.0301219
-0.0323195
-0.0334576
-0.0332716
-0.0330131
-0.0334551
-0.0343823
-0.0354979
-0.0365501
-0.037329
-0.0379677
-0.0387173
-0.039654
-0.040715
-0.0418777
-0.0430048
-0.0438693
-0.0446032
-0.0455075
-0.0465655
-0.0475773
-0.0485445
-0.0495068
-0.050498
-0.0515529
-0.0526518
-0.0537578
-0.0549169
-0.0561018
-0.0572756
-0.058448
-0.0596595
-0.0608622
-0.0620575
-0.0633166
-0.0645896
-0.0658683
-0.0671835
-0.0685963
-0.0700376
-0.0714272
-0.0728413
-0.0742209
-0.0756333
-0.0771599
-0.078777
-0.0803629
-0.0819473
-0.0835429
-0.0851548
-0.0868406
-0.0885346
-0.0902911
-0.0920475
-0.0938858
-0.0956993
-0.0976141
-0.0995248
-0.101432
-0.103394
-0.105341
-0.107431
-0.109373
-0.111409
-0.113464
-0.115043
-0.116814
0.0149271
0.0111154
0.00124467
-0.00650782
-0.00987661
-0.0104337
-0.0101572
-0.0100755
-0.0104619
-0.0112629
-0.0124207
-0.013719
-0.0147067
-0.0154805
-0.0165036
-0.0176538
-0.0188474
-0.0202034
-0.021202
-0.0214794
-0.0215789
-0.0218469
-0.02201
-0.0221282
-0.02258
-0.023328
-0.0241578
-0.0249034
-0.0255023
-0.0260696
-0.0266208
-0.0272139
-0.0282386
-0.030118
-0.032318
-0.0334568
-0.0332678
-0.0330079
-0.0334517
-0.0343802
-0.0354957
-0.0365481
-0.0373275
-0.0379661
-0.0387152
-0.0396519
-0.0407133
-0.0418767
-0.0430042
-0.0438685
-0.0446021
-0.0455066
-0.0465647
-0.0475765
-0.0485437
-0.0495062
-0.0504973
-0.0515521
-0.0526512
-0.0537573
-0.0549165
-0.0561014
-0.0572752
-0.0584477
-0.0596592
-0.0608619
-0.0620572
-0.0633163
-0.0645894
-0.065868
-0.0671831
-0.068596
-0.0700375
-0.0714269
-0.0728411
-0.0742207
-0.075633
-0.0771596
-0.0787769
-0.0803628
-0.0819471
-0.0835427
-0.0851546
-0.0868405
-0.0885344
-0.0902909
-0.0920473
-0.0938856
-0.0956991
-0.0976139
-0.0995247
-0.101432
-0.103394
-0.105341
-0.107431
-0.109373
-0.111409
-0.113465
-0.115045
-0.116814
0.0138599
0.0107449
0.00154486
-0.00615427
-0.00967857
-0.0103449
-0.0101257
-0.0100709
-0.0104639
-0.0112626
-0.0124083
-0.0136896
-0.0146737
-0.0154609
-0.0164962
-0.0176481
-0.0188379
-0.0201915
-0.021195
-0.0214801
-0.0215798
-0.0218409
-0.0219986
-0.0221165
-0.022574
-0.023327
-0.024156
-0.0248992
-0.0255013
-0.0260759
-0.0266297
-0.027219
-0.0282392
-0.0301162
-0.0323167
-0.0334547
-0.0332621
-0.0330013
-0.033448
-0.0343781
-0.035493
-0.0365453
-0.0373257
-0.0379646
-0.0387132
-0.0396496
-0.0407114
-0.0418753
-0.0430032
-0.0438673
-0.0446009
-0.0455056
-0.0465638
-0.0475755
-0.0485428
-0.0495055
-0.0504964
-0.0515511
-0.0526504
-0.0537567
-0.0549159
-0.0561008
-0.0572747
-0.0584473
-0.0596588
-0.0608615
-0.0620568
-0.0633159
-0.0645891
-0.0658677
-0.0671827
-0.0685957
-0.0700373
-0.0714266
-0.0728408
-0.0742205
-0.0756327
-0.0771593
-0.0787767
-0.0803626
-0.0819469
-0.0835425
-0.0851544
-0.0868402
-0.0885342
-0.0902907
-0.0920471
-0.0938854
-0.0956989
-0.0976138
-0.0995246
-0.101432
-0.103394
-0.105341
-0.107431
-0.109373
-0.111409
-0.113465
-0.115046
-0.116815
0.0128227
0.010304
0.00182855
-0.00578585
-0.00946974
-0.0102519
-0.0100929
-0.0100676
-0.0104677
-0.0112634
-0.0123969
-0.0136609
-0.0146413
-0.0154423
-0.0164901
-0.0176432
-0.0188291
-0.0201811
-0.0211901
-0.0214828
-0.0215828
-0.0218374
-0.0219891
-0.0221046
-0.0225665
-0.0233256
-0.0241542
-0.0248947
-0.0254998
-0.0260837
-0.0266429
-0.027229
-0.0282443
-0.0301182
-0.0323178
-0.0334525
-0.0332542
-0.0329926
-0.0334435
-0.0343762
-0.03549
-0.0365416
-0.0373233
-0.0379631
-0.0387114
-0.0396476
-0.0407095
-0.0418735
-0.0430015
-0.0438656
-0.0445995
-0.0455045
-0.0465628
-0.0475741
-0.0485415
-0.0495046
-0.0504954
-0.05155
-0.0526493
-0.0537559
-0.054915
-0.0560999
-0.057274
-0.0584468