/*--------------------------------*- C++ -*----------------------------------*\
| =========                 |                                                 |
| \\      /  F ield         | OpenFOAM: The Open Source CFD Toolbox           |
|  \\    /   O peration     | Version:  v1912                                 |
|   \\  /    A nd           | Website:  www.openfoam.com                      |
|    \\/     M anipulation  |                                                 |
\*---------------------------------------------------------------------------*/
FoamFile
{
    version     2.0;
    format      ascii;
    class       surfaceScalarField;
    location    "6.5";
    object      phi;
}
// * * * * * * * * * * * * * * * * * * * * * * * * * * * * * * * * * * * * * //

dimensions      [0 3 -1 0 0 0 0];
oriented        oriented;


internalField   nonuniform List<scalar> 
19000
(
1.18952e-06
1.16526e-06
1.13751e-06
-1.9772e-06
1.15821e-06
3.00564e-07
1.15981e-06
6.76348e-07
1.18344e-06
8.6896e-07
1.03094e-06
-7.56703e-07
1.12571e-06
-2.2688e-07
1.16972e-06
4.15026e-07
1.11125e-06
-1.22763e-06
1.19974e-06
3.81566e-07
1.18001e-06
1.22145e-07
1.20094e-06
9.15344e-07
1.20827e-06
1.01173e-06
1.20442e-06
3.941e-07
1.21852e-06
1.00401e-06
1.16434e-06
1.7769e-07
1.17651e-06
8.01027e-07
1.12012e-06
1.16991e-07
1.1246e-06
3.77616e-07
-2.33529e-07
1.03764e-06
1.24274e-06
1.14678e-06
1.18998e-06
-1.92444e-06
1.20915e-06
2.81386e-07
1.21662e-06
6.68879e-07
1.23623e-06
8.49349e-07
1.08254e-06
-6.03009e-07
1.17617e-06
-3.2051e-07
1.2322e-06
3.59001e-07
1.18178e-06
-1.17722e-06
1.26687e-06
2.96472e-07
1.24437e-06
1.44647e-07
1.26309e-06
8.96622e-07
1.26649e-06
1.00833e-06
1.26818e-06
3.92411e-07
1.27025e-06
1.00195e-06
1.23372e-06
2.1422e-07
1.22087e-06
8.13872e-07
1.19688e-06
1.40989e-07
1.16947e-06
4.05019e-07
-2.00221e-07
1.13616e-06
1.29813e-06
1.13143e-06
1.24597e-06
-1.87228e-06
1.26322e-06
2.64142e-07
1.27515e-06
6.5695e-07
1.29145e-06
8.33041e-07
1.14895e-06
-4.60509e-07
1.22515e-06
-3.96709e-07
1.29767e-06
2.86485e-07
1.25601e-06
-1.13556e-06
1.33462e-06
2.17855e-07
1.31497e-06
1.64301e-07
1.3354e-06
8.76191e-07
1.33461e-06
1.00912e-06
1.3351e-06
3.9192e-07
1.33723e-06
9.99816e-07
1.30578e-06
2.45673e-07
1.29363e-06
8.26025e-07
1.27211e-06
1.62506e-07
1.25649e-06
4.20639e-07
-1.63397e-07
1.21967e-06
1.35558e-06
1.11995e-06
1.30647e-06
-1.82317e-06
1.32044e-06
2.50176e-07
1.33629e-06
6.41099e-07
1.34933e-06
8.19996e-07
1.22917e-06
-3.40348e-07
1.27551e-06
-4.43049e-07
1.35999e-06
2.02008e-07
1.32955e-06
-1.10512e-06
1.39278e-06
1.54622e-07
1.38487e-06
1.72217e-07
1.40614e-06
8.54924e-07
1.40618e-06
1.00907e-06
1.40066e-06
3.97441e-07
1.40342e-06
9.97056e-07
1.3738e-06
2.75295e-07
1.36274e-06
8.37079e-07
1.33823e-06
1.87014e-07
1.32903e-06
4.29839e-07
-1.21462e-07
1.2871e-06
1.41566e-06
1.11265e-06
1.3709e-06
-1.77841e-06
1.38273e-06
2.38346e-07
1.40069e-06
6.23136e-07
1.41033e-06
8.1036e-07
1.31804e-06
-2.48064e-07
1.32978e-06
-4.54783e-07
1.41541e-06
1.16379e-07
1.39823e-06
-1.08794e-06
1.44122e-06
1.11626e-07
1.44812e-06
1.65318e-07
1.47084e-06
8.32204e-07
1.47387e-06
1.00604e-06
1.46251e-06
4.08807e-07
1.46357e-06
9.95991e-07
1.43424e-06
3.04634e-07
1.42638e-06
8.44935e-07
1.40164e-06
2.11757e-07
1.39954e-06
4.3194e-07
-8.09952e-08
1.35907e-06
1.47899e-06
1.10933e-06
1.43822e-06
-1.73764e-06
1.45092e-06
2.25654e-07
1.4685e-06
6.05554e-07
1.47484e-06
8.04015e-07
1.40958e-06
-1.82807e-07
1.3921e-06
-4.37304e-07
1.46808e-06
4.04019e-08
1.46322e-06
-1.08307e-06
1.48988e-06
8.49624e-08
1.50653e-06
1.48675e-07
1.53032e-06
8.08415e-07
1.53764e-06
9.98718e-07
1.52326e-06
4.23185e-07
1.52187e-06
9.97385e-07
1.49329e-06
3.33214e-07
1.4901e-06
8.4812e-07
1.46849e-06
2.33371e-07
1.47359e-06
4.26835e-07
-4.35561e-08
1.43615e-06
1.54622e-06
1.10933e-06
1.50774e-06
-1.69916e-06
1.52445e-06
2.08938e-07
1.53965e-06
5.90359e-07
1.54286e-06
8.00804e-07
1.50077e-06
-1.40722e-07
1.46617e-06
-4.02704e-07
1.5255e-06
-1.89255e-08
1.52763e-06
-1.08521e-06
1.54691e-06
6.56868e-08
1.56686e-06
1.28724e-07
1.59021e-06
7.85071e-07
1.60239e-06
9.86529e-07
1.58807e-06
4.37509e-07
1.58524e-06
1.00022e-06
1.5581e-06
3.60349e-07
1.56003e-06
8.46192e-07
1.54193e-06
2.51473e-07
1.55313e-06
4.15638e-07
-8.50716e-09
1.51808e-06
1.61783e-06
1.11163e-06
1.57957e-06
-1.6609e-06
1.60217e-06
1.86335e-07
1.61442e-06
5.78109e-07
1.61424e-06
8.00987e-07
1.59142e-06
-1.17909e-07
1.55297e-06
-3.64246e-07
1.59248e-06
-5.84411e-08
1.59342e-06
-1.08614e-06
1.61299e-06
4.61164e-08
1.63417e-06
1.07543e-07
1.6572e-06
7.62039e-07
1.6736e-06
9.70132e-07
1.66094e-06
4.50165e-07
1.65776e-06
1.0034e-06
1.63197e-06
3.86134e-07
1.63829e-06
8.39878e-07
1.62213e-06
2.67628e-07
1.63765e-06
4.00115e-07
2.52112e-08
1.60394e-06
1.6941e-06
1.1151e-06
1.65471e-06
-1.62151e-06
1.68342e-06
1.57626e-07
1.69365e-06
5.67881e-07
1.68932e-06
8.05312e-07
1.68233e-06
-1.10913e-07
1.65044e-06
-3.32357e-07
1.66983e-06
-7.78304e-08
1.6617e-06
-1.07801e-06
1.68457e-06
2.3242e-08
1.7088e-06
8.33114e-08
1.73446e-06
7.36379e-07
1.75383e-06
9.50763e-07
1.74276e-06
4.61232e-07
1.73949e-06
1.00668e-06
1.71422e-06
4.11399e-07
1.72389e-06
8.30214e-07
1.70779e-06
2.83723e-07
1.72599e-06
3.81917e-07
5.81843e-08
1.69302e-06
1.77519e-06
1.11863e-06
1.73456e-06
-1.58087e-06
1.7684e-06
1.23785e-07
1.77833e-06
5.57954e-07
1.76907e-06
8.14568e-07
1.77405e-06
-1.15889e-07
1.75464e-06
-3.12951e-07
1.75591e-06
-7.90998e-08
1.73394e-06
-1.05604e-06
1.75898e-06
-1.80257e-09
1.78821e-06
5.40793e-08
1.82025e-06
7.04339e-07
1.84159e-06
9.29431e-07
1.83131e-06
4.71506e-07
1.82795e-06
1.01004e-06
1.80243e-06
4.36916e-07
1.8148e-06
8.1784e-07
1.79745e-06
3.01072e-07
1.81689e-06
3.6248e-07
9.04014e-08
1.78467e-06
1.86119e-06
1.12119e-06
1.82024e-06
-1.53992e-06
1.85751e-06
8.65169e-08
1.86884e-06
5.46624e-07
1.85452e-06
8.28879e-07
1.86678e-06
-1.28147e-07
1.86122e-06
-3.07384e-07
1.84837e-06
-6.62562e-08
1.81194e-06
-1.01961e-06
1.83631e-06
-2.61762e-08
1.86994e-06
2.04572e-08
1.90999e-06
6.64289e-07
1.93268e-06
9.06731e-07
1.92284e-06
4.81352e-07
1.92005e-06
1.01283e-06
1.89432e-06
4.62651e-07
1.90938e-06
8.02775e-07
1.89025e-06
3.20202e-07
1.90952e-06
3.43206e-07
1.21464e-07
1.87846e-06
1.95214e-06
1.12188e-06
1.91218e-06
-1.49995e-06
1.95062e-06
4.80765e-08
1.96449e-06
5.32748e-07
1.94622e-06
8.4715e-07
1.96081e-06
-1.42731e-07
1.96683e-06
-3.13411e-07
1.94509e-06
-4.45178e-08
1.89704e-06
-9.71549e-07
1.91843e-06
-4.75691e-08
1.95327e-06
-1.43869e-08
1.99955e-06
6.18014e-07
2.02325e-06
8.83034e-07
2.01444e-06
4.90158e-07
2.01383e-06
1.01344e-06
1.98872e-06
4.87761e-07
2.00676e-06
7.84741e-07
1.98595e-06
3.41012e-07
2.00363e-06
3.2552e-07
1.50863e-07
1.97423e-06
2.04805e-06
1.12002e-06
2.01011e-06
-1.462e-06
2.04707e-06
1.11174e-08
2.06382e-06
5.15997e-07
2.04394e-06
8.67028e-07
2.05674e-06
-1.55533e-07
2.07008e-06
-3.26746e-07
2.04463e-06
-1.90762e-08
1.98955e-06
-9.16465e-07
2.00723e-06
-6.52499e-08
2.0394e-06
-4.65571e-08
2.08781e-06
5.69603e-07
2.11217e-06
8.58674e-07
2.10573e-06
4.96604e-07
2.10925e-06
1.00992e-06
2.08573e-06
5.11279e-07
2.1067e-06
7.63772e-07
2.08463e-06
3.6308e-07
2.09938e-06
3.10769e-07
1.78094e-07
2.07215e-06
2.14887e-06
1.11515e-06
2.11338e-06
-1.42652e-06
2.1462e-06
-2.17043e-08
2.16531e-06
4.96883e-07
2.14693e-06
8.85417e-07
2.15552e-06
-1.64132e-07
2.17145e-06
-3.42676e-07
2.14644e-06
5.93486e-09
2.08899e-06
-8.59009e-07
2.10349e-06
-7.97573e-08
2.13024e-06
-7.33069e-08
2.17676e-06
5.2309e-07
2.20136e-06
8.34075e-07
2.19848e-06
4.99481e-07
2.20756e-06
1.00084e-06
2.18598e-06
5.3286e-07
2.20913e-06
7.40619e-07
2.18634e-06
3.85877e-07
2.19712e-06
2.99988e-07
2.02636e-07
2.17258e-06
2.2545e-06
1.10715e-06
2.22134e-06
-1.39335e-06
2.24792e-06
-4.82892e-08
2.26822e-06
4.76589e-07
2.25435e-06
8.99282e-07
2.25813e-06
-1.67909e-07
2.27267e-06
-3.57217e-07
2.25083e-06
2.77777e-08
2.19462e-06
-8.02799e-07
2.20664e-06
-9.17815e-08
2.22699e-06
-9.36531e-08
2.26936e-06
4.80717e-07
2.29366e-06
8.09771e-07
2.29469e-06
4.98456e-07
2.30974e-06
9.8579e-07
2.2897e-06
5.52896e-07
2.31376e-06
7.16554e-07
2.2909e-06
4.08742e-07
2.29721e-06
2.93676e-07
2.23853e-07
2.27599e-06
2.36489e-06
1.09613e-06
2.33356e-06
-1.36202e-06
2.3528e-06
-6.75386e-08
2.37279e-06
4.56608e-07
2.36569e-06
9.06375e-07
2.36535e-06
-1.67566e-07
2.37576e-06
-3.67624e-07
2.3586e-06
4.49324e-08
2.30588e-06
-7.50083e-07
2.31537e-06
-1.01271e-07
2.32942e-06
-1.07704e-07
2.36725e-06
4.42889e-07
2.39067e-06
7.86356e-07
2.39484e-06
4.94287e-07
2.41531e-06
9.65314e-07
2.39628e-06
5.71926e-07
2.42011e-06
6.92731e-07
2.39816e-06
4.30691e-07
2.40013e-06
2.91702e-07
2.40997e-07
2.38299e-06
2.48005e-06
1.08247e-06
2.44992e-06
-1.33188e-06
2.46185e-06
-7.94763e-08
2.48014e-06
4.38323e-07
2.48087e-06
9.05641e-07
2.47772e-06
-1.64415e-07
2.48257e-06
-3.72468e-07
2.47065e-06
5.68502e-08
2.42248e-06
-7.01913e-07
2.42864e-06
-1.07433e-07
2.43664e-06
-1.15704e-07
2.47027e-06
4.09258e-07
2.49223e-06
7.64394e-07
2.49807e-06
4.88452e-07
2.52299e-06
9.40391e-07
2.50498e-06
5.89945e-07
2.52807e-06
6.69632e-07
2.50837e-06
4.50399e-07
2.50671e-06
2.93353e-07
2.53467e-07
2.49424e-06
2.60012e-06
1.06665e-06
2.57056e-06
-1.30232e-06
2.57613e-06
-8.50468e-08
2.59178e-06
4.22675e-07
2.60018e-06
8.97243e-07
2.59555e-06
-1.59784e-07
2.59463e-06
-3.71548e-07
2.58765e-06
6.38251e-08
2.54422e-06
-6.58478e-07
2.5462e-06
-1.09412e-07
2.54816e-06
-1.17671e-07
2.57778e-06
3.7964e-07
2.59787e-06
7.44304e-07
2.60383e-06
4.82497e-07
2.63217e-06
9.12043e-07
2.61591e-06
6.06206e-07
2.63849e-06
6.47056e-07
2.6224e-06
4.66486e-07
2.61824e-06
2.97518e-07
2.61195e-07
2.61051e-06
2.72532e-06
1.04916e-06
2.69584e-06
-1.27285e-06
2.69653e-06
-8.57322e-08
2.70915e-06
4.10053e-07
2.72414e-06
8.82253e-07
2.71901e-06
-1.54653e-07
2.71313e-06
-3.65671e-07
2.71012e-06
6.68411e-08
2.67101e-06
-6.19368e-07
2.66852e-06
-1.0692e-07
2.66449e-06
-1.1365e-07
2.69002e-06
3.54111e-07
2.70812e-06
7.26207e-07
2.71308e-06
4.77536e-07
2.74399e-06
8.81135e-07
2.73051e-06
6.19682e-07
2.75303e-06
6.24537e-07
2.74157e-06
4.77952e-07
2.73588e-06
3.032e-07
2.64636e-07
2.73244e-06
2.85598e-06
1.03044e-06
2.82623e-06
-1.2431e-06
2.82365e-06
-8.31522e-08
2.83331e-06
4.00391e-07
2.85338e-06
8.62185e-07
2.84827e-06
-1.49545e-07
2.83888e-06
-3.56282e-07
2.83845e-06
6.72755e-08
2.80289e-06
-5.83811e-07
2.79638e-06
-1.00403e-07
2.78679e-06
-1.0406e-07
2.80829e-06
3.32608e-07
2.82464e-06
7.09853e-07
2.82812e-06
4.74061e-07
2.86088e-06
8.4837e-07
2.85091e-06
6.29655e-07
2.8736e-06
6.01845e-07
2.86714e-06
4.84414e-07
2.86057e-06
3.09767e-07
2.64681e-07
2.86053e-06
2.9925e-06
1.01084e-06
2.96222e-06
-1.21282e-06
2.95784e-06
-7.87663e-08
2.96485e-06
3.93377e-07
2.9885e-06
8.38535e-07
2.98355e-06
-1.44593e-07
2.97225e-06
-3.44986e-07
2.97302e-06
6.65112e-08
2.94011e-06
-5.50905e-07
2.93048e-06
-9.0772e-08
2.91618e-06
-8.97611e-08
2.93412e-06
3.14672e-07
2.94927e-06
6.94702e-07
2.95126e-06
4.72069e-07
2.98534e-06
8.14294e-07
2.979e-06
6.35996e-07
3.00162e-06
5.79217e-07
2.99999e-06
4.86046e-07
2.99286e-06
3.16898e-07
2.62485e-07
2.99506e-06
3.13527e-06
9.90577e-07
3.1043e-06
-1.18185e-06
3.09925e-06
-7.37168e-08
3.10399e-06
3.88634e-07
3.13004e-06
8.12489e-07
3.12512e-06
-1.39675e-07
3.11325e-06
-3.3312e-07
3.11416e-06
6.56074e-08
3.08308e-06
-5.19826e-07
3.07134e-06
-7.90317e-08
3.05341e-06
-7.18313e-08
3.06853e-06
2.99545e-07
3.08311e-06
6.80129e-07
3.08385e-06
4.71323e-07
3.11881e-06
7.79334e-07
3.11578e-06
6.39025e-07
3.13774e-06
5.57265e-07
3.14044e-06
4.83345e-07
3.13296e-06
3.24373e-07
2.59264e-07
3.13618e-06
3.28471e-06
9.69775e-07
3.25288e-06
-1.15002e-06
3.24796e-06
-6.87963e-08
3.25079e-06
3.85812e-07
3.27846e-06
7.84811e-07
3.27333e-06
-1.3454e-07
3.26173e-06
-3.21525e-07
3.26219e-06
6.51558e-08
3.23231e-06
-4.89955e-07
3.21932e-06
-6.60331e-08
3.19877e-06
-5.12881e-08
3.21186e-06
2.86454e-07
3.22639e-06
6.65598e-07
3.22612e-06
4.71594e-07
3.26161e-06
7.43843e-07
3.26144e-06
6.39197e-07
3.28197e-06
5.36733e-07
3.28842e-06
4.76903e-07
3.28091e-06
3.31876e-07
2.56149e-07
3.28403e-06
3.44123e-06
9.48473e-07
3.40837e-06
-1.11716e-06
3.40406e-06
-6.44887e-08
3.40528e-06
3.84594e-07
3.43421e-06
7.55882e-07
3.42856e-06
-1.28885e-07
3.41756e-06
-3.10525e-07
3.41734e-06
6.53713e-08
3.38834e-06
-4.60958e-07
3.37473e-06
-5.24232e-08
3.35237e-06
-2.89296e-08
3.36401e-06
2.7482e-07
3.37886e-06
6.50745e-07
3.37768e-06
4.7277e-07
3.41336e-06
7.08166e-07
3.41569e-06
6.36867e-07
3.43414e-06
5.18287e-07
3.4438e-06
4.67239e-07
3.43672e-06
3.38956e-07
2.5407e-07
3.4388e-06
3.60524e-06
9.26643e-07
3.57115e-06
-1.08307e-06
3.5677e-06
-6.10345e-08
3.56762e-06
3.84677e-07
3.59769e-06
7.25807e-07
3.59119e-06
-1.22386e-07
3.58071e-06
-3.00043e-07
3.57987e-06
6.62169e-08
3.55163e-06
-4.32722e-07
3.53792e-06
-3.87141e-08
3.51431e-06
-5.322e-09
3.52482e-06
2.64311e-07
3.5402e-06
6.35368e-07
3.53812e-06
4.74848e-07
3.57359e-06
6.72701e-07
3.57827e-06
6.32187e-07
3.59415e-06
5.02407e-07
3.60653e-06
4.5486e-07
3.60045e-06
3.45037e-07
2.53579e-07
3.60094e-06
3.77713e-06
9.04215e-07
3.74164e-06
-1.04758e-06
3.7391e-06
-5.84967e-08
3.73803e-06
3.85745e-07
3.7693e-06
6.94534e-07
3.76164e-06
-1.14724e-07
3.75136e-06
-2.89764e-07
3.75005e-06
6.75338e-08
3.72255e-06
-4.05228e-07
3.70921e-06
-2.53683e-08
3.68477e-06
1.91176e-08
3.69428e-06
2.54796e-07
3.7103e-06
6.19353e-07
3.70731e-06
4.77833e-07
3.74208e-06
6.37931e-07
3.74915e-06
6.25116e-07
3.76226e-06
4.89299e-07
3.77669e-06
4.40429e-07
3.77232e-06
3.49407e-07
2.54916e-07
3.77098e-06
3.9573e-06
8.81101e-07
3.92024e-06
-1.01052e-06
3.91857e-06
-5.68245e-08
3.91684e-06
3.87474e-07
3.94941e-06
6.61965e-07
3.9403e-06
-1.05617e-07
3.92983e-06
-2.79286e-07
3.92823e-06
6.9126e-08
3.90142e-06
-3.78413e-07
3.8889e-06
-1.28501e-08
3.86397e-06
4.40439e-08
3.87251e-06
2.46255e-07
3.88926e-06
6.02607e-07
3.88544e-06
4.81658e-07
3.91896e-06
6.04406e-07
3.92858e-06
6.15496e-07
3.93898e-06
4.78896e-07
3.95462e-06
4.24798e-07
3.95269e-06
3.51331e-07
2.57972e-07
3.94964e-06
4.14613e-06
8.57226e-07
4.10741e-06
-9.71798e-07
4.1065e-06
-5.59173e-08
4.10442e-06
3.89554e-07
4.13834e-06
6.28044e-07
4.1276e-06
-9.48737e-08
4.11654e-06
-2.68231e-07
4.11485e-06
7.08116e-08
4.08851e-06
-3.52065e-07
4.0773e-06
-1.64388e-09
4.05222e-06
6.91256e-08
4.05974e-06
2.38737e-07
4.07735e-06
5.84994e-07
4.0729e-06
4.86111e-07
4.10461e-06
5.72693e-07
4.11698e-06
6.0313e-07
4.12499e-06
4.70884e-07
4.14085e-06
4.0894e-07
4.14195e-06
3.50225e-07
2.6231e-07
4.13761e-06
4.34399e-06
8.32543e-07
4.30357e-06
-9.31383e-07
4.30333e-06
-5.5681e-08
4.30117e-06
3.91719e-07
4.33639e-06
5.92824e-07
4.32396e-06
-8.24443e-08
4.31202e-06
-2.56289e-07
4.31043e-06
7.24039e-08
4.28414e-06
-3.25783e-07
4.27468e-06
7.82104e-09
4.24981e-06
9.39941e-08
4.25621e-06
2.32333e-07
4.27488e-06
5.66332e-07
4.27018e-06
4.90807e-07
4.29954e-06
5.43335e-07
4.31479e-06
5.87876e-07
4.32098e-06
4.64693e-07
4.33603e-06
3.93895e-07
4.34044e-06
3.45811e-07
2.67162e-07
4.33559e-06
4.55127e-06
8.07043e-07
4.50918e-06
-8.89291e-07
4.50957e-06
-5.60714e-08
4.50752e-06
3.93774e-07
4.54385e-06
5.5649e-07
4.52987e-06
-6.84614e-08
4.51679e-06
-2.43215e-07
4.51553e-06
7.36716e-08
4.48879e-06
-2.99049e-07
4.4813e-06
1.53133e-08
4.45709e-06
1.18201e-07
4.46225e-06
2.27181e-07
4.48214e-06
5.46439e-07
4.47774e-06
4.95203e-07
4.50428e-06
5.16798e-07
4.5224e-06
5.6976e-07
4.52752e-06
4.59569e-07
4.54085e-06
3.80568e-07
4.54838e-06
3.38277e-07
2.71476e-07
4.54407e-06
4.76841e-06
7.80746e-07
4.72471e-06
-8.45593e-07
4.72575e-06
-5.7105e-08
4.7239e-06
3.95625e-07
4.76103e-06
5.19358e-07
4.74581e-06
-5.32443e-08
4.73139e-06
-2.28789e-07
4.73078e-06
7.4275e-08
4.70306e-06
-2.71328e-07
4.69748e-06
2.08987e-08
4.67446e-06
1.41215e-07
4.67817e-06
2.23475e-07
4.69941e-06
5.25197e-07
4.69594e-06
4.98671e-07
4.71929e-06
4.93447e-07
4.74005e-06
5.49001e-07
4.74494e-06
4.54678e-07
4.75599e-06
3.6952e-07
4.76594e-06
3.28324e-07
2.74153e-07
4.76327e-06
4.99585e-06
7.53696e-07
4.95064e-06
-8.00389e-07
4.95239e-06
-5.88485e-08
4.95074e-06
3.97272e-07
4.98825e-06
4.81845e-07
4.97228e-06
-3.72746e-08
4.95627e-06
-2.12772e-07
4.95679e-06
7.37575e-08
4.92769e-06
-2.42232e-07
4.92362e-06
2.49704e-08
4.90236e-06
1.62474e-07
4.90442e-06
2.21418e-07
4.92692e-06
5.02691e-07
4.92503e-06
5.00559e-07
4.9451e-06
4.73384e-07
4.96791e-06
5.2619e-07
4.97341e-06
4.49173e-07
4.98206e-06
3.60876e-07
4.99334e-06
3.17045e-07
2.74324e-07
4.99317e-06
5.23407e-06
7.25938e-07
5.18749e-06
-7.53809e-07
5.19003e-06
-6.13877e-08
5.18851e-06
3.98792e-07
5.22592e-06
4.44441e-07
5.20979e-06
-2.11484e-08
5.19196e-06
-1.94945e-07
5.19392e-06
7.18007e-08
5.16348e-06
-2.11787e-07
5.16025e-06
2.81974e-08
5.14128e-06
1.81443e-07
5.14154e-06
2.21156e-07
5.16498e-06
4.79254e-07
5.16524e-06
5.00298e-07
5.18214e-06
4.56488e-07
5.20616e-06
5.02164e-07
5.21297e-06
4.42368e-07
5.21958e-06
3.54267e-07
5.23079e-06
3.05827e-07
2.71401e-07
5.23372e-06
5.48361e-06
6.97519e-07
5.4358e-06
-7.06002e-07
5.43921e-06
-6.47943e-08
5.43771e-06
4.00288e-07
5.47445e-06
4.07699e-07
5.45888e-06
-5.57735e-09
5.43907e-06
-1.75134e-07
5.44249e-06
6.8385e-08
5.41119e-06
-1.80487e-07
5.408e-06
3.13844e-08
5.39177e-06
1.97678e-07
5.3902e-06
2.22721e-07
5.41402e-06
4.55432e-07
5.41683e-06
4.97493e-07
5.43086e-06
4.42455e-07
5.45521e-06
4.77818e-07
5.46371e-06
4.33865e-07
5.46886e-06
3.4912e-07
5.47896e-06
2.95726e-07
2.6552e-07
5.48484e-06
5.745e-06
6.68475e-07
5.69614e-06
-6.57138e-07
5.70045e-06
-6.91006e-08
5.69888e-06
4.01855e-07
5.73437e-06
3.72209e-07
5.7201e-06
8.68989e-09
5.69823e-06
-1.5326e-07
5.70282e-06
6.37906e-08
5.67153e-06
-1.49194e-07
5.66757e-06
3.5344e-08
5.65434e-06
2.10902e-07
5.65113e-06
2.25933e-07
5.67461e-06
4.31951e-07
5.68016e-06
4.91944e-07
5.69175e-06
4.30871e-07
5.71557e-06
4.53996e-07
5.72588e-06
4.23552e-07
5.73023e-06
3.44772e-07
5.73872e-06
2.87238e-07
2.57557e-07
5.74668e-06
6.01883e-06
6.38835e-07
5.9691e-06
-6.07405e-07
5.97429e-06
-7.42923e-08
5.97261e-06
4.03535e-07
6.00622e-06
3.38602e-07
5.99396e-06
2.09466e-08
5.97009e-06
-1.29391e-07
5.97539e-06
5.84978e-08
5.94508e-06
-1.18894e-07
5.93971e-06
4.07161e-08
5.92954e-06
2.21071e-07
5.92505e-06
2.30425e-07
5.9475e-06
4.095e-07
5.9557e-06
4.83746e-07
5.96537e-06
4.21205e-07
5.988e-06
4.3137e-07
5.99989e-06
4.11659e-07
6.00408e-06
3.40585e-07
6.01101e-06
2.80303e-07
2.48822e-07
6.01975e-06
6.30569e-06
6.0863e-07
6.25529e-06
-5.57001e-07
6.26131e-06
-8.03143e-08
6.25956e-06
4.05283e-07
6.29062e-06
3.07543e-07
6.28098e-06
3.05866e-08
6.25534e-06
-1.0375e-07
6.2607e-06
5.31379e-08
6.23234e-06
-9.05317e-08
6.22522e-06
4.78322e-08
6.21787e-06
2.28425e-07
6.21266e-06
2.35635e-07
6.23348e-06
3.88674e-07
6.24408e-06
4.73149e-07
6.25237e-06
4.12916e-07
6.27329e-06
4.10447e-07
6.28647e-06
3.98486e-07
6.29081e-06
3.36245e-07
6.29668e-06
2.74431e-07
2.40449e-07
6.30505e-06
6.60621e-06
5.77892e-07
6.55534e-06
-5.06136e-07
6.56211e-06
-8.70841e-08
6.56045e-06
4.06946e-07
6.58826e-06
2.79732e-07
6.58167e-06
3.71795e-08
6.55469e-06
-7.67761e-08
6.55935e-06
4.84824e-08
6.53376e-06
-6.49478e-08
6.52486e-06
5.67326e-08
6.51984e-06
2.33449e-07
6.51458e-06
2.40898e-07
6.53341e-06
3.69845e-07
6.54596e-06
4.60596e-07
6.55338e-06
4.05496e-07
6.57233e-06
3.91498e-07
6.58649e-06
3.84326e-07
6.591e-06
3.3173e-07
6.59622e-06
2.69217e-07
2.32936e-07
6.60373e-06
6.92102e-06
5.46667e-07
6.8699e-06
-4.55024e-07
6.87729e-06
-9.44655e-08
6.87602e-06
4.08216e-07
6.89991e-06
2.5584e-07
6.89653e-06
4.05527e-08
6.86887e-06
-4.91143e-08
6.87202e-06
4.53385e-08
6.84977e-06
-4.26963e-08
6.8394e-06
6.70933e-08
6.83608e-06
2.36772e-07
6.83133e-06
2.45645e-07
6.84819e-06
3.52992e-07
6.862e-06
4.46785e-07
6.86907e-06
3.9842e-07
6.88597e-06
3.74606e-07
6.90079e-06
3.69498e-07
6.90559e-06
3.26934e-07
6.91019e-06
2.64618e-07
2.26294e-07
6.91683e-06
7.25078e-06
5.15019e-07
7.19966e-06
-4.03905e-07
7.2074e-06
-1.02206e-07
7.20705e-06
4.08568e-07
7.22641e-06
2.36486e-07
7.22615e-06
4.08051e-08
7.19861e-06
-2.15697e-08
7.19957e-06
4.43796e-08
7.18078e-06
-2.39121e-08
7.16957e-06
7.83094e-08
7.16726e-06
2.3908e-07
7.16347e-06
2.49433e-07
7.17858e-06
3.37886e-07
7.19319e-06
4.3217e-07
7.20011e-06
3.91502e-07
7.21488e-06
3.59841e-07
7.22995e-06
3.54426e-07
7.23531e-06
3.21572e-07
7.23942e-06
2.60505e-07
2.2023e-07
7.24549e-06
7.59621e-06
4.83039e-07
7.54534e-06
-3.53037e-07
7.55304e-06
-1.09909e-07
7.55438e-06
4.07229e-07
7.56873e-06
2.22141e-07
7.57115e-06
3.83805e-08
7.54464e-06
4.94274e-09
7.54286e-06
4.61595e-08
7.52734e-06
-8.39303e-09
7.51608e-06
8.9573e-08
7.5142e-06
2.40951e-07
7.5115e-06
2.52138e-07
7.52523e-06
3.24152e-07
7.54063e-06
4.16774e-07
7.54767e-06
3.84459e-07
7.56004e-06
3.47475e-07
7.57449e-06
3.39969e-07
7.58034e-06
3.15723e-07
7.58399e-06
2.56857e-07
2.14162e-07
7.59006e-06
7.95802e-06
4.50833e-07
7.90771e-06
-3.02726e-07
7.91494e-06
-1.17139e-07
7.91877e-06
4.03394e-07
7.92788e-06
2.13035e-07
7.9322e-06
3.40571e-08
7.90773e-06
2.94169e-08
7.90288e-06
5.10047e-08
7.8901e-06
4.38555e-09
7.87955e-06
1.00132e-07
7.87778e-06
2.42718e-07
7.87606e-06
2.53854e-07
7.8888e-06
3.1141e-07
7.90515e-06
4.00432e-07
7.91305e-06
3.76558e-07
7.92334e-06
3.37184e-07
7.93584e-06
3.27464e-07
7.94116e-06
3.10412e-07
7.94344e-06
2.54574e-07
2.06973e-07
7.95063e-06
8.33698e-06
4.18534e-07
8.28752e-06
-2.53269e-07
8.29389e-06
-1.23508e-07
8.30101e-06
3.96277e-07
8.30489e-06
2.09148e-07
8.31011e-06
2.88429e-08
8.28857e-06
5.09589e-08
8.28061e-06
5.89648e-08
8.2698e-06
1.51924e-08
8.26066e-06
1.09268e-07
8.25903e-06
2.44353e-07
8.25776e-06
2.55122e-07
8.26991e-06
2.99264e-07
8.28686e-06
3.83474e-07
8.29674e-06
3.66685e-07
8.31177e-06
3.22153e-07
8.33328e-06
3.05949e-07
8.34762e-06
2.96079e-07
8.35139e-06
2.50806e-07
2.05961e-07
8.3524e-06
8.73391e-06
3.86287e-07
8.68561e-06
-2.04965e-07
8.69069e-06
-1.28594e-07
8.70172e-06
3.85246e-07
8.70076e-06
2.10114e-07
8.70573e-06
2.38744e-08
8.68785e-06
6.88367e-08
8.67713e-06
6.96799e-08
8.66728e-06
2.50485e-08
8.66009e-06
1.16457e-07
8.6588e-06
2.45641e-07
8.6577e-06
2.56218e-07
8.66946e-06
2.87505e-07
8.68775e-06
3.65187e-07
8.70012e-06
3.54312e-07
8.71386e-06
3.08416e-07
8.73244e-06
2.87373e-07
8.74561e-06
2.82906e-07
8.74811e-06
2.48309e-07
2.04607e-07
8.74946e-06
9.14962e-06
3.54282e-07
9.10267e-06
-1.58011e-07
9.10622e-06
-1.32147e-07
9.12157e-06
3.69901e-07
9.11642e-06
2.1526e-07
9.11998e-06
2.03185e-08
9.10621e-06
8.26087e-08
9.09331e-06
8.25779e-08
9.08349e-06
3.48663e-08
9.07855e-06
1.21396e-07
9.07798e-06
2.46208e-07
9.07713e-06
2.57069e-07
9.08851e-06
2.76131e-07
9.10676e-06
3.46936e-07
9.11855e-06
3.42518e-07
9.13083e-06
2.96139e-07
9.14962e-06
2.68579e-07
9.16544e-06
2.67092e-07
9.17009e-06
2.43658e-07
2.06301e-07
9.16839e-06
9.58502e-06
3.22724e-07
9.5396e-06
-1.12588e-07
9.54132e-06
-1.33874e-07
9.56096e-06
3.50266e-07
9.55286e-06
2.23355e-07
9.55387e-06
1.93122e-08
9.54425e-06
9.22221e-08
9.53013e-06
9.67011e-08
9.51958e-06
4.54184e-08
9.51678e-06
1.24198e-07
9.51751e-06
2.45479e-07
9.51686e-06
2.57717e-07
9.52749e-06
2.65499e-07
9.54551e-06
3.28914e-07
9.55336e-06
3.34672e-07
9.55651e-06
2.92992e-07
9.56292e-06
2.62162e-07
9.57104e-06
2.58974e-07
9.57671e-06
2.37994e-07
2.01341e-07
9.58166e-06
1.0041e-05
2.91902e-07
9.9976e-06
-6.9236e-08
9.99697e-06
-1.33237e-07
1.00205e-05
3.26764e-07
1.0011e-05
2.32867e-07
1.00085e-05
2.17346e-08
1.00028e-05
9.79792e-08
9.98843e-06
1.11047e-07
9.9766e-06
5.72537e-08
9.97556e-06
1.25232e-07
9.97801e-06
2.43027e-07
9.97728e-06
2.58447e-07
9.9859e-06
2.56885e-07
1.00043e-05
3.10542e-07
1.00195e-05
3.19456e-07
1.00309e-05
2.8158e-07
1.00487e-05
2.44386e-07
1.00658e-05
2.41825e-07
1.0073e-05
2.30796e-07
2.05776e-07
1.00686e-05
1.05184e-05
2.62143e-07
1.04782e-05
-2.89994e-08
1.04741e-05
-1.29157e-07
1.05007e-05
3.0017e-07
1.04916e-05
2.41978e-07
1.04854e-05
2.78603e-08
1.04825e-05
1.0093e-07
1.04691e-05
1.24432e-07
1.04558e-05
7.05875e-08
1.04559e-05
1.25077e-07
1.04603e-05
2.38687e-07
1.04599e-05
2.58794e-07
1.04669e-05
2.49891e-07
1.04833e-05
2.94151e-07
1.04932e-05
3.09515e-07
1.0496e-05
2.78801e-07
1.0501e-05
2.39371e-07
1.05101e-05
2.3273e-07
1.05186e-05
2.22324e-07
2.00325e-07
1.05241e-05
1.10183e-05
2.33826e-07
1.0982e-05
7.35533e-09
1.09737e-05
-1.20921e-07
1.10025e-05
2.71383e-07
1.09956e-05
2.48895e-07
1.09857e-05
3.77578e-08
1.09846e-05
1.02054e-07
1.09729e-05
1.36119e-07
1.09584e-05
8.51403e-08
1.09584e-05
1.25026e-07
1.09644e-05
2.32679e-07
1.09648e-05
2.58397e-07
1.09697e-05
2.44975e-07
1.09839e-05
2.80013e-07
1.09948e-05
2.98575e-07
1.09995e-05
2.74088e-07
1.10048e-05
2.34045e-07
1.10159e-05
2.21699e-07
1.10258e-05
2.12392e-07
1.95971e-07
1.10302e-05
1.15419e-05
2.07322e-07
1.15101e-05
3.91571e-08
1.1497e-05
-1.07869e-07
1.15272e-05
2.41156e-07
1.1524e-05
2.52154e-07
1.15108e-05
5.09736e-08
1.15104e-05
1.02462e-07
1.15007e-05
1.45772e-07
1.14854e-05
1.00409e-07
1.1484e-05
1.26457e-07
1.14914e-05
2.25249e-07
1.14927e-05
2.57111e-07
1.14957e-05
2.41987e-07
1.15086e-05
2.67127e-07
1.15212e-05
2.85971e-07
1.15273e-05
2.68023e-07
1.15324e-05
2.28913e-07
1.15418e-05
2.12274e-07
1.15518e-05
2.02458e-07
1.89869e-07
1.15579e-05
1.20902e-05
1.82957e-07
1.20633e-05
6.60375e-08
1.20456e-05
-9.01726e-08
1.20763e-05
2.10484e-07
1.20773e-05
2.51143e-07
1.20619e-05
6.64075e-08
1.20611e-05
1.03268e-07
1.20536e-05
1.53266e-07
1.20382e-05
1.15751e-07
1.20346e-05
1.30069e-07
1.20425e-05
2.1738e-07
1.20452e-05
2.54361e-07
1.20475e-05
2.39672e-07
1.20592e-05
2.55458e-07
1.20726e-05
2.72616e-07
1.20801e-05
2.60492e-07
1.20848e-05
2.24227e-07
1.20923e-05
2.0478e-07
1.21017e-05
1.93012e-07
1.82342e-07
1.21092e-05
1.26646e-05
1.60939e-07
1.26428e-05
8.7845e-08
1.26214e-05
-6.88039e-08
1.26509e-05
1.81063e-07
1.26564e-05
2.45619e-07
1.26401e-05
8.27111e-08
1.26382e-05
1.05173e-07
1.26326e-05
1.58794e-07
1.26179e-05
1.30501e-07
1.26122e-05
1.35738e-07
1.262e-05
2.09647e-07
1.26246e-05
2.49716e-07
1.26269e-05
2.37411e-07
1.26368e-05
2.45529e-07
1.26503e-05
2.59151e-07
1.26591e-05
2.51682e-07
1.26639e-05
2.19442e-07
1.26704e-05
1.98277e-07
1.26792e-05
1.84212e-07
1.74408e-07
1.26871e-05
1.32665e-05
1.41401e-07
1.32496e-05
1.04688e-07
1.32262e-05
-4.53597e-08
1.32525e-05
1.54733e-07
1.32621e-05
2.36053e-07
1.32463e-05
9.84857e-08
1.32432e-05
1.08296e-07
1.32393e-05
1.62644e-07
1.32257e-05
1.44103e-07
1.32187e-05
1.42796e-07
1.32256e-05
2.02696e-07
1.32319e-05
2.43406e-07
1.32347e-05
2.34643e-07
1.32432e-05
2.37029e-07
1.3256e-05
2.46309e-07
1.32657e-05
2.42049e-07
1.32712e-05
2.13928e-07
1.32769e-05
1.92578e-07
1.32843e-05
1.76765e-07
1.66426e-07
1.32923e-05
1.38972e-05
1.24338e-07
1.3885e-05
1.16923e-07
1.38611e-05
-2.15137e-08
1.38829e-05
1.32983e-07
1.38956e-05
2.23378e-07
1.38816e-05
1.12445e-07
1.38776e-05
1.1231e-07
1.3875e-05
1.65267e-07
1.3863e-05
1.56112e-07
1.38551e-05
1.50641e-07
1.38609e-05
1.96924e-07
1.38684e-05
2.35901e-07
1.38721e-05
2.30982e-07
1.38794e-05
2.29685e-07
1.38912e-05
2.34505e-07
1.39011e-05
2.32126e-07
1.39074e-05
2.07616e-07
1.39129e-05
1.87092e-07
1.39192e-05
1.70469e-07
1.5877e-07
1.39269e-05
1.45583e-05
1.09674e-07
1.45502e-05
1.25072e-07
1.45272e-05
1.50352e-09
1.45438e-05
1.16339e-07
1.45584e-05
2.08793e-07
1.4547e-05
1.23885e-07
1.45424e-05
1.16841e-07
1.4541e-05
1.66697e-07
1.45307e-05
1.66372e-07
1.45227e-05
1.58675e-07
1.45272e-05
1.92439e-07
1.45353e-05
2.27798e-07
1.45399e-05
2.26338e-07
1.45465e-05
2.2314e-07
1.45573e-05
2.2368e-07
1.45672e-05
2.22219e-07
1.45739e-05
2.00936e-07
1.45796e-05
1.81329e-07
1.4585e-05
1.65109e-07
1.52086e-07
1.45917e-05
1.52513e-05
9.72733e-08
1.52466e-05
1.29756e-07
1.52253e-05
2.28312e-08
1.52369e-05
1.04709e-07
1.52521e-05
1.93603e-07
1.52435e-05
1.32479e-07
1.52389e-05
1.214e-07
1.52387e-05
1.66984e-07
1.52303e-05
1.74703e-07
1.52225e-05
1.66505e-07
1.52257e-05
1.89196e-07
1.5234e-05
2.19553e-07
1.52397e-05
2.2063e-07
1.52458e-05
2.17023e-07
1.52555e-05
2.13936e-07
1.52653e-05
2.12465e-07
1.52719e-05
1.94352e-07
1.52779e-05
1.75316e-07
1.52832e-05
1.59856e-07
1.46466e-07
1.52888e-05
1.59776e-05
8.69571e-08
1.59758e-05
1.31592e-07
1.59566e-05
4.203e-08
1.59638e-05
9.74964e-08
1.59785e-05
1.78883e-07
1.59725e-05
1.38545e-07
1.59682e-05
1.25637e-07
1.59691e-05
1.66153e-07
1.5963e-05
1.80726e-07
1.59558e-05
1.73748e-07
1.5958e-05
1.86995e-07
1.59661e-05
2.1151e-07
1.59726e-05
2.14032e-07
1.59788e-05
2.10899e-07
1.59873e-05
2.05381e-07
1.59969e-05
2.02878e-07
1.60035e-05
1.87759e-07
1.60094e-05
1.69438e-07
1.60151e-05
1.5416e-07
1.41774e-07
1.60198e-05
1.6739e-05
7.85148e-08
1.67394e-05
1.31242e-07
1.67226e-05
5.88114e-08
1.67262e-05
9.39474e-08
1.67395e-05
1.65547e-07
1.67354e-05
1.42628e-07
1.67315e-05
1.29544e-07
1.67336e-05
1.64097e-07
1.67304e-05
1.83923e-07
1.67242e-05
1.79957e-07
1.67255e-05
1.85629e-07
1.67331e-05
2.03968e-07
1.67403e-05
2.06841e-07
1.67468e-05
2.04401e-07
1.67544e-05
1.97727e-07
1.67635e-05
1.93831e-07
1.67704e-05
1.80853e-07
1.67757e-05
1.64084e-07
1.67816e-05
1.48265e-07
1.37299e-07
1.67861e-05
1.75372e-05
7.17201e-08
1.75391e-05
1.29293e-07
1.75248e-05
7.30827e-08
1.75255e-05
9.32474e-08
1.7537e-05
1.54032e-07
1.75346e-05
1.45053e-07
1.75308e-05
1.33411e-07
1.75338e-05
1.61025e-07
1.75336e-05
1.84104e-07
1.75291e-05
1.84527e-07
1.75299e-05
1.84847e-07
1.75366e-05
1.97204e-07
1.75443e-05
1.99206e-07
1.75511e-05
1.97555e-07
1.75584e-05
1.90437e-07
1.75667e-05
1.85568e-07
1.75739e-05
1.73598e-07
1.7579e-05
1.5902e-07
1.75846e-05
1.42658e-07
1.3239e-07
1.75895e-05
1.83737e-05
6.63526e-08
1.83767e-05
1.2629e-07
1.8365e-05
8.48237e-08
1.83637e-05
9.45544e-08
1.83733e-05
1.44391e-07
1.83723e-05
1.46051e-07
1.83685e-05
1.37231e-07
1.83718e-05
1.57694e-07
1.83745e-05
1.81471e-07
1.83722e-05
1.868e-07
1.83727e-05
1.84324e-07
1.83786e-05
1.91299e-07
1.83863e-05
1.9151e-07
1.83936e-05
1.90308e-07
1.84008e-05
1.83156e-07
1.84085e-05
1.77922e-07
1.84157e-05
1.66404e-07
1.8421e-05
1.5371e-07
1.84259e-05
1.37781e-07
1.27135e-07
1.84311e-05
1.92506e-05
6.21854e-08
1.92542e-05
1.22691e-07
1.92449e-05
9.41134e-08
1.92423e-05
9.71227e-08
1.92502e-05
1.36487e-07
1.92505e-05
1.45783e-07
1.92472e-05
1.40549e-07
1.92499e-05
1.54897e-07
1.92547e-05
1.76724e-07
1.9255e-05
1.86479e-07
1.92558e-05
1.83528e-07