/*--------------------------------*- C++ -*----------------------------------*\
| =========                 |                                                 |
| \\      /  F ield         | OpenFOAM: The Open Source CFD Toolbox           |
|  \\    /   O peration     | Version:  v1912                                 |
|   \\  /    A nd           | Website:  www.openfoam.com                      |
|    \\/     M anipulation  |                                                 |
\*---------------------------------------------------------------------------*/
FoamFile
{
    version     2.0;
    format      ascii;
    class       volScalarField;
    location    "4.35";
    object      p;
}
// * * * * * * * * * * * * * * * * * * * * * * * * * * * * * * * * * * * * * //

dimensions      [0 2 -2 0 0 0 0];


internalField   nonuniform List<scalar> 
9600
(
-8.02335e-11
-0.0016826
-0.00276144
0.000761315
-0.00281688
-0.00300919
-0.0022674
-0.00691022
-0.00482719
-0.00299102
-0.00557379
-0.00773708
-0.00961532
-0.0078545
-0.00978982
-0.00954914
-0.0110746
-0.0110672
-0.0116194
-0.0113527
-2.94067e-07
-0.00168685
-0.0027453
0.000668246
-0.00281818
-0.00297994
-0.00231123
-0.00679585
-0.00481894
-0.00314668
-0.00555105
-0.00775335
-0.00959664
-0.00787907
-0.00978644
-0.00955298
-0.0110427
-0.0110778
-0.011592
-0.0114099
-8.46697e-07
-0.00169156
-0.00272721
0.000591806
-0.00280896
-0.00294356
-0.00235329
-0.00669181
-0.00481611
-0.00324126
-0.00553259
-0.00776813
-0.0095642
-0.00790787
-0.00976293
-0.00956185
-0.010999
-0.0110991
-0.0115671
-0.0114828
-1.73898e-06
-0.00169739
-0.00271921
0.000507102
-0.00278993
-0.00291274
-0.00240284
-0.00659272
-0.00481552
-0.00334723
-0.00553096
-0.00777617
-0.00951593
-0.00794406
-0.00973283
-0.00958282
-0.0109584
-0.0111258
-0.0115553
-0.0115672
-3.1765e-06
-0.00170517
-0.00271957
0.000421969
-0.00275949
-0.00289071
-0.00246444
-0.0064957
-0.00481517
-0.0034613
-0.00553939
-0.0077753
-0.0094523
-0.00799194
-0.00970202
-0.00961304
-0.0109208
-0.0111541
-0.0115567
-0.011651
-5.19267e-06
-0.00171507
-0.00272588
0.000340227
-0.00271878
-0.00288003
-0.00253565
-0.00639877
-0.00481432
-0.0035807
-0.00555314
-0.00776819
-0.00937945
-0.00806008
-0.0096716
-0.00964544
-0.0108856
-0.0111812
-0.0115692
-0.0117284
-7.67289e-06
-0.0017273
-0.0027374
0.000262377
-0.00267144
-0.00288038
-0.00261374
-0.00630102
-0.00481286
-0.00370411
-0.00556923
-0.00775844
-0.00930273
-0.00812164
-0.00964107
-0.00967667
-0.0108524
-0.011206
-0.0115921
-0.0117992
-1.04966e-05
-0.00174207
-0.00275338
0.000186878
-0.00262155
-0.0028892
-0.00269606
-0.00620282
-0.004811
-0.00383078
-0.00558512
-0.00774864
-0.00922447
-0.0081827
-0.00961272
-0.00970451
-0.0108225
-0.0112293
-0.0116236
-0.0118649
-1.35987e-05
-0.00175952
-0.00277283
0.000111638
-0.00257208
-0.00290362
-0.00278079
-0.00610607
-0.00480898
-0.00395986
-0.00559925
-0.00773918
-0.00914619
-0.00824209
-0.00958794
-0.0097271
-0.0107981
-0.0112502
-0.0116609
-0.0119291
-1.69859e-05
-0.00177966
-0.00279473
3.50666e-05
-0.00252459
-0.00292129
-0.00286693
-0.00600979
-0.0048069
-0.00409048
-0.0056109
-0.00772915
-0.00906938
-0.00829905
-0.00956735
-0.0097444
-0.0107804
-0.0112671
-0.011703
-0.0119966
-2.07373e-05
-0.00180246
-0.0028181
-4.37566e-05
-0.00247948
-0.0029407
-0.002954
-0.00591578
-0.00480472
-0.00422206
-0.00561999
-0.00771776
-0.00899517
-0.00835251
-0.00955242
-0.00975654
-0.0107688
-0.0112802
-0.01175
-0.0120694
-2.4985e-05
-0.00182771
-0.002842
-0.000125216
-0.00243658
-0.00296105
-0.00304176
-0.00582439
-0.00480245
-0.00435413
-0.00562685
-0.00770486
-0.00892434
-0.00840153
-0.00954452
-0.00976269
-0.0107628
-0.0112921
-0.0117994
-0.0121474
-2.98823e-05
-0.00185511
-0.00286541
-0.0002094
-0.00239555
-0.00298196
-0.00313012
-0.00573569
-0.00480025
-0.00448634
-0.00563213
-0.00769078
-0.00885762
-0.00844494
-0.0095442
-0.00976237
-0.0107623
-0.0113051
-0.0118466
-0.0122308
-3.55824e-05
-0.00188417
-0.00288745
-0.000296354
-0.00235598
-0.00300319
-0.00321908
-0.00564963
-0.00479826
-0.00461834
-0.00563658
-0.00767595
-0.00879579
-0.0084812
-0.00955147
-0.00975618
-0.0107666
-0.0113218
-0.0118877
-0.0123193
-4.22182e-05
-0.00191434
-0.00290749
-0.000386098
-0.00231748
-0.00302454
-0.00330871
-0.00556615
-0.00479659
-0.00474982
-0.00564098
-0.00766057
-0.00873963
-0.00850887
-0.00956608
-0.00974534
-0.0107734
-0.0113452
-0.0119204
-0.0124111
-4.98812e-05
-0.00194507
-0.00292524
-0.000478668
-0.00227986
-0.0030458
-0.00339906
-0.00548515
-0.00479533
-0.0048805
-0.00564603
-0.00764454
-0.00868985
-0.00852702
-0.00958772
-0.00973145
-0.0107797
-0.0113789
-0.0119436
-0.0125022
-5.86272e-05
-0.00197586
-0.00294072
-0.000574161
-0.00224314
-0.00306674
-0.00349023
-0.00540659
-0.00479453
-0.0050102
-0.0056523
-0.00762738
-0.00864727
-0.00853527
-0.00961539
-0.0097168
-0.0107816
-0.0114252
-0.0119585
-0.0125872
-6.84993e-05
-0.00200639
-0.0029543
-0.000672673
-0.0022076
-0.00308707
-0.0035823
-0.00533046
-0.0047942
-0.00513868
-0.00566035
-0.0076085
-0.00861281
-0.00852775
-0.00964715
-0.00970442
-0.0107752
-0.0114842
-0.0119683
-0.0126601
-7.95512e-05
-0.00203655
-0.00296651
-0.00077424
-0.00217375
-0.00310646
-0.00367527
-0.00525692
-0.00479444
-0.00526561
-0.00567066
-0.00758744
-0.00858731
-0.00851452
-0.00968045
-0.00969789
-0.0107573
-0.0115545
-0.0119775
-0.0127151
-9.18657e-05
-0.00206644
-0.00297791
-0.000878776
-0.00214218
-0.00312462
-0.00376911
-0.00518623
-0.0047953
-0.00539077
-0.0056837
-0.00756359
-0.00857132
-0.00849501
-0.0097121
-0.00970083
-0.010727
-0.0116323
-0.011991
-0.0127471
-0.000105564
-0.00209623
-0.00298903
-0.00098606
-0.00211356
-0.00314123
-0.00386378
-0.00511874
-0.00479677
-0.00551391
-0.00569995
-0.0075363
-0.00856501
-0.00847084
-0.00973833
-0.00971587
-0.0106851
-0.0117127
-0.0120137
-0.0127532
-0.000120811
-0.00212611
-0.00300033
-0.00109577
-0.00208851
-0.00315604
-0.00395921
-0.00505491
-0.00479878
-0.00563474
-0.00571993
-0.00750514
-0.00856811
-0.00844427
-0.00975587
-0.00974419
-0.0106339
-0.0117899
-0.0120498
-0.0127333
-0.000137811
-0.00215617
-0.00301219
-0.00120751
-0.00206762
-0.00316885
-0.00405527
-0.00499532
-0.00480126
-0.00575294
-0.00574414
-0.00746973
-0.00858004
-0.00841767
-0.00976275
-0.00978636
-0.0105766
-0.0118577
-0.0121021
-0.0126911
-0.000156802
-0.00218638
-0.003025
-0.0013209
-0.0020514
-0.0031795
-0.0041518
-0.00494049
-0.00480398
-0.00586838
-0.00577291
-0.00742979
-0.00859992
-0.00839346
-0.00975769
-0.00984183
-0.0105171
-0.0119095
-0.0121723
-0.0126338
-0.000178042
-0.00221661
-0.00303921
-0.00143552
-0.0020403
-0.00318793
-0.00424866
-0.00489096
-0.00480652
-0.00598104
-0.00580661
-0.00738522
-0.00862675
-0.00837377
-0.00973939
-0.00990926
-0.0104603
-0.0119395
-0.0122602
-0.0125718
-0.000201798
-0.00224664
-0.00305531
-0.00155105
-0.00203468
-0.0031941
-0.00434561
-0.00484747
-0.00480842
-0.00609097
-0.00584571
-0.00733565
-0.00865933
-0.008361
-0.00970669
-0.00998669
-0.0104118
-0.0119424
-0.0123622
-0.0125172
-0.000228357
-0.00227619
-0.00307385
-0.00166717
-0.00203485
-0.0031981
-0.00444231
-0.00481073
-0.00480918
-0.00619814
-0.00589095
-0.00728077
-0.0086962
-0.00835771
-0.00965855
-0.0100712
-0.0103776
-0.0119144
-0.0124706
-0.0124833
-0.000258034
-0.00230493
-0.00309541
-0.00178359
-0.00204113
-0.00320011
-0.00453832
-0.00478152
-0.00480822
-0.00630244
-0.00594313
-0.00722044
-0.00873568
-0.00836645
-0.00959456
-0.0101587
-0.0103636
-0.0118545
-0.0125737
-0.0124826
-0.000291174
-0.00233255
-0.00312052
-0.00190005
-0.00205372
-0.00320038
-0.00463301
-0.00476073
-0.00480505
-0.00640354
-0.00600316
-0.00715444
-0.00877552
-0.00839022
-0.00951509
-0.0102431
-0.0103751
-0.011766
-0.0126575
-0.0125229
-0.000328143
-0.00235874
-0.0031497
-0.0020163
-0.00207275
-0.00319926
-0.00472568
-0.00474927
-0.00479937
-0.00650061
-0.00607201
-0.00708322
-0.00881291
-0.0084317
-0.00942176
-0.010317
-0.0104161
-0.0116584
-0.0127068
-0.012602
-0.000369343
-0.00238317
-0.00318334
-0.00213202
-0.00209825
-0.00319734
-0.00481547
-0.00474813
-0.00479103
-0.00659246
-0.00615067
-0.00700774
-0.00884474
-0.00849281
-0.00931816
-0.010373
-0.0104873
-0.0115451
-0.0127077
-0.0127056
-0.000415216
-0.00240549
-0.00322165
-0.00224704
-0.00213016
-0.00319536
-0.00490131
-0.00475822
-0.00478029
-0.00667767
-0.00624026
-0.00692947
-0.00886724
-0.00857507
-0.00921006
-0.0104025
-0.0105846
-0.0114412
-0.0126523
-0.012811
-0.000466238
-0.00242535
-0.00326469
-0.0023614
-0.00216807
-0.00319409
-0.00498195
-0.00478005
-0.0047679
-0.00675457
-0.00634181
-0.00685093
-0.00887584
-0.00867873
-0.00910534
-0.0103977
-0.0106991
-0.0113621
-0.0125443
-0.0128924
-0.000522855
-0.00244248
-0.00331238
-0.00247513
-0.00221153
-0.00319459
-0.00505625
-0.00481379
-0.00475496
-0.00682136
-0.00645594
-0.00677523
-0.00886612
-0.00880213
-0.00901339
-0.0103532
-0.0108178
-0.0113195
-0.0124
-0.0129245
-0.000585488
-0.00245663
-0.00336452
-0.00258841
-0.00225987
-0.00319795
-0.00512352
-0.0048594
-0.00474273
-0.00687617
-0.00658242
-0.00670611
-0.0088405
-0.00894143
-0.00894378
-0.0102684
-0.0109274
-0.0113172
-0.01224
-0.0128903
-0.000654587
-0.00246764
-0.00342062
-0.00270163
-0.0023124
-0.00320522
-0.00518356
-0.00491608
-0.00473251
-0.00691732
-0.00672012
-0.00664773
-0.00878551
-0.00909082
-0.00890438
-0.0101478
-0.0110157
-0.0113528
-0.0120842
-0.0127878
-0.000730556
-0.00247552
-0.00347975
-0.00281561
-0.00236837
-0.00321693
-0.00523636
-0.0049829
-0.00472595
-0.00694368
-0.00686701
-0.00660453
-0.00870651
-0.00924344
-0.00890134
-0.00999858
-0.0110694
-0.0114197
-0.0119509
-0.0126297
-0.000813785
-0.00248005
-0.00354048
-0.00293164
-0.00242705
-0.00323296
-0.00528239
-0.0050582
-0.00472491
-0.00695523
-0.00702013
-0.00658079
-0.00860474
-0.0093909
-0.0089399
-0.00983277
-0.0110752
-0.0115051
-0.0118542
-0.0124376
-0.000904626
-0.002482
-0.00360114
-0.00305087
-0.00248849
-0.00325286
-0.00532273
-0.00514004
-0.00473053
-0.00695204
-0.00717631
-0.00658058
-0.00848374
-0.00952414
-0.00902106
-0.00966525
-0.0110246
-0.0115924
-0.0117986
-0.0122307
-0.00100326
-0.00248225
-0.00365997
-0.00317446
-0.00255307
-0.00327575
-0.00535821
-0.00522721
-0.00474391
-0.00693434
-0.00733223
-0.00660703
-0.00834818
-0.00963552
-0.0091428
-0.00951059
-0.0109148
-0.0116654
-0.0117826
-0.0120235
-0.00110984
-0.00248142
-0.00371482
-0.00330337
-0.00262152
-0.00330053
-0.00539025
-0.00531798
-0.00476527
-0.00690401
-0.00748413
-0.00666219
-0.00820409
-0.00971626
-0.00930161
-0.00938509
-0.0107506
-0.0117069
-0.0118003
-0.0118292
-0.0012243
-0.00248069
-0.00376378
-0.00343793
-0.00269537
-0.0033257
-0.00541936
-0.00541254
-0.00479468
-0.00686161
-0.00762916
-0.00674685
-0.00805841
-0.00975907
-0.00948863
-0.00930504
-0.0105458
-0.011701
-0.0118411
-0.0116587
-0.00134645
-0.00248121
-0.00380492
-0.00357834
-0.0027763
-0.00335021
-0.00544499
-0.00551047
-0.00483325
-0.00680796
-0.00776349
-0.00686122
-0.00791791
-0.00975731
-0.00969014
-0.00928484
-0.010322
-0.0116358
-0.0118902
-0.0115206
-0.00147598
-0.00248423
-0.00383644
-0.00372405
-0.00286696
-0.00337269
-0.00546663
-0.00561139
-0.00488087
-0.00674494
-0.00788468
-0.00700274
-0.00778971
-0.00970585
-0.00988429
-0.00932283
-0.0101047
-0.0114897
-0.0119167
-0.0114726
-0.00161234
-0.00249111
-0.00385713
-0.003874
-0.00297013
-0.00339305
-0.0054819
-0.00571596
-0.00493972
-0.00667203
-0.00799034
-0.00716872
-0.00767772
-0.00960559
-0.0100464
-0.00940081
-0.00989361
-0.0112848
-0.0119307
-0.0115431
-0.00175492
-0.00250337
-0.00386628
-0.00402649
-0.0030883
-0.00341179
-0.00548914
-0.00582286
-0.00501029
-0.0065925
-0.00807422
-0.00735702
-0.00759051
-0.00945389
-0.0101696
-0.00951242
-0.00969434
-0.0110431
-0.0119254
-0.0117072
-0.00190254
-0.00252259
-0.00386402
-0.00417922
-0.00322371
-0.00342952
-0.00548624
-0.00593203
-0.00509291
-0.00650795
-0.00813364
-0.00755885
-0.00753682
-0.00926301
-0.0102491
-0.00968593
-0.00959927
-0.0108142
-0.0118834
-0.0118226
-0.0020543
-0.00255006
-0.00385154
-0.0043287
-0.00337734
-0.00345014
-0.0054695
-0.00604151
-0.00519179
-0.00641667
-0.00816646
-0.00777024
-0.00752798
-0.00905114
-0.0102519
-0.00986565
-0.00955843
-0.0105438
-0.0117484
-0.0119721
-0.00220809
-0.00258745
-0.00383083
-0.00447111
-0.0035493
-0.00347696
-0.0054386
-0.00614846
-0.00530596
-0.00632536
-0.00816367
-0.00798086
-0.0075755
-0.00883948
-0.0101809
-0.0100442
-0.00962744
-0.0103272
-0.0115431
-0.0119986
-0.00236249
-0.00263619
-0.0038047
-0.00460205
-0.00373742
-0.00351719
-0.00539454
-0.0062467
-0.00543848
-0.00624101
-0.00811824
-0.00818496
-0.00768709
-0.008647
-0.0100455
-0.0102023
-0.00976508
-0.0101666
-0.0112955
-0.0119107
-0.0025159
-0.0026973
-0.00377677
-0.00471717
-0.00393937
-0.00357639
-0.0053397
-0.00633267
-0.00558719
-0.00616885
-0.00803626
-0.0083719
-0.00784487
-0.00849797
-0.00986706
-0.0102908
-0.00992955
-0.0100778
-0.0110345
-0.0117496
-0.00266653
-0.00277183
-0.00375079
-0.00481285
-0.00415072
-0.0036589
-0.00528039
-0.00640124
-0.00574545
-0.00612136
-0.00792494
-0.00851914
-0.00803633
-0.00841347
-0.00965757
-0.0102906
-0.0100955
-0.0100709
-0.0107918
-0.0115447
-0.0028132
-0.00286012
-0.0037307
-0.00488655
-0.00436518
-0.00376946
-0.00522195
-0.00644912
-0.00591101
-0.00610168
-0.00778932
-0.00862127
-0.00824798
-0.00838857
-0.00944154
-0.0102169
-0.010228
-0.0101288
-0.010596
-0.0113055
-0.00295492
-0.0029615
-0.00372078
-0.00493692
-0.00457607
-0.00390948
-0.0051721
-0.00647707
-0.00607697
-0.00610987
-0.00764429
-0.00867206
-0.00845416
-0.00842103
-0.00925564
-0.0100901
-0.0102875
-0.0102132
-0.0104777
-0.0110573
-0.0030912
-0.00307439
-0.00372418
-0.00496423
-0.00477698
-0.00407927
-0.00513751
-0.00648509
-0.0062384
-0.0061474
-0.00750052
-0.00866856
-0.0086392
-0.00850324
-0.00911111
-0.00992955
-0.0102743
-0.0102861
-0.0104351
-0.0108444
-0.00322188
-0.00319592
-0.00374338
-0.00497219
-0.00496157
-0.00427518
-0.00512402
-0.00647693
-0.00639262
-0.00621199
-0.00736528
-0.00861702
-0.00878987
-0.00861889
-0.009013
-0.00976097
-0.0102133
-0.0103145
-0.0104252
-0.0106934
-0.00334733
-0.00332324
-0.00377956
-0.00496638
-0.00512525
-0.00448971
-0.00513647
-0.006457
-0.0065361
-0.00630316
-0.00724673
-0.00852497
-0.00889274
-0.00875058
-0.00896756
-0.00959858
-0.0101183
-0.0102989
-0.0104073
-0.0105949
-0.00346796
-0.003454
-0.0038326
-0.00495417
-0.00526649
-0.0047118
-0.00517662
-0.00642995
-0.00666691
-0.00642116
-0.00715262
-0.00839954
-0.00893953
-0.00887948
-0.00897531
-0.00945801
-0.00999476
-0.010254
-0.010366
-0.010514
-0.00358417
-0.00358594
-0.00390208
-0.00494226
-0.0053832
-0.00493241
-0.00524506
-0.00639991
-0.00678258
-0.00656384
-0.00709125
-0.00825085
-0.00892987
-0.00898456
-0.00902067
-0.0093589
-0.00985288
-0.0101816
-0.0103089
-0.0104267
-0.00369659
-0.00371696
-0.00398664
-0.00493677
-0.00547629
-0.00514498
-0.00534087
-0.00637025
-0.00687721
-0.00672448
-0.00707215
-0.00809424
-0.00886972
-0.0090504
-0.00908011
-0.00930868
-0.00971835
-0.0100821
-0.0102439
-0.0103313
-0.00380684
-0.0038462
-0.00408381
-0.00494239
-0.00554933
-0.00534341
-0.00545972
-0.00634735
-0.0069431
-0.00689279
-0.00710192
-0.00794906
-0.00876626
-0.00907255
-0.00913506
-0.00929408
-0.00961412
-0.00996563
-0.0101657
-0.0102319
-0.00391518
-0.00397286
-0.00419096
-0.00496147
-0.00560749
-0.00552358
-0.00559439
-0.00633881
-0.00698006
-0.00704857
-0.00717382
-0.00783715
-0.00863345
-0.00904953
-0.00917291
-0.00929816
-0.00954362
-0.00984957
-0.01007
-0.0101329
-0.00402228
-0.00409646
-0.00430542
-0.00499472
-0.00565606
-0.00568387
-0.0057371
-0.00635057
-0.00699634
-0.00717468
-0.00727335
-0.00777347
-0.00849534
-0.00898394
-0.00918193
-0.00930778
-0.00949913
-0.00974889
-0.00996532
-0.0100376
-0.00412878
-0.00421707
-0.00442447
-0.00504164
-0.00569953
-0.00582474
-0.00588107
-0.00638252
-0.00700202
-0.00726751
-0.00737984
-0.00775508
-0.00837609
-0.00888876
-0.00915381
-0.00930798
-0.00947389
-0.00967124
-0.00986125
-0.00993957
-0.00423541
-0.00433471
-0.00454582
-0.00510124
-0.00574129
-0.00594744
-0.00602143
-0.00643168
-0.0070063
-0.00733198
-0.0074762
-0.00776857
-0.00828731
-0.00878617
-0.00909501
-0.00928304
-0.00945384
-0.0096159
-0.0097666
-0.00983818
-0.00434241
-0.00444948
-0.0046674
-0.00517195
-0.00578447
-0.006054
-0.00615423
-0.00649457
-0.00701517
-0.00737428
-0.00755616
-0.00780112
-0.00822635
-0.00869079
-0.00902212
-0.00923191
-0.00941892
-0.00957345
-0.00968775
-0.0097398
-0.00445006
-0.00456166
-0.0047874
-0.00525167
-0.00583138
-0.00614746
-0.00627703
-0.00656667
-0.00703274
-0.00740098
-0.0076165
-0.00784197
-0.00819011
-0.00860374
-0.00894592
-0.0091699
-0.00936168
-0.00952706
-0.00962303
-0.0096504
-0.00455827
-0.00467146
-0.00490455
-0.00533866
-0.00588304
-0.00623018
-0.00638958
-0.00664411
-0.00705964
-0.00741975
-0.00765706
-0.00787967
-0.00817632
-0.00853019
-0.00886465
-0.00910677
-0.00929247
-0.00946444
-0.00956253
-0.00957018
-0.00466668
-0.00477921
-0.00501779
-0.00543058
-0.00594101
-0.00630489
-0.00649145
-0.00672401
-0.00709438
-0.00743727
-0.00768494
-0.00790331
-0.0081724
-0.00847874
-0.00878111
-0.00904001
-0.00922485
-0.00938823
-0.00949613
-0.0094953
-0.00477466
-0.00488529
-0.00512676
-0.00552501
-0.00600558
-0.00637492
-0.00658324
-0.00680391
-0.0071349
-0.00745526
-0.00770848
-0.00791646
-0.00815992
-0.00844247
-0.00870674
-0.00896248
-0.0091605
-0.00931053
-0.00942294
-0.0094237
-0.00488139
-0.00498952
-0.00523141
-0.00562052
-0.00607631
-0.00644292
-0.00666732
-0.00688264
-0.00718017
-0.0074727
-0.0077271
-0.00792855
-0.00813673
-0.00840399
-0.00864552
-0.00887506
-0.00908718
-0.00923469
-0.00934426
-0.00935275
-0.004986
-0.00509217
-0.00533186
-0.0057146
-0.00615212
-0.0065118
-0.00674585
-0.00695963
-0.00723153
-0.00749462
-0.00773869
-0.00793793
-0.00811261
-0.00834985
-0.00858609
-0.00878626
-0.00899565
-0.00915183
-0.00925735
-0.00927601
-0.00508712
-0.00519266
-0.00542969
-0.0058061
-0.00623012
-0.00658273
-0.00682262
-0.00703335
-0.00728645
-0.00752785
-0.00775061
-0.0079418
-0.00809511
-0.00828778
-0.00851353
-0.00869568
-0.00888242
-0.00904513
-0.0091504
-0.00917853
-0.00518398
-0.0052893
-0.00552427
-0.00589658
-0.00631057
-0.00665545
-0.00690089
-0.00710632
-0.00734009
-0.00756913
-0.00776782
-0.00793836
-0.00808025
-0.00823025
-0.00842956
-0.00859985
-0.00875743
-0.00891262
-0.00901443
-0.00904238
-0.00527581
-0.00538227
-0.00561546
-0.00598362
-0.00639387
-0.00673302
-0.0069821
-0.00718559
-0.00739899
-0.00761246
-0.00778916
-0.0079289
-0.00805417
-0.00817221
-0.00833995
-0.00850577
-0.00864846
-0.00878769
-0.00888276
-0.00889807
-0.00535964
-0.00546862
-0.0057031
-0.00606824
-0.00647732
-0.00681808
-0.00707114
-0.00727657
-0.00748041
-0.00766624
-0.00780247
-0.00788489
-0.00794243
-0.00799959
-0.00812292
-0.00828465
-0.008447
-0.00862969
-0.00881347
-0.00894114
-0.00543427
-0.00554414
-0.00578293
-0.00614939
-0.00655925
-0.00690551
-0.00717088
-0.00739353
-0.00763697
-0.0078737
-0.00801221
-0.00804194
-0.00799508
-0.00791271
-0.00791122
-0.00793779
-0.00790943
-0.00782265
-0.00771636
-0.00763918
-0.00550556
-0.00561756
-0.00584832
-0.00621305
-0.00662369
-0.00696644
-0.00723363
-0.00744095
-0.00762003
-0.00779326
-0.00787892
-0.0078688
-0.00786877
-0.00784616
-0.00787687
-0.00801038
-0.00819321
-0.00839778
-0.00860029
-0.00877703
-0.00556518
-0.00569811
-0.00594671
-0.00631759
-0.00672812
-0.00705944
-0.00730362
-0.00749822
-0.00766841
-0.00781959
-0.00791447
-0.00789606
-0.00786202
-0.00782888
-0.00776747
-0.00772033
-0.00765589
-0.00755473
-0.00744859
-0.00739974
-0.00555994
-0.00567532
-0.00594227
-0.00634948
-0.00680161
-0.00718704
-0.00749361
-0.00773589
-0.0079297
-0.00804956
-0.00806469
-0.00795013
-0.00778266
-0.00766378
-0.00758801
-0.00755081
-0.00754128
-0.00754516
-0.00758322
-0.0076837
-0.0106005
-0.0126425
-0.0180558
-0.02258
-0.023139
-0.0217294
-0.0202456
-0.0187602
-0.0172589
-0.0160067
-0.0150866
-0.0144378
-0.0140537
-0.0138605
-0.0135832
-0.0130145
-0.0123765
-0.0119258
-0.0115418
-0.0111581
-0.010876
-0.0106349
-0.0103837
-0.0102105
-0.0100176
-0.00961768
-0.00914779
-0.00883615
-0.00855698
-0.008225
-0.00790737
-0.00758151
-0.00725219
-0.00695971
-0.00661142
-0.00620843
-0.00583523
-0.00549173
-0.00524795
-0.00505106
-0.00493123
-0.00539855
-0.00616104
-0.00595011
-0.00479322
-0.00380148
-0.00333052
-0.00298774
-0.00258229
-0.00219944
-0.00186451
-0.00167035
-0.00169014
-0.00151688
-0.000998589
-0.000447704
-7.87174e-05
0.000113602
0.000270698
0.000563389
0.00103473
0.00156284
0.00203527
0.00242639
0.00278489
0.00316561
0.00363559
0.00411434
0.00457475
0.00503925
0.00550054
0.00605232
0.00655668
0.00700072
0.00742243
0.00793863
0.0085485
0.00908973
0.00972044
0.0103666
0.0109029
0.011334
0.0118827
0.0125805
0.0132807
0.0138743
0.0144873
0.0151391
0.0158152
0.0165269
0.01717
0.017857
0.0185861
0.0193356
0.020016
0.0207674
0.021624
0.0224615
0.0232198
0.0240138
-0.0107572
-0.0127199
-0.0179512
-0.0224271
-0.0230539
-0.0216903
-0.0202249
-0.0187481
-0.0172501
-0.0159988
-0.0150787
-0.0144296
-0.014046
-0.0138542
-0.0135787
-0.0130109
-0.0123728
-0.0119226
-0.011539
-0.0111555
-0.0108736
-0.0106329
-0.0103817
-0.0102086
-0.0100162
-0.00961631
-0.00914605
-0.00883445
-0.00855551
-0.00822349
-0.00790586
-0.00758006
-0.00725073
-0.00695839
-0.00661026
-0.00620729
-0.00583412
-0.00549062
-0.00524695
-0.00505016
-0.00492985
-0.00539699
-0.00616054
-0.00595023
-0.00479278
-0.00380059
-0.00332975
-0.00298718
-0.00258175
-0.00219889
-0.00186388
-0.00166963
-0.00168961
-0.00151659
-0.000998259
-0.000447259
-7.82296e-05
0.000114062
0.000271067
0.000563665
0.00103499
0.00156314
0.00203558
0.00242669
0.00278516
0.00316585
0.00363582
0.00411459
0.00457498
0.00503948
0.00550074
0.00605252
0.00655691
0.00700095
0.00742262
0.00793878
0.00854868
0.0090899
0.00972058
0.0103668
0.0109031
0.0113342
0.0118828
0.0125807
0.0132809
0.0138744
0.0144875
0.0151393
0.0158153
0.016527
0.0171701
0.0178571
0.0185862
0.0193357
0.0200161
0.0207675
0.0216241
0.0224616
0.0232199
0.024014
-0.0110417
-0.0128798
-0.0177828
-0.0221524
-0.0229103
-0.021636
-0.020194
-0.0187264
-0.0172359
-0.0159901
-0.015073
-0.0144244
-0.0140399
-0.0138477
-0.0135729
-0.0130061
-0.0123688
-0.0119193
-0.0115362
-0.0111528
-0.0108713
-0.0106311
-0.01038
-0.0102071
-0.0100152
-0.0096153
-0.00914459
-0.00883309
-0.0085544
-0.0082223
-0.00790469
-0.00757892
-0.00724952
-0.00695731
-0.00660928
-0.0062063
-0.00583314
-0.00548955
-0.005246
-0.00504931
-0.00492837
-0.0053956
-0.0061609
-0.00595105
-0.00479228
-0.00379946
-0.003329
-0.00298672
-0.00258128
-0.00219841
-0.00186328
-0.00166892
-0.00168928
-0.00151655
-0.000997998
-0.000446787
-7.77399e-05
0.000114451
0.000271307
0.000563814
0.00103517
0.00156341
0.00203588
0.00242695
0.00278538
0.00316602
0.00363601
0.0041148
0.00457517
0.00503967
0.00550089
0.00605268
0.00655712
0.00700114
0.00742276
0.00793889
0.00854884
0.00909002
0.00972069
0.0103669
0.0109033
0.0113343
0.0118828
0.0125807
0.013281
0.0138746
0.0144875
0.0151393
0.0158154
0.0165271
0.0171702
0.0178572
0.0185863
0.0193358
0.0200162
0.0207675
0.0216241
0.0224617
0.02322
0.0240141
-0.0113241
-0.013028
-0.0175602
-0.0217927
-0.0227013
-0.021547
-0.0201375
-0.0186853
-0.0172101
-0.0159764
-0.0150668
-0.0144208
-0.0140345
-0.013839
-0.0135632
-0.0129984
-0.0123634
-0.0119149
-0.0115318
-0.0111486
-0.0108679
-0.0106285
-0.0103778
-0.0102052
-0.010014
-0.00961415
-0.00914308
-0.00883174
-0.00855333
-0.00822119
-0.0079037
-0.00757795
-0.00724836
-0.0069562
-0.00660823
-0.00620524
-0.00583202
-0.0054882
-0.0052448
-0.00504827
-0.00492657
-0.0053941
-0.00616175
-0.00595228
-0.0047916
-0.00379803
-0.00332813
-0.00298624
-0.00258077
-0.00219791
-0.00186259
-0.00166808
-0.00168901
-0.00151663
-0.000997716
-0.000446212
-7.71602e-05
0.000114875
0.000271525
0.000563924
0.00103535
0.00156372
0.00203624
0.00242725
0.00278559
0.00316618
0.0036362
0.00411503
0.00457537
0.00503986
0.00550104
0.00605285
0.00655736
0.00700133
0.00742288
0.00793899
0.00854902
0.00909013
0.00972079
0.0103672
0.0109035
0.0113344
0.0118829
0.0125808
0.0132812
0.0138747
0.0144876
0.0151394
0.0158154
0.0165272
0.0171703
0.0178572
0.0185864
0.0193359
0.0200163
0.0207676
0.0216242
0.0224618
0.0232202
0.0240143
-0.0115859
-0.0131561
-0.0173189
-0.0214052
-0.0224618
-0.0214389
-0.020065
-0.0186288
-0.0171733
-0.0159566
-0.0150583
-0.0144177
-0.0140295
-0.0138277
-0.0135486
-0.0129868
-0.0123564
-0.0119096
-0.011526
-0.0111427
-0.010863
-0.0106249
-0.0103748
-0.0102024
-0.0100118
-0.00961245
-0.00914125
-0.00883014
-0.00855207
-0.00822
-0.00790286
-0.00757731
-0.0072474
-0.00695515
-0.00660722
-0.00620422
-0.0058308
-0.0054865
-0.00524319
-0.00504689
-0.00492443
-0.00539243
-0.0061628
-0.00595362
-0.00479072
-0.00379639
-0.00332716
-0.00298567
-0.00258021
-0.00219738
-0.00186181
-0.0016671
-0.00168874
-0.00151675
-0.000997371
-0.000445524
-7.64822e-05
0.000115364
0.00027177
0.000564038
0.00103554
0.00156409
0.00203666
0.00242758
0.00278582
0.00316635
0.00363641
0.00411529
0.00457559
0.00504007
0.0055012
0.00605303
0.00655762
0.00700156
0.00742301
0.00793908
0.00854922
0.00909024
0.00972089
0.0103674
0.0109037
0.0113345
0.0118829
0.012581
0.0132813
0.0138748
0.0144877
0.0151395
0.0158155
0.0165273
0.0171704
0.0178573
0.0185865
0.019336
0.0200164
0.0207676
0.0216243
0.0224619
0.0232204
0.0240147
-0.0118255
-0.0132803
-0.0170849
-0.0210109
-0.0222055
-0.0213218
-0.0199867
-0.0185652
-0.0171298
-0.0159322
-0.0150474
-0.0144137
-0.0140237
-0.0138136
-0.0135296
-0.0129719
-0.0123483
-0.0119037
-0.0115193
-0.0111356
-0.0108566
-0.0106202
-0.0103711
-0.0101985
-0.0100084
-0.00960989
-0.00913876
-0.00882782
-0.00855016
-0.00821836
-0.00790198
-0.00757699
-0.00724676
-0.00695435
-0.0066066
-0.0062037
-0.00582979
-0.00548464
-0.00524121
-0.00504505
-0.00492189
-0.00539045
-0.00616363
-0.0059547
-0.0047896
-0.00379468
-0.00332614
-0.00298503
-0.0025796
-0.00219685
-0.00186094
-0.001666
-0.00168846
-0.00151686
-0.00099693
-0.000444733
-7.57121e-05
0.000115942
0.000272087
0.0005642
0.00103578
0.00156453
0.00203716
0.00242796
0.00278608
0.00316654
0.00363666
0.00411558
0.00457583
0.0050403
0.00550136
0.00605322
0.0065579
0.0070018
0.00742316
0.00793918
0.00854944
0.00909033
0.00972101
0.0103677
0.010904
0.0113345
0.0118829
0.0125811
0.0132815
0.013875
0.0144878
0.0151396
0.0158156
0.0165275
0.0171705
0.0178574
0.0185865
0.0193361
0.0200164
0.0207676
0.0216244
0.022462
0.0232206
0.0240151
-0.0120453
-0.0134096
-0.0168677
-0.0206136
-0.0219322
-0.0211961
-0.0199055
-0.0184978
-0.0170819
-0.0159044
-0.0150341
-0.0144081
-0.0140164
-0.0137973
-0.0135077
-0.012955
-0.0123397
-0.0118979
-0.0115126
-0.0111282
-0.0108497
-0.0106151
-0.0103672
-0.0101939
-0.0100038
-0.00960647
-0.00913557
-0.00882451
-0.00854709
-0.00821569
-0.00790055
-0.00757668
-0.00724613
-0.00695358
-0.00660659
-0.0062042
-0.00582956
-0.00548313
-0.00523931
-0.00504309
-0.00491912
-0.00538794
-0.00616361
-0.00595494
-0.00478804
-0.00379292
-0.00332514
-0.00298435
-0.00257901
-0.00219635
-0.00186003
-0.00166483
-0.00168817
-0.00151693
-0.000996382
-0.000443857
-7.48572e-05
0.000116647
0.000272542
0.000564461
0.0010361
0.00156509
0.00203778
0.00242842
0.00278639
0.00316679
0.00363696
0.00411592
0.00457611
0.00504056
0.00550155
0.00605341
0.0065582
0.00700207
0.00742332
0.0079393
0.00854966
0.00909042
0.00972114
0.0103681
0.0109043
0.0113346
0.0118829
0.0125812
0.0132818
0.0138751
0.0144879
0.0151397
0.0158157
0.0165276
0.0171706
0.0178575
0.0185866
0.0193362
0.0200165
0.0207677
0.0216245
0.0224621
0.0232208
0.0240156
-0.0122462
-0.0135459
-0.016669
-0.0202124
-0.0216392
-0.0210601
-0.019822
-0.0184281
-0.0170307
-0.0158735
-0.0150183
-0.0144005
-0.0140074
-0.0137794
-0.0134842
-0.0129368
-0.0123306
-0.0118922
-0.0115062
-0.0111212
-0.0108428
-0.0106102
-0.0103635
-0.0101891
-0.0099985
-0.00960239
-0.00913186
-0.00882042
-0.0085428
-0.00821156
-0.00789811
-0.00757601
-0.00724512
-0.00695236
-0.00660687
-0.00620595
-0.00583061
-0.00548256
-0.00523814
-0.00504183
-0.00491697
-0.00538526
-0.00616227
-0.00595352
-0.00478549
-0.00379086
-0.00332405
-0.00298371
-0.00257858
-0.00219597
-0.0018591
-0.00166359
-0.00168788
-0.00151695
-0.00099578
-0.000442961
-7.39506e-05
0.000117518
0.000273213
0.000564879
0.00103653
0.0015658
0.00203856
0.002429
0.00278679
0.00316712
0.00363734
0.00411633
0.00457644
0.00504089
0.00550179
0.00605362
0.00655851
0.00700237
0.00742352
0.00793943
0.0085499
0.00909048
0.00972129
0.0103686
0.0109046
0.0113347
0.0118829
0.0125814
0.013282
0.0138753
0.0144881
0.0151399
0.0158159
0.0165278
0.0171707
0.0178575
0.0185867
0.0193363
0.0200166
0.0207677
0.0216246
0.0224621
0.023221
0.0240163
-0.0124289
-0.0136842
-0.0164862
-0.0198069
-0.0213261
-0.0209134
-0.019737
-0.0183571
-0.0169765
-0.0158392
-0.0149998
-0.014391
-0.0139971
-0.0137602
-0.0134593
-0.0129176
-0.0123213
-0.0118867
-0.0115002
-0.0111145
-0.0108362
-0.0106054
-0.0103604
-0.0101846
-0.00999317
-0.00959795
-0.0091278
-0.00881601
-0.00853777
-0.00820606
-0.00789443
-0.00757481
-0.00724359
-0.00695033
-0.0066069
-0.0062087
-0.00583325
-0.00548335
-0.00523814
-0.00504205
-0.00491667
-0.0053836
-0.00616012
-0.00595002
-0.00478113
-0.00378783
-0.00332248
-0.00298301
-0.00257847
-0.00219596
-0.0018583
-0.0016623
-0.00168753
-0.00151694
-0.000995232
-0.000442199
-7.31045e-05
0.000118543
0.000274169
0.000565516
0.0010371
0.00156669
0.00203955
0.00242974
0.00278734
0.00316761
0.00363785
0.00411682
0.00457685
0.00504129
0.0055021
0.00605387
0.00655885
0.00700273
0.00742376
0.00793958
0.0085501
0.00909051
0.00972148
0.0103691
0.010905
0.0113347
0.0118829
0.0125816
0.0132823
0.0138755
0.0144883
0.0151401
0.015816
0.016528
0.0171709
0.0178577
0.0185869
0.0193364
0.0200166
0.0207677
0.0216247
0.022462
0.0232211
0.0240171
-0.0125911
-0.0138162
-0.0163178
-0.0194018
-0.0209954
-0.0207554
-0.0196499
-0.0182845
-0.0169188
-0.0158013
-0.0149785
-0.0143796
-0.0139855
-0.0137397
-0.0134329
-0.0128972
-0.0123115
-0.0118813
-0.0114945
-0.0111082
-0.0108297
-0.0106009
-0.0103575
-0.0101806
-0.00998825
-0.00959347
-0.00912339
-0.00881156
-0.00853265
-0.00819971
-0.00788959
-0.00757307
-0.00724171
-0.00694758