/*--------------------------------*- C++ -*----------------------------------*\
| =========                 |                                                 |
| \\      /  F ield         | OpenFOAM: The Open Source CFD Toolbox           |
|  \\    /   O peration     | Version:  v1912                                 |
|   \\  /    A nd           | Website:  www.openfoam.com                      |
|    \\/     M anipulation  |                                                 |
\*---------------------------------------------------------------------------*/
FoamFile
{
    version     2.0;
    format      ascii;
    class       volVectorField;
    location    "4.35";
    object      U;
}
// * * * * * * * * * * * * * * * * * * * * * * * * * * * * * * * * * * * * * //

dimensions      [0 1 -1 0 0 0 0];


internalField   nonuniform List<vector> 
9600
(
(0.923569 0.00189773 0)
(1.06672 -0.00488346 0)
(0.944513 0.0259452 0)
(1.20434 -0.00395499 0)
(0.676518 -0.00933117 0)
(1.21565 0.0152186 0)
(0.845075 -0.00275769 0)
(1.06898 -0.000146702 0)
(0.910139 0.0133602 0)
(1.08057 -0.00108089 0)
(0.824401 0.0144984 0)
(1.15947 -0.0127319 0)
(0.771345 -0.00898307 0)
(1.19864 0.00118992 0)
(0.769092 0.00197146 0)
(1.16574 0.0120555 0)
(0.818769 0.0101624 0)
(1.16046 0.0165133 0)
(0.841085 0.0122238 0)
(1.14485 0.0182922 0)
(0.927157 0.00191759 0)
(1.06294 -0.00492371 0)
(0.946626 0.024764 0)
(1.19352 -0.000999699 0)
(0.694015 -0.0098316 0)
(1.20399 0.0138555 0)
(0.869676 -0.00123488 0)
(1.06439 -0.000787611 0)
(0.921182 0.0128781 0)
(1.07035 0.000775084 0)
(0.844414 0.0128946 0)
(1.13423 -0.0112322 0)
(0.799278 -0.0104051 0)
(1.16928 0.00167137 0)
(0.812678 0.00244291 0)
(1.12116 0.0112062 0)
(0.885597 0.0103761 0)
(1.08803 0.015341 0)
(0.945482 0.0138637 0)
(1.02605 0.015862 0)
(0.93484 0.00193211 0)
(1.05534 -0.00497844 0)
(0.951029 0.0235956 0)
(1.17518 0.00100544 0)
(0.731907 -0.0102493 0)
(1.17569 0.0124132 0)
(0.907789 -5.40789e-05 0)
(1.0505 -0.00113632 0)
(0.942231 0.0127114 0)
(1.0517 0.00171652 0)
(0.881928 0.0116316 0)
(1.09676 -0.0103333 0)
(0.854026 -0.0112227 0)
(1.11294 0.00168144 0)
(0.886579 0.00329335 0)
(1.05352 0.00958058 0)
(0.953386 0.0109453 0)
(1.02742 0.0140712 0)
(0.991431 0.0149034 0)
(0.999686 0.0151517 0)
(0.945993 0.00194628 0)
(1.04511 -0.00500372 0)
(0.95754 0.0226563 0)
(1.1497 0.00279758 0)
(0.786198 -0.0103917 0)
(1.132 0.0109684 0)
(0.948773 0.00100313 0)
(1.0303 -0.00131896 0)
(0.964031 0.0126167 0)
(1.02956 0.00257882 0)
(0.923661 0.0109254 0)
(1.05744 -0.00990436 0)
(0.911387 -0.0113988 0)
(1.05435 0.00100745 0)
(0.949108 0.00434398 0)
(1.00899 0.00834621 0)
(0.985046 0.0111769 0)
(1.00753 0.0135215 0)
(1.00003 0.0151692 0)
(1.00173 0.0154842 0)
(0.958809 0.00196065 0)
(1.03436 -0.00499376 0)
(0.965677 0.0218391 0)
(1.11957 0.00418271 0)
(0.846118 -0.0102581 0)
(1.0814 0.00954359 0)
(0.982078 0.00188344 0)
(1.01132 -0.00131006 0)
(0.978034 0.0125759 0)
(1.0106 0.00313203 0)
(0.955924 0.0104871 0)
(1.02788 -0.00973837 0)
(0.951563 -0.0111752 0)
(1.01472 0.000177374 0)
(0.982942 0.00513497 0)
(0.996054 0.00780893 0)
(0.994864 0.0110345 0)
(1.00607 0.013273 0)
(1.00467 0.0152501 0)
(1.00507 0.0158472 0)
(0.971089 0.00196394 0)
(1.0252 -0.00496404 0)
(0.974548 0.0211649 0)
(1.08907 0.00511033 0)
(0.899691 -0.00985617 0)
(1.03564 0.00829987 0)
(1.00222 0.0024503 0)
(0.99903 -0.00112135 0)
(0.982769 0.0125649 0)
(0.998835 0.00340529 0)
(0.974067 0.0101872 0)
(1.01188 -0.00966843 0)
(0.972999 -0.0108197 0)
(0.99567 -0.000475555 0)
(0.995227 0.00540659 0)
(0.996953 0.0076162 0)
(0.998632 0.010806 0)
(1.00673 0.0129744 0)
(1.00878 0.0152087 0)
(1.0084 0.0161637 0)
(0.981146 0.00194449 0)
(1.01884 -0.00492455 0)
(0.983094 0.0206762 0)
(1.06242 0.00564549 0)
(0.939678 -0.00925727 0)
(1.00326 0.00732925 0)
(1.01042 0.00269066 0)
(0.993887 -0.000772814 0)
(0.982614 0.0125555 0)
(0.994245 0.00349611 0)
(0.981904 0.00994109 0)
(1.00622 -0.00965905 0)
(0.983161 -0.0103954 0)
(0.988746 -0.00097298 0)
(0.997284 0.00528006 0)
(0.9985 0.00751552 0)
(1.00033 0.0105734 0)
(1.00593 0.0126736 0)
(1.00951 0.0150357 0)
(1.00987 0.0164394 0)
(0.988312 0.00189667 0)
(1.01517 -0.00488466 0)
(0.990598 0.0203613 0)
(1.04196 0.00591924 0)
(0.965193 -0.00857531 0)
(0.986081 0.00663321 0)
(1.01155 0.00267854 0)
(0.993274 -0.000347859 0)
(0.982516 0.012533 0)
(0.994609 0.00350125 0)
(0.985774 0.00969557 0)
(1.0059 -0.00970621 0)
(0.988558 -0.00991612 0)
(0.98709 -0.00133635 0)
(0.996171 0.00504103 0)
(0.997995 0.00740457 0)
(1.00028 0.0103216 0)
(1.00421 0.0124916 0)
(1.00757 0.0147838 0)
(1.0088 0.0166222 0)
(0.99287 0.00182131 0)
(1.0132 -0.00485666 0)
(0.996913 0.0201867 0)
(1.02777 0.00604571 0)
(0.979463 -0.0079113 0)
(0.98075 0.00614817 0)
(1.0104 0.00252023 0)
(0.994487 6.55086e-05 0)
(0.984657 0.0124915 0)
(0.997428 0.00346795 0)
(0.989886 0.00944253 0)
(1.00747 -0.00977044 0)
(0.992325 -0.00941236 0)
(0.987712 -0.00154064 0)
(0.99509 0.00480259 0)
(0.996876 0.00726748 0)
(0.999531 0.01007 0)
(1.00264 0.012419 0)
(1.00518 0.014489 0)
(1.00661 0.016718 0)
(0.995595 0.00172525 0)
(1.01169 -0.00485112 0)
(1.0022 0.0201143 0)
(1.0186 0.00610956 0)
(0.98677 -0.00732765 0)
(0.982361 0.00578793 0)
(1.00967 0.0023161 0)
(0.996083 0.000422684 0)
(0.988693 0.0124236 0)
(1.00093 0.0034089 0)
(0.995201 0.0091965 0)
(1.00941 -0.00979451 0)
(0.995458 -0.00889718 0)
(0.989481 -0.00160518 0)
(0.99504 0.00456711 0)
(0.996329 0.00716317 0)
(0.999062 0.00981307 0)
(1.00177 0.0123917 0)
(1.00357 0.0142061 0)
(1.00466 0.0167763 0)
(0.997274 0.00161973 0)
(1.0098 -0.00487348 0)
(1.00659 0.020103 0)
(1.01302 0.00617478 0)
(0.990522 -0.00684632 0)
(0.986975 0.00548296 0)
(1.01004 0.00213283 0)
(0.997624 0.00071391 0)
(0.993435 0.0123214 0)
(1.00424 0.00332403 0)
(1.00073 0.00896482 0)
(1.01117 -0.00973435 0)
(0.998057 -0.00838865 0)
(0.991696 -0.00156999 0)
(0.995873 0.0043481 0)
(0.996448 0.00712895 0)
(0.998995 0.0095247 0)
(1.00142 0.0123927 0)
(1.00269 0.0139903 0)
(1.00322 0.016801 0)
(0.998454 0.00151735 0)
(1.0072 -0.00492334 0)
(1.00999 0.0201165 0)
(1.01 0.00625188 0)
(0.992757 -0.00646984 0)
(0.992205 0.0051941 0)
(1.01114 0.00199859 0)
(0.99902 0.000945757 0)
(0.997928 0.012184 0)
(1.00706 0.00322331 0)
(1.00529 0.00874808 0)
(1.01246 -0.00957762 0)
(0.99993 -0.00790476 0)
(0.993729 -0.00145998 0)
(0.997051 0.00414948 0)
(0.996839 0.00715958 0)
(0.999009 0.00921999 0)
(1.00114 0.0124258 0)
(1.00209 0.0138573 0)
(1.00205 0.0167704 0)
(0.999434 0.00142948 0)
(1.00395 -0.00499475 0)
(1.01224 0.0201207 0)
(1.00889 0.00634206 0)
(0.994479 -0.00618066 0)
(0.99682 0.00490824 0)
(1.01231 0.00191802 0)
(1.00015 0.00113127 0)
(1.00166 0.0120157 0)
(1.0093 0.00312716 0)
(1.00834 0.00854817 0)
(1.01308 -0.00933267 0)
(1.00092 -0.00745468 0)
(0.995098 -0.00129489 0)
(0.99811 0.00395054 0)
(0.997198 0.00724898 0)
(0.998939 0.00893276 0)
(1.00077 0.0124711 0)
(1.00159 0.0138049 0)
(1.00117 0.0166879 0)
(1.00034 0.00136472 0)
(1.00034 -0.00507591 0)
(1.01323 0.0200843 0)
(1.00921 0.00644548 0)
(0.996128 -0.00594906 0)
(1.00027 0.00462719 0)
(1.01307 0.00188404 0)
(1.0008 0.00128222 0)
(1.00438 0.0118208 0)
(1.01085 0.00305184 0)
(1.01007 0.0083687 0)
(1.01297 -0.00900668 0)
(1.00106 -0.00704009 0)
(0.995592 -0.00109215 0)
(0.998785 0.0037293 0)
(0.997431 0.00738756 0)
(0.998856 0.00868151 0)
(1.00045 0.0124897 0)
(1.00137 0.0138313 0)
(1.00085 0.0165615 0)
(1.00118 0.00132776 0)
(0.996839 -0.00515269 0)
(1.01295 0.0199835 0)
(1.01047 0.00654324 0)
(0.997854 -0.00574522 0)
(1.00238 0.00436403 0)
(1.01318 0.00188624 0)
(1.00084 0.0014045 0)
(1.00603 0.0116011 0)
(1.01165 0.0030024 0)
(1.0109 0.00820693 0)
(1.01234 -0.00859906 0)
(1.00064 -0.00665739 0)
(0.995299 -0.000866297 0)
(0.998976 0.00347203 0)
(0.997508 0.00754869 0)
(0.998813 0.00847045 0)
(1.00032 0.0124429 0)
(1.00152 0.0139221 0)
(1.00121 0.0163873 0)
(1.00193 0.0013183 0)
(0.993879 -0.00520994 0)
(1.01157 0.0198029 0)
(1.01215 0.00661725 0)
(0.999612 -0.00554095 0)
(1.00323 0.0041353 0)
(1.01268 0.00191476 0)
(1.0003 0.00150659 0)
(1.00664 0.0113557 0)
(1.01174 0.00297133 0)
(1.01116 0.00805747 0)
(1.01149 -0.00811283 0)
(1.00003 -0.00629851 0)
(0.994502 -0.000625957 0)
(0.998693 0.00317267 0)
(0.997339 0.00769927 0)
(0.998684 0.00830539 0)
(1.00023 0.0122986 0)
(1.00182 0.0140465 0)
(1.00194 0.016164 0)
(1.00251 0.00133128 0)
(0.991749 -0.00523272 0)
(1.00943 0.0195393 0)
(1.01382 0.00664959 0)
(1.00124 -0.00531514 0)
(1.00308 0.00395321 0)
(1.01179 0.00195882 0)
(0.999377 0.00159817 0)
(1.00641 0.0110857 0)
(1.01129 0.00294435 0)
(1.01104 0.00790735 0)
(1.01068 -0.0075552 0)
(0.999551 -0.00595509 0)
(0.99353 -0.000353765 0)
(0.998049 0.00284145 0)
(0.996814 0.00781121 0)
(0.998259 0.00819876 0)
(0.99991 0.0120368 0)
(1.00185 0.0141674 0)
(1.00245 0.015908 0)
(1.00291 0.00135873 0)
(0.99049 -0.00521144 0)
(1.00699 0.0192006 0)
(1.01518 0.00663077 0)
(1.00258 -0.00505565 0)
(1.00228 0.00382363 0)
(1.01078 0.00200721 0)
(0.998345 0.00168867 0)
(1.00565 0.0107914 0)
(1.01056 0.00291466 0)
(1.01065 0.00773539 0)
(1.01004 -0.00694004 0)
(0.99938 -0.00561352 0)
(0.992639 -3.50873e-05 0)
(0.997227 0.00250311 0)
(0.995912 0.0078708 0)
(0.997437 0.0081626 0)
(0.99917 0.0116687 0)
(1.0013 0.0142514 0)
(1.00233 0.0156415 0)
(1.00313 0.00139295 0)
(0.989922 -0.00514292 0)
(1.00471 0.0187997 0)
(1.01614 0.00656448 0)
(1.00352 -0.00475974 0)
(1.00123 0.0037442 0)
(1.00989 0.00205207 0)
(0.997433 0.00178401 0)
(1.0047 0.0104761 0)
(1.00975 0.00287577 0)
(1.01012 0.00753568 0)
(1.00954 -0.00629225 0)
(0.999533 -0.00526149 0)
(0.991982 0.000331527 0)
(0.99642 0.00219241 0)
(0.994754 0.00787337 0)
(0.996315 0.0082047 0)
(0.998083 0.0112357 0)
(1.00019 0.0142749 0)
(1.00154 0.0153807 0)
(1.00323 0.0014293 0)
(0.989775 -0.00503129 0)
(1.00291 0.0183481 0)
(1.01671 0.00646109 0)
(1.00407 -0.00443127 0)
(1.00022 0.00370616 0)
(1.00921 0.00208658 0)
(0.99676 0.00189022 0)
(1.00384 0.0101431 0)
(1.00904 0.00282575 0)
(1.00956 0.00730676 0)
(1.0091 -0.00563054 0)
(0.999917 -0.00490102 0)
(0.991617 0.000745095 0)
(0.995769 0.00194883 0)
(0.99356 0.0078188 0)
(0.995117 0.00832008 0)
(0.996893 0.0107838 0)
(0.998792 0.0142229 0)
(1.00038 0.0151404 0)
(1.00326 0.00146477 0)
(0.989812 -0.00488366 0)
(1.00171 0.0178545 0)
(1.01701 0.00633558 0)
(1.00429 -0.00407834 0)
(0.999425 0.00369945 0)
(1.00876 0.00210738 0)
(0.996341 0.00200916 0)
(1.00323 0.00979555 0)
(1.0085 0.0027682 0)
(1.00909 0.00704999 0)
(1.00864 -0.00496183 0)
(1.0004 -0.00453222 0)
(0.991543 0.00119463 0)
(0.995327 0.00180286 0)
(0.992548 0.00771324 0)
(0.994062 0.00848443 0)
(0.995857 0.0103548 0)
(0.99745 0.0140836 0)
(0.999193 0.014931 0)
(1.00326 0.00149857 0)
(0.989901 -0.00470771 0)
(1.00104 0.0173235 0)
(1.01715 0.00620482 0)
(1.00426 -0.00371013 0)
(0.998902 0.00371417 0)
(1.0085 0.00211673 0)
(0.996139 0.00213406 0)
(1.0029 0.00944203 0)
(1.00813 0.00270469 0)
(1.00872 0.00677605 0)
(1.00811 -0.00428972 0)
(1.00088 -0.00415847 0)
(0.991723 0.00166957 0)
(0.995083 0.0017653 0)
(0.991871 0.00757071 0)
(0.993276 0.00867426 0)
(0.995136 0.00998232 0)
(0.996412 0.0138415 0)
(0.998237 0.0147509 0)
(1.00326 0.00153074 0)
(0.99001 -0.00450978 0)
(1.00073 0.0167567 0)
(1.01721 0.00608048 0)
(1.00407 -0.00333323 0)
(0.998609 0.00374346 0)
(1.00834 0.00211679 0)
(0.996105 0.00225945 0)
(1.00279 0.00908456 0)
(1.0079 0.00264172 0)
(1.00842 0.0064955 0)
(1.00752 -0.00361549 0)
(1.00126 -0.00379136 0)
(0.992105 0.00214946 0)
(0.994989 0.00183259 0)
(0.991592 0.007405 0)
(0.992781 0.00886933 0)
(0.994764 0.0096852 0)
(0.995762 0.0134912 0)
(0.997595 0.0145953 0)
(1.00326 0.00156013 0)
(0.990165 -0.00429222 0)
(1.00061 0.0161536 0)
(1.01722 0.00597198 0)
(1.0038 -0.00295479 0)
(0.998475 0.00378311 0)
(1.00824 0.00210983 0)
(0.996211 0.00238319 0)
(1.00281 0.00872333 0)
(1.00775 0.0025779 0)
(1.00813 0.00621958 0)
(1.00689 -0.00294092 0)
(1.00152 -0.0034331 0)
(0.99264 0.00261831 0)
(0.994998 0.00199809 0)
(0.991706 0.00721992 0)
(0.992544 0.00904945 0)
(0.994699 0.00947001 0)
(0.995474 0.0130464 0)
(0.997238 0.0144575 0)
(1.00325 0.00158619 0)
(0.990416 -0.00405795 0)
(1.00054 0.0155158 0)
(1.01716 0.0058838 0)
(1.00353 -0.00257931 0)
(0.998445 0.00382952 0)
(1.00816 0.00209602 0)
(0.996441 0.00250073 0)
(1.00285 0.00836879 0)
(1.00762 0.00251287 0)
(1.00778 0.00595615 0)
(1.00623 -0.00226775 0)
(1.00167 -0.00308645 0)
(0.993286 0.0030636 0)
(0.995076 0.00224719 0)
(0.99216 0.00701692 0)
(0.992524 0.00920631 0)
(0.994868 0.00934407 0)
(0.995478 0.0125258 0)
(0.997101 0.0143058 0)
(1.00322 0.00160615 0)
(0.990798 -0.00380589 0)
(1.00046 0.0148466 0)
(1.01696 0.00581329 0)
(1.00331 -0.00220688 0)
(0.998482 0.00387915 0)
(1.00806 0.00207797 0)
(0.99678 0.00260258 0)
(1.00285 0.00803096 0)
(1.00747 0.00245013 0)
(1.00735 0.00571128 0)
(1.00558 -0.00159013 0)
(1.00172 -0.00276181 0)
(0.994002 0.00347427 0)
(0.99521 0.00256907 0)
(0.992876 0.00680027 0)
(0.992699 0.00933099 0)
(0.995203 0.00930816 0)
(0.995714 0.0119606 0)
(0.997135 0.0141003 0)
(1.00316 0.0016176 0)
(0.991324 -0.00353626 0)
(1.00036 0.0141522 0)
(1.01657 0.00576001 0)
(1.00317 -0.00184595 0)
(0.998569 0.00393661 0)
(1.00795 0.00205555 0)
(0.997213 0.00269369 0)
(1.00276 0.00771331 0)
(1.00731 0.00239172 0)
(1.00682 0.00547833 0)
(1.00496 -0.000912912 0)
(1.0017 -0.00245305 0)
(0.994749 0.00384137 0)
(0.995398 0.00294804 0)
(0.99376 0.00657671 0)
(0.993058 0.00941292 0)
(0.995647 0.00935547 0)
(0.996138 0.0113896 0)
(0.997321 0.0138092 0)
(1.00307 0.00161734 0)
(0.991979 -0.00324805 0)
(1.00026 0.0134411 0)
(1.01597 0.00571892 0)
(1.00315 -0.00150043 0)
(0.998695 0.00400119 0)
(1.00783 0.00203097 0)
(0.997718 0.00276866 0)
(1.00256 0.0074271 0)
(1.00712 0.00233746 0)
(1.00621 0.00525995 0)
(1.00437 -0.000244089 0)
(1.00164 -0.00216245 0)
(0.995484 0.00414858 0)
(0.995636 0.0033736 0)
(0.994719 0.00635745 0)
(0.993591 0.00943755 0)
(0.99615 0.00947953 0)
(0.996712 0.0108546 0)
(0.997655 0.0134103 0)
(1.00293 0.00160301 0)
(0.992722 -0.00294326 0)
(1.0002 0.0127255 0)
(1.01516 0.00568492 0)
(1.00321 -0.00117314 0)
(0.998852 0.00407436 0)
(1.0077 0.0020074 0)
(0.99827 0.00282718 0)
(1.00225 0.00717771 0)
(1.00692 0.00229114 0)
(1.00558 0.00504813 0)
(1.0038 0.000413529 0)
(1.00157 -0.00188479 0)
(0.996168 0.00438059 0)
(0.995915 0.00384006 0)
(0.995666 0.00615404 0)
(0.994276 0.00938346 0)
(0.996673 0.00965894 0)
(0.997393 0.0104086 0)
(0.998138 0.0129001 0)
(1.00276 0.00157338 0)
(0.993494 -0.00262462 0)
(1.00021 0.0120147 0)
(1.0142 0.00565804 0)
(1.00334 -0.000874852 0)
(0.999032 0.00415831 0)
(1.00756 0.00198562 0)
(0.998844 0.00287481 0)
(1.00189 0.00696869 0)
(1.00673 0.00225891 0)
(1.00497 0.00483285 0)
(1.00326 0.00105182 0)
(1.00151 -0.00160448 0)
(0.996777 0.00453045 0)
(0.996217 0.00432363 0)
(0.996531 0.00598258 0)
(0.995074 0.00924273 0)
(0.997191 0.00986153 0)
(0.998124 0.0100924 0)
(0.998749 0.0122987 0)
(1.00257 0.00152763 0)
(0.99424 -0.00229461 0)
(1.00031 0.0113179 0)
(1.01316 0.00563093 0)
(1.00349 -0.000609003 0)
(0.999225 0.00424625 0)
(1.00742 0.00197287 0)
(0.999417 0.00290262 0)
(1.00151 0.00680466 0)
(1.00654 0.00223655 0)
(1.00442 0.00462118 0)
(1.00274 0.00166449 0)
(1.00147 -0.0013126 0)
(0.997304 0.00459476 0)
(0.996523 0.00480775 0)
(0.997272 0.00586316 0)
(0.995937 0.00901689 0)
(0.997688 0.0100424 0)
(0.998842 0.0099154 0)
(0.999446 0.0116524 0)
(1.00237 0.00146685 0)
(0.994913 -0.00195724 0)
(1.00048 0.0106387 0)
(1.01213 0.00560333 0)
(1.00363 -0.000370977 0)
(0.999421 0.00433804 0)
(1.00727 0.00197271 0)
(0.999967 0.00290979 0)
(1.00115 0.00667864 0)
(1.00636 0.00223258 0)
(1.00398 0.00440228 0)
(1.00225 0.00225018 0)
(1.00147 -0.000992295 0)
(0.997769 0.0045751 0)
(0.996814 0.00527857 0)
(0.997868 0.00581307 0)
(0.996813 0.00871362 0)
(0.99816 0.0101562 0)
(0.999489 0.00986527 0)
(1.00017 0.0110296 0)
(1.00219 0.00139135 0)
(0.995486 -0.00161519 0)
(1.0007 0.00998038 0)
(1.01117 0.00557202 0)
(1.00372 -0.000158197 0)
(0.99961 0.00442676 0)
(1.00713 0.00199287 0)
(1.00047 0.00289339 0)
(1.00084 0.00658327 0)
(1.00618 0.00225073 0)
(1.00365 0.00417812 0)
(1.00179 0.00280407 0)
(1.00149 -0.000631053 0)
(0.998204 0.00447691 0)
(0.997085 0.00570915 0)
(0.998322 0.00584759 0)
(0.997653 0.00835351 0)
(0.998614 0.0101703 0)
(1.00002 0.00990127 0)
(1.00084 0.0105146 0)
(1.00203 0.00130497 0)
(0.995955 -0.00127546 0)
(1.00095 0.00934745 0)
(1.01032 0.0055349 0)
(1.00376 3.22554e-05 0)
(0.999787 0.004505 0)
(1.00698 0.00203713 0)
(1.00093 0.00285638 0)
(1.0006 0.00651431 0)
(1.006 0.00229353 0)
(1.00344 0.00394872 0)
(1.00137 0.003313 0)
(1.00151 -0.000225469 0)
(0.998638 0.00431986 0)
(0.997345 0.00607451 0)
(0.998651 0.00597048 0)
(0.998423 0.00796683 0)
(0.99906 0.0100694 0)
(1.00044 0.00995818 0)
(1.0014 0.0101559 0)
(1.00191 0.00120878 0)
(0.99633 -0.000937952 0)
(1.00119 0.00873505 0)
(1.0096 0.00549245 0)
(1.00375 0.000209782 0)
(0.999945 0.00456396 0)
(1.00682 0.00210702 0)
(1.00132 0.00280727 0)
(1.00043 0.00646034 0)
(1.00581 0.0023685 0)
(1.00334 0.00371693 0)
(1.00101 0.00377135 0)
(1.00154 0.000225908 0)
(0.999095 0.00412895 0)
(0.997608 0.00635331 0)
(0.998879 0.00616603 0)
(0.999101 0.00759916 0)
(0.999506 0.00987245 0)
(1.00076 0.00999096 0)
(1.00182 0.00994122 0)
(1.0018 0.0011039 0)
(0.996627 -0.000604163 0)
(1.00141 0.00814685 0)
(1.00899 0.0054337 0)
(1.0037 0.000384287 0)
(1.00008 0.00459705 0)
(1.00666 0.00220683 0)
(1.00166 0.00274841 0)
(1.0003 0.00641523 0)
(1.00562 0.002473 0)
(1.00334 0.00348796 0)
(1.00072 0.00416664 0)
(1.00154 0.000724207 0)
(0.99958 0.00392873 0)
(0.997892 0.00653904 0)
(0.999034 0.00641243 0)
(0.999681 0.00727516 0)
(0.99996 0.00959177 0)
(1.001 0.00997732 0)
(1.00209 0.00983073 0)
(1.00173 0.000993261 0)
(0.996867 -0.000278212 0)
(1.0016 0.0075845 0)
(1.00847 0.00534856 0)
(1.00362 0.000575675 0)
(1.00019 0.00460272 0)
(1.00651 0.00232794 0)
(1.00195 0.00267649 0)
(1.00021 0.0063674 0)
(1.00541 0.00261102 0)
(1.00341 0.0032732 0)
(1.0005 0.00449389 0)
(1.00151 0.00126229 0)
(1.00009 0.00374253 0)
(0.998215 0.0066314 0)
(0.999137 0.00670465 0)
(1.00016 0.00701959 0)
(1.00043 0.0092286 0)
(1.00122 0.00989852 0)
(1.00225 0.00977839 0)
(1.00166 0.000877142 0)
(0.997067 4.22603e-05 0)
(1.00175 0.00705008 0)
(1.00802 0.00522857 0)
(1.00352 0.00078904 0)
(1.00027 0.00458258 0)
(1.00635 0.00246881 0)
(1.0022 0.00261087 0)
(1.00016 0.00629702 0)
(1.0052 0.00278089 0)
(1.00353 0.00307713 0)
(1.00036 0.00475282 0)
(1.00145 0.00183088 0)
(1.00059 0.00358837 0)
(0.998591 0.00661575 0)
(0.99921 0.00702051 0)
(1.00054 0.0068717 0)
(1.0009 0.00881958 0)
(1.00145 0.00973738 0)
(1.00232 0.00972934 0)
(1.00161 0.000757587 0)
(0.997239 0.000350295 0)
(1.00186 0.00655014 0)
(1.00762 0.00508146 0)
(1.00341 0.00101799 0)
(1.00033 0.00454127 0)
(1.00618 0.00261522 0)
(1.00243 0.00255455 0)
(1.00013 0.00621813 0)
(1.00496 0.00296833 0)
(1.00368 0.00289904 0)
(1.0003 0.00494015 0)
(1.00137 0.00240857 0)
(1.00108 0.0035024 0)
(0.99903 0.00651066 0)
(0.999282 0.00731493 0)
(1.00081 0.00682136 0)
(1.00136 0.00840901 0)
(1.00171 0.00950722 0)
(1.00237 0.00964958 0)
(1.00157 0.00063719 0)
(0.99739 0.00064298 0)
(1.00194 0.00608146 0)
(1.00725 0.00489626 0)
(1.00331 0.0012686 0)
(1.00036 0.00448639 0)
(1.00601 0.0027664 0)
(1.00264 0.00250365 0)
(1.00012 0.00611976 0)
(1.00472 0.00317518 0)
(1.00385 0.00274865 0)
(1.00032 0.00506198 0)
(1.00126 0.00297512 0)
(1.00154 0.00346916 0)
(0.999526 0.00633527 0)
(0.999371 0.00757906 0)
(1.00099 0.0068737 0)
(1.00181 0.00803045 0)
(1.00201 0.00921819 0)
(1.0024 0.00955154 0)
(1.00153 0.000514652 0)
(0.997525 0.000919319 0)
(1.002 0.00565491 0)
(1.00692 0.00467806 0)
(1.0032 0.0015194 0)
(1.00037 0.00442514 0)
(1.00583 0.00290246 0)
(1.00284 0.00249048 0)
(1.00013 0.00599747 0)
(1.00445 0.00338488 0)
(1.00402 0.00264298 0)
(1.0004 0.00510975 0)
(1.00114 0.00352828 0)
(1.00193 0.00352258 0)
(1.00008 0.00608024 0)
(0.999505 0.007776 0)
(1.00108 0.00701048 0)
(1.0022 0.00773693 0)
(1.00235 0.00888938 0)
(1.00245 0.00943017 0)
(1.00149 0.000396556 0)
(0.997647 0.00116837 0)
(1.00203 0.00526859 0)
(1.0066 0.00443603 0)
(1.0031 0.00177 0)
(1.00036 0.00437749 0)
(1.00565 0.00302064 0)
(1.00303 0.00246622 0)
(1.00016 0.00588913 0)
(1.00418 0.00359437 0)
(1.00418 0.00255607 0)
(1.00055 0.00511202 0)
(1.00103 0.00402144 0)
(1.00226 0.00363554 0)
(1.00068 0.00580227 0)
(0.999708 0.00787182 0)
(1.00111 0.0072116 0)
(1.00253 0.00752337 0)
(1.00273 0.00853419 0)
(1.00255 0.00927315 0)
(1.00144 0.000279082 0)
(0.997755 0.00139607 0)
(1.00203 0.00492456 0)
(1.0063 0.00416744 0)
(1.00301 0.00200798 0)
(1.00034 0.00433269 0)
(1.00545 0.0031301 0)
(1.00321 0.00246478 0)
(1.00021 0.00574522 0)
(1.0039 0.00381082 0)
(1.00433 0.00251478 0)
(1.00077 0.00503731 0)
(1.00092 0.00448438 0)
(1.00251 0.00380893 0)
(1.0013 0.00547869 0)
(0.999993 0.00780397 0)
(1.0011 0.00742363 0)
(1.00277 0.00739535 0)
(1.00312 0.00810588 0)
(1.00271 0.00896733 0)
(1.0014 0.000171133 0)
(0.997853 0.00158955 0)
(1.00201 0.00462685 0)
(1.00602 0.00388506 0)
(1.00292 0.00222076 0)
(1.00031 0.00432812 0)
(1.00524 0.00319963 0)
(1.00337 0.00246857 0)
(1.00028 0.00561399 0)
(1.00362 0.00400535 0)
(1.00445 0.00249953 0)
(1.00104 0.00495091 0)
(1.00084 0.00484156 0)
(1.00265 0.00403336 0)
(1.00189 0.00518816 0)
(1.00038 0.00754869 0)
(1.00111 0.00750451 0)
(1.0029 0.00725354 0)
(1.00345 0.0076122 0)
(1.00297 0.00857003 0)
(1.00136 6.72833e-05 0)
(0.997942 0.00175292 0)
(1.00196 0.0043686 0)
(1.00575 0.00359711 0)
(1.00285 0.00239989 0)
(1.00026 0.004332 0)
(1.00501 0.00328996 0)
(1.00353 0.00245629 0)
(1.00038 0.00546627 0)
(1.00333 0.00422255 0)
(1.00455 0.00250089 0)
(1.00135 0.00481191 0)
(1.00078 0.00515888 0)
(1.00275 0.00426483 0)
(1.00244 0.00490225 0)
(1.00081 0.0072335 0)
(1.00113 0.00741952 0)
(1.00294 0.00709138 0)
(1.00379 0.00715784 0)
(1.00337 0.00817369 0)
(1.00132 -2.47616e-05 0)
(0.998025 0.00187183 0)
(1.00188 0.00415626 0)
(1.00548 0.00330761 0)
(1.00278 0.00253689 0)
(1.00021 0.00436872 0)
(1.00478 0.0033452 0)
(1.00366 0.00247118 0)
(1.00049 0.00531949 0)
(1.00305 0.00438557 0)
(1.0046 0.00258508 0)
(1.00172 0.00460659 0)
(1.00077 0.00539165 0)
(1.00272 0.00455 0)
(1.00292 0.00463645 0)
(1.0013 0.00687631 0)
(1.00118 0.00741677 0)
(1.00294 0.00712296 0)
(1.00407 0.00700629 0)
(1.00386 0.00793442 0)
(1.00128 -0.000107869 0)
(0.998102 0.00195287 0)
(1.00177 0.00398236 0)
(1.00523 0.00303623 0)
(1.00274 0.00262642 0)
(1.00014 0.00441533 0)
(1.00452 0.00342617 0)
(1.00379 0.00245654 0)
(1.00062 0.00517302 0)
(1.00277 0.00456468 0)
(1.00463 0.0026507 0)
(1.0021 0.00442771 0)
(1.00082 0.00549485 0)
(1.00266 0.00488558 0)
(1.00331 0.00449418 0)
(1.00187 0.00645173 0)
(1.00134 0.00736466 0)
(1.00291 0.00722184 0)
(1.00429 0.00689389 0)
(1.00428 0.00758858 0)
(1.00124 -0.000175986 0)
(0.998179 0.00198942 0)
(1.00164 0.00384544 0)
(1.00498 0.00279112 0)
(1.00271 0.00265474 0)
(1.00008 0.00446588 0)
(1.00425 0.00352006 0)
(1.00388 0.00244154 0)
(1.00078 0.0050229 0)
(1.00249 0.00473457 0)
(1.00459 0.00274824 0)
(1.0025 0.00422164 0)
(1.00095 0.00555334 0)
(1.00253 0.0052005 0)
(1.00357 0.00449169 0)
(1.00244 0.00601999 0)
(1.00158 0.00717562 0)
(1.00285 0.00735023 0)
(1.00438 0.0067746 0)
(1.00473 0.00722743 0)
(1.0012 -0.000225485 0)
(0.998255 0.00197316 0)
(1.00148 0.00374262 0)
(1.00473 0.00257531 0)
(1.0027 0.00263772 0)
(1.00002 0.00450978 0)
(1.00396 0.00362544 0)
(1.00397 0.00244793 0)
(1.00095 0.00485349 0)
(1.00223 0.00485953 0)
(1.00451 0.00293807 0)
(1.0029 0.00397498 0)
(1.00114 0.00550611 0)
(1.00242 0.00552875 0)
(1.00372 0.00462466 0)
(1.00299 0.00567716 0)
(1.00197 0.00699955 0)
(1.00283 0.00749779 0)
(1.00438 0.0068692 0)
(1.00501 0.00712508 0)
(1.00115 -0.00026334 0)
(0.998338 0.00192368 0)
(1.00131 0.00365888 0)
(1.00447 0.00240814 0)
(1.00271 0.00256132 0)
(0.999976 0.00450886 0)
(1.00365 0.00378295 0)
(1.00402 0.00245195 0)
(1.00115 0.00466031 0)
(1.002 0.00501634 0)
(1.00436 0.00313525 0)
(1.00328 0.00377649 0)
(1.00145 0.00543792 0)
(1.00232 0.00579326 0)
(1.00373 0.00480535 0)
(1.00348 0.00549579 0)
(1.00245 0.00669804 0)
(1.00288 0.00749696 0)
(1.00432 0.00692063 0)
(1.00516 0.00698908 0)
(1.0011 -0.000278461 0)
(0.998424 0.00182929 0)
(1.00113 0.00359001 0)
(1.0042 0.00228472 0)
(1.00273 0.00245188 0)
(0.999951 0.00449514 0)
(1.00333 0.00391508 0)
(1.00404 0.00250608 0)
(1.00138 0.00448809 0)
(1.00179 0.00508656 0)
(1.00417 0.00339007 0)
(1.00363 0.00368576 0)
(1.0018 0.00525394 0)
(1.00226 0.00593072 0)
(1.0037 0.00508118 0)
(1.00387 0.00541559 0)
(1.00296 0.00629929 0)
(1.00301 0.00735541 0)
(1.00422 0.0069379 0)
(1.00522 0.0068414 0)
(1.00105 -0.000281076 0)
(0.998518 0.00170623 0)
(1.00096 0.00353029 0)
(1.00392 0.00220949 0)
(1.00277 0.00231641 0)
(0.999958 0.00441738 0)
(1.00301 0.00407424 0)
(1.00402 0.00259065 0)
(1.00161 0.00428373 0)
(1.00165 0.00514568 0)
(1.00394 0.00368792 0)
(1.00389 0.00364097 0)
(1.00221 0.00501528 0)
(1.0023 0.00603166 0)
(1.00361 0.00531644 0)
(1.0041 0.0053783 0)
(1.00345 0.00593357 0)
(1.00326 0.00709242 0)
(1.00413 0.00694879 0)
(1.00523 0.00672595 0)
(1.001 -0.000264364 0)
(0.998621 0.00156287 0)
(1.00079 0.0034575 0)
(1.00363 0.00217897 0)
(1.00281 0.00216897 0)
(1 0.00430585 0)
(1.00269 0.00420713 0)
(1.00396 0.00269205 0)
(1.00185 0.00411629 0)
(1.00155 0.00516471 0)
(1.00367 0.00394575 0)
(1.00409 0.00367488 0)
(1.00264 0.00478871 0)
(1.0024 0.00599107 0)
(1.00349 0.00546372 0)
(1.00423 0.00543695 0)
(1.00389 0.00569191 0)
(1.00361 0.00673028 0)
(1.00409 0.00687189 0)
(1.00517 0.00666548 0)
(1.00095 -0.000237195 0)
(0.998731 0.0014091 0)
(1.00063 0.0033718 0)
(1.00332 0.0021965 0)
(1.00284 0.00201941 0)
(1.00008 0.00413587 0)
(1.0024 0.00431726 0)
(1.00387 0.00283076 0)
(1.00209 0.00395526 0)
(1.00151 0.00512985 0)
(1.00341 0.00419175 0)
(1.0042 0.00378937 0)
(1.00306 0.00456148 0)
(1.00259 0.00585852 0)
(1.00342 0.00558175 0)
(1.00428 0.00552618 0)
(1.0042 0.00554358 0)
(1.00398 0.00634369 0)
(1.00416 0.00665679 0)
(1.00507 0.00663847 0)
(1.0009 -0.000199443 0)
(0.998848 0.00125801 0)
(1.00049 0.00325889 0)
(1.00301 0.0022359 0)
(1.00287 0.00188799 0)
(1.0002 0.00393288 0)
(1.00213 0.00439269 0)
(1.00373 0.00297073 0)
(1.00232 0.00381406 0)
(1.00152 0.00508004 0)
(1.00317 0.00440421 0)
(1.00422 0.0039303 0)
(1.00344 0.00438083 0)
(1.00284 0.00567378 0)
(1.00338 0.00562438 0)
(1.00427 0.00557241 0)
(1.00441 0.00546205 0)
(1.00432 0.00606752 0)
(1.00434 0.00635774 0)
(1.005 0.0065692 0)
(1.00085 -0.000156876 0)
(0.998968 0.00111653 0)
(1.00038 0.00311372 0)
(1.00269 0.00230061 0)
(1.00288 0.00179163 0)
(1.00035 0.00368856 0)
(1.0019 0.00440957 0)
(1.00357 0.00312238 0)
(1.00253 0.00369272 0)
(1.00159 0.00500008 0)
(1.00294 0.00457499 0)
(1.00418 0.0040878 0)
(1.00376 0.00426767 0)
(1.00313 0.00544735 0)
(1.0034 0.00560094 0)
(1.00423 0.00560734 0)
(1.00454 0.00540453 0)
(1.00458 0.00588935 0)
(1.00456 0.00605687 0)
(1.00502 0.00637302 0)
(1.0008 -0.000112453 0)
(0.999088 0.000992701 0)
(1.00029 0.00294652 0)
(1.00237 0.00236412 0)
(1.00286 0.00173924 0)
(1.00053 0.00343638 0)
(1.00171 0.00437625 0)
(1.00338 0.00326751 0)
(1.00272 0.00358197 0)
(1.0017 0.00489588 0)
(1.00275 0.00471674 0)
(1.00409 0.00425654 0)
(1.004 0.0042088 0)
(1.00345 0.00520513 0)
(1.00348 0.00549965 0)
(1.00419 0.00563018 0)
(1.00463 0.00534106 0)
(1.00477 0.00573105 0)
(1.00474 0.00583279 0)
(1.00511 0.00610777 0)
(1.00075 -6.86254e-05 0)
(0.999205 0.000885743 0)
(1.00024 0.00276187 0)
(1.00207 0.00242033 0)
(1.00282 0.00173706 0)
(1.00072 0.00318667 0)
(1.00158 0.00428785 0)
(1.00318 0.00339396 0)
(1.00288 0.00348577 0)
(1.00185 0.00475907 0)
(1.00259 0.00482048 0)
(1.00395 0.0044245 0)
(1.00416 0.00419273 0)
(1.00375 0.00498735 0)
(1.00363 0.00532951 0)
(1.00417 0.00561524 0)
(1.00466 0.00531175 0)
(1.00494 0.00556623 0)
(1.00489 0.00566867 0)
(1.00521 0.00586635 0)
(1.0007 -2.81729e-05 0)
(0.999315 0.000800695 0)
(1.0002 0.00256307 0)
(1.00179 0.00246423 0)
(1.00274 0.00177194 0)
(1.00091 0.0029478 0)
(1.0015 0.00416189 0)
(1.00297 0.00350259 0)
(1.003 0.00340339 0)
(1.00205 0.00458487 0)
(1.0025 0.00487053 0)
(1.00378 0.00457412 0)
(1.00424 0.00421487 0)
(1.00401 0.00481827 0)
(1.00383 0.00512432 0)
(1.00419 0.00551497 0)
(1.00464 0.00529649 0)
(1.00506 0.00541581 0)
(1.00502 0.00549478 0)
(1.00528 0.00569047 0)
(1.00065 6.64196e-06 0)
(0.999416 0.000736826 0)
(1.00019 0.00236375 0)
(1.00153 0.00248318 0)
(1.00265 0.00183795 0)
(1.0011 0.00274503 0)
(1.00147 0.00399867 0)
(1.00276 0.00358821 0)
(1.00307 0.00334869 0)
(1.00227 0.00436688 0)
(1.00246 0.00484678 0)
(1.0036 0.00469708 0)
(1.00425 0.00425934 0)
(1.00422 0.00468498 0)
(1.00403 0.00492595 0)
(1.00428 0.00534425 0)
(1.00463 0.00524356 0)
(1.00512 0.00531899 0)
(1.00516 0.00530496 0)
(1.00534 0.00555453 0)
(1.00061 3.58051e-05 0)
(0.999507 0.000690772 0)
(1.0002 0.00217183 0)
(1.0013 0.00247671 0)
(1.00253 0.00191642 0)
(1.00127 0.00258873 0)
(1.00148 0.00380122 0)
(1.00256 0.00363836 0)
(1.00309 0.00333376 0)
(1.0025 0.00413496 0)
(1.0025 0.00473341 0)
(1.00343 0.00477237 0)
(1.00419 0.00431398 0)
(1.00436 0.00457524 0)
(1.00422 0.00474897 0)
(1.0044 0.0051556 0)
(1.00465 0.00512474 0)
(1.00513 0.00524423 0)
(1.00526 0.00512361 0)
(1.00539 0.00539076 0)
(1.00057 5.9017e-05 0)
(0.999586 0.000662962 0)
(1.00023 0.00198878 0)
(1.00111 0.00244621 0)
(1.0024 0.00199047 0)
(1.00141 0.0024755 0)
(1.00153 0.00359215 0)
(1.0024 0.00363977 0)
(1.00307 0.00335431 0)
(1.00271 0.00393357 0)
(1.0026 0.00453343 0)
(1.0033 0.00477313 0)
(1.00409 0.00436425 0)
(1.00444 0.0045005 0)
(1.00439 0.00458095 0)
(1.00453 0.0049665 0)
(1.00471 0.0049589 0)
(1.00513 0.00513503 0)
(1.00533 0.00497083 0)
(1.00545 0.00519367 0)
(1.00053 7.58208e-05 0)
(0.999653 0.000648027 0)
(1.00027 0.00182134 0)
(1.00096 0.00239333 0)
(1.00226 0.00205207 0)
(1.00152 0.0023947 0)
(1.00161 0.00338886 0)
(1.00227 0.00359158 0)
(1.00301 0.00337798 0)
(1.00286 0.00378392 0)
(1.00274 0.00429555 0)
(1.00324 0.00469062 0)
(1.00397 0.00438536 0)
(1.00445 0.00445589 0)
(1.00451 0.0044313 0)
(1.00466 0.00477339 0)
(1.0048 0.00477603 0)
(1.00514 0.004986 0)
(1.00535 0.00483883 0)
(1.00552 0.00499671 0)