/*--------------------------------*- C++ -*----------------------------------*\
| =========                 |                                                 |
| \\      /  F ield         | OpenFOAM: The Open Source CFD Toolbox           |
|  \\    /   O peration     | Version:  v1912                                 |
|   \\  /    A nd           | Website:  www.openfoam.com                      |
|    \\/     M anipulation  |                                                 |
\*---------------------------------------------------------------------------*/
FoamFile
{
    version     2.0;
    format      ascii;
    class       surfaceScalarField;
    location    "2.05";
    object      phi;
}
// * * * * * * * * * * * * * * * * * * * * * * * * * * * * * * * * * * * * * //

dimensions      [0 3 -1 0 0 0 0];
oriented        oriented;


internalField   nonuniform List<scalar> 
19000
(
1.14393e-06
-1.31097e-06
1.21929e-06
1.62086e-06
1.19002e-06
-2.25535e-07
1.19878e-06
4.96766e-07
1.20715e-06
-2.04303e-06
1.23498e-06
-7.31621e-07
1.23821e-06
-1.724e-07
1.28292e-06
4.41625e-07
1.33141e-06
1.38019e-06
1.31999e-06
4.2168e-07
1.35566e-06
1.67063e-06
1.25946e-06
-1.44941e-07
1.22212e-06
-1.76482e-07
1.18796e-06
-4.09096e-07
1.14863e-06
-1.07662e-06
1.12247e-06
-8.98748e-07
1.15851e-06
-8.16651e-07
1.16061e-06
-4.19764e-07
1.17863e-06
-2.87279e-07
-2.9146e-07
1.14345e-06
1.20848e-06
-1.29519e-06
1.2901e-06
1.53924e-06
1.26018e-06
-1.95611e-07
1.24671e-06
5.1023e-07
1.24507e-06
-2.04139e-06
1.28488e-06
-7.71434e-07
1.2986e-06
-1.86118e-07
1.34874e-06
3.91483e-07
1.39186e-06
1.33707e-06
1.39078e-06
4.22763e-07
1.40861e-06
1.6528e-06
1.34266e-06
-7.89969e-08
1.27905e-06
-1.12869e-07
1.26463e-06
-3.94674e-07
1.21597e-06
-1.02795e-06
1.18896e-06
-8.71738e-07
1.19911e-06
-8.26807e-07
1.22614e-06
-4.46793e-07
1.2191e-06
-2.80235e-07
-2.95204e-07
1.22284e-06
1.27539e-06
-1.28779e-06
1.366e-06
1.44863e-06
1.33154e-06
-1.61152e-07
1.29208e-06
5.49684e-07
1.273e-06
-2.0223e-06
1.32689e-06
-8.25324e-07
1.35811e-06
-2.17335e-07
1.41278e-06
3.36814e-07
1.46168e-06
1.28817e-06
1.46493e-06
4.19509e-07
1.47453e-06
1.6432e-06
1.42254e-06
-2.70074e-08
1.35529e-06
-4.56169e-08
1.32886e-06
-3.68246e-07
1.27747e-06
-9.76565e-07
1.24891e-06
-8.43176e-07
1.24651e-06
-8.24405e-07
1.27238e-06
-4.72665e-07
1.2753e-06
-2.83154e-07
-2.93401e-07
1.27349e-06
1.34412e-06
-1.2878e-06
1.43779e-06
1.35496e-06
1.39871e-06
-1.22064e-07
1.3383e-06
6.10086e-07
1.29901e-06
-1.98301e-06
1.36032e-06
-8.8664e-07
1.41461e-06
-2.71621e-07
1.47841e-06
2.7301e-07
1.53636e-06
1.23022e-06
1.54407e-06
4.11798e-07
1.54746e-06
1.63981e-06
1.497e-06
2.34577e-08
1.43185e-06
1.95336e-08
1.39186e-06
-3.28254e-07
1.34107e-06
-9.25776e-07
1.31298e-06
-8.15094e-07
1.30148e-06
-8.12898e-07
1.32365e-06
-4.94841e-07
1.33358e-06
-2.93081e-07
-2.9203e-07
1.33221e-06
1.4132e-06
-1.29265e-06
1.50204e-06
1.26612e-06
1.46112e-06
-8.1144e-08
1.39013e-06
6.81081e-07
1.33301e-06
-1.92589e-06
1.39192e-06
-9.45552e-07
1.4687e-06
-3.484e-07
1.54649e-06
1.95217e-07
1.61385e-06
1.16286e-06
1.62471e-06
4.00934e-07
1.6243e-06
1.64023e-06
1.56977e-06
7.79929e-08
1.50638e-06
8.29221e-08
1.46078e-06
-2.8265e-07
1.40992e-06
-8.74925e-07
1.38332e-06
-7.88493e-07
1.36524e-06
-7.94814e-07
1.38019e-06
-5.09788e-07
1.39399e-06
-3.06882e-07
-2.9353e-07
1.39549e-06
1.48222e-06
-1.2992e-06
1.55981e-06
1.18853e-06
1.52146e-06
-4.27937e-08
1.45109e-06
7.51451e-07
1.38192e-06
-1.85671e-06
1.43209e-06
-9.95724e-07
1.52477e-06
-4.4108e-07
1.61826e-06
1.01729e-07
1.69301e-06
1.08811e-06
1.70617e-06
3.87779e-07
1.70161e-06
1.64478e-06
1.64112e-06
1.38486e-07
1.58022e-06
1.43819e-07
1.53129e-06
-2.33719e-07
1.47912e-06
-8.22757e-07
1.45379e-06
-7.63163e-07
1.43455e-06
-7.75577e-07
1.44276e-06
-5.17995e-07
1.45732e-06
-3.21444e-07
-2.98162e-07
1.46195e-06
1.55188e-06
-1.30487e-06
1.61496e-06
1.12546e-06
1.58344e-06
-1.12782e-08
1.52245e-06
8.12439e-07
1.44732e-06
-1.78158e-06
1.48763e-06
-1.03603e-06
1.58704e-06
-5.40484e-07
1.69388e-06
-5.10934e-09
1.77286e-06
1.00912e-06
1.78769e-06
3.72947e-07
1.77884e-06
1.65363e-06
1.71212e-06
2.05205e-07
1.65604e-06
1.999e-07
1.60523e-06
-1.8291e-07
1.55244e-06
-7.69964e-07
1.52757e-06
-7.38299e-07
1.5092e-06
-7.57197e-07
1.51276e-06
-5.21561e-07
1.52597e-06
-3.34651e-07
-3.04142e-07
1.53195e-06
1.62336e-06
-1.3081e-06
1.67171e-06
1.0771e-06
1.64994e-06
1.04967e-08
1.60352e-06
8.58856e-07
1.52691e-06
-1.70497e-06
1.55863e-06
-1.06775e-06
1.6559e-06
-6.37754e-07
1.7712e-06
-1.20408e-07
1.85089e-06
9.29433e-07
1.86729e-06
3.56552e-07
1.85522e-06
1.6657e-06
1.7829e-06
2.77518e-07
1.73431e-06
2.48492e-07
1.68224e-06
-1.3084e-07
1.62961e-06
-7.17331e-07
1.60549e-06
-7.14178e-07
1.5883e-06
-7.40007e-07
1.58882e-06
-5.22082e-07
1.60001e-06
-3.45841e-07
-3.09384e-07
1.60525e-06
1.69766e-06
-1.30818e-06
1.73335e-06
1.0414e-06
1.72226e-06
2.15952e-08
1.69229e-06
8.8882e-07
1.61684e-06
-1.62952e-06
1.64069e-06
-1.0916e-06
1.72844e-06
-7.25498e-07
1.84612e-06
-2.38093e-07
1.92367e-06
8.51886e-07
1.94186e-06
3.38359e-07
1.92959e-06
1.67798e-06
1.85362e-06
3.53485e-07
1.81408e-06
2.88029e-07
1.76221e-06
-7.89673e-08
1.71095e-06
-6.66074e-07
1.68781e-06
-6.91035e-07
1.67119e-06
-7.23389e-07
1.66896e-06
-5.19845e-07
1.67757e-06
-3.54452e-07
-3.12402e-07
1.68059e-06
1.77548e-06
-1.30493e-06
1.80186e-06
1.01501e-06
1.80033e-06
2.3125e-08
1.78607e-06
9.03088e-07
1.71337e-06
-1.55683e-06
1.72897e-06
-1.1072e-06
1.80168e-06
-7.98215e-07
1.91505e-06
-3.51461e-07
1.98868e-06
7.78255e-07
2.00888e-06
3.18162e-07
2.00061e-06
1.68624e-06
1.92431e-06
4.29786e-07
1.89377e-06
3.18568e-07
1.84436e-06
-2.95519e-08
1.79598e-06
-6.17693e-07
1.77374e-06
-6.68795e-07
1.75694e-06
-7.06591e-07
1.75175e-06
-5.14656e-07
1.75705e-06
-3.59755e-07
-3.12356e-07
1.75701e-06
1.85729e-06
-1.29848e-06
1.87798e-06
9.94322e-07
1.88337e-06
1.77363e-08
1.88223e-06
9.04229e-07
1.81356e-06
-1.48816e-06
1.82053e-06
-1.11416e-06
1.87515e-06
-8.5283e-07
1.97754e-06
-4.53857e-07
2.04618e-06
7.09619e-07
2.06795e-06
2.96392e-07
2.06763e-06
1.68657e-06
1.99524e-06
5.02171e-07
1.97249e-06
3.4132e-07
1.92812e-06
1.48122e-08
1.88413e-06
-5.73701e-07
1.86239e-06
-6.47057e-07
1.8449e-06
-6.89098e-07
1.8368e-06
-5.06557e-07
1.83837e-06
-3.61321e-07
-3.09154e-07
1.83517e-06
1.94342e-06
-1.28905e-06
1.96141e-06
9.76326e-07
1.97046e-06
8.68582e-09
1.97909e-06
8.95603e-07
1.91557e-06
-1.42464e-06
1.91452e-06
-1.11312e-06
1.95064e-06
-8.8895e-07
2.03667e-06
-5.39891e-07
2.09931e-06
6.46986e-07
2.12127e-06
2.74431e-07
2.13128e-06
1.67655e-06
2.06713e-06
5.66325e-07
2.05082e-06
3.5763e-07
2.0136e-06
5.2029e-08
1.97514e-06
-5.35243e-07
1.9534e-06
-6.25311e-07
1.93508e-06
-6.70777e-07
1.92466e-06
-4.96142e-07
1.9226e-06
-3.59264e-07
-3.03517e-07
1.91697e-06
2.03401e-06
-1.27687e-06
2.05127e-06
9.59064e-07
2.06109e-06
-1.13921e-09
2.07633e-06
8.80369e-07
2.0187e-06
-1.36701e-06
2.01123e-06
-1.10565e-06
2.03064e-06
-9.08363e-07
2.09727e-06
-6.06524e-07
2.15273e-06
5.91529e-07
2.17288e-06
2.54285e-07
2.19378e-06
1.65565e-06
2.14132e-06
6.18778e-07
2.13072e-06
3.6823e-07
2.10162e-06
8.11313e-08
2.06922e-06
-5.0284e-07
2.04705e-06
-6.03144e-07
2.02797e-06
-6.51694e-07
2.01627e-06
-4.84445e-07
2.01112e-06
-3.5411e-07
-2.96601e-07
2.0042e-06
2.12919e-06
-1.26206e-06
2.14668e-06
9.41567e-07
2.15537e-06
-9.82931e-09
2.17489e-06
8.60854e-07
2.12321e-06
-1.31533e-06
2.11131e-06
-1.09375e-06
2.11697e-06
-9.14021e-07
2.16375e-06
-6.53309e-07
2.21098e-06
5.44299e-07
2.22745e-06
2.37814e-07
2.25846e-06
1.62464e-06
2.21966e-06
6.57578e-07
2.2147e-06
3.73193e-07
2.19342e-06
1.02412e-07
2.16689e-06
-4.76311e-07
2.14412e-06
-5.80377e-07
2.12428e-06
-6.31848e-07
2.11243e-06
-4.72601e-07
2.10486e-06
-3.46531e-07
-2.89399e-07
2.09765e-06
2.22914e-06
-1.2447e-06
2.2472e-06
9.23506e-07
2.25391e-06
-1.65434e-08
2.27633e-06
8.38431e-07
2.22989e-06
-1.26888e-06
2.21536e-06
-1.07922e-06
2.21041e-06
-9.09063e-07
2.23897e-06
-6.81877e-07
2.27754e-06
5.05735e-07
2.28931e-06
2.2604e-07
2.32905e-06
1.5849e-06
2.30407e-06
6.82563e-07
2.30489e-06
3.72373e-07
2.29019e-06
1.17109e-07
2.26874e-06
-4.54859e-07
2.24547e-06
-5.57115e-07
2.22466e-06
-6.11032e-07
2.21355e-06
-4.61492e-07
2.20419e-06
-3.37171e-07
-2.82395e-07
2.19719e-06
2.33413e-06
-1.22496e-06
2.35281e-06
9.04823e-07
2.35748e-06
-2.12084e-08
2.38216e-06
8.13749e-07
2.33967e-06
-1.2264e-06
2.32386e-06
-1.06341e-06
2.31104e-06
-8.96247e-07
2.3243e-06
-6.95133e-07
2.35469e-06
4.75347e-07
2.36179e-06
2.18937e-07
2.40873e-06
1.53797e-06
2.39608e-06
6.95207e-07
2.40257e-06
3.65883e-07
2.39281e-06
1.26873e-07
2.37522e-06
-4.37269e-07
2.35182e-06
-5.33715e-07
2.32969e-06
-5.88901e-07
2.31974e-06
-4.51541e-07
2.30921e-06
-3.26644e-07
-2.7554e-07
2.30235e-06
2.44449e-06
-1.20305e-06
2.46382e-06
8.85493e-07
2.46671e-06
-2.40985e-08
2.49339e-06
7.87068e-07
2.45337e-06
-1.18637e-06
2.43714e-06
-1.04718e-06
2.41865e-06
-8.7776e-07
2.42003e-06
-6.96512e-07
2.44356e-06
4.51815e-07
2.44679e-06
2.15708e-07
2.49948e-06
1.48528e-06
2.49661e-06
6.98078e-07
2.50818e-06
3.54312e-07
2.50178e-06
1.33279e-07
2.48667e-06
-4.2216e-07
2.46363e-06
-5.1068e-07
2.43988e-06
-5.65145e-07
2.43104e-06
-4.427e-07
2.41993e-06
-3.15535e-07
-2.68476e-07
2.41286e-06
2.56052e-06
-1.17928e-06
2.58057e-06
8.65439e-07
2.58199e-06
-2.5514e-08
2.61054e-06
7.58513e-07
2.57165e-06
-1.14747e-06
2.55548e-06
-1.03101e-06
2.53296e-06
-8.55239e-07
2.52581e-06
-6.89366e-07
2.54426e-06
4.33362e-07
2.5447e-06
2.15269e-07
2.60189e-06
1.42809e-06
2.60588e-06
6.9409e-07
2.62153e-06
3.38657e-07
2.6173e-06
1.37511e-07
2.60337e-06
-4.08227e-07
2.58119e-06
-4.88509e-07
2.55568e-06
-5.39631e-07
2.54755e-06
-4.34571e-07
2.53645e-06
-3.04436e-07
-2.60757e-07
2.52873e-06
2.68245e-06
-1.1539e-06
2.70336e-06
8.44525e-07
2.70349e-06
-2.56414e-08
2.7338e-06
7.28207e-07
2.69502e-06
-1.1087e-06
2.67914e-06
-1.01513e-06
2.65374e-06
-8.29845e-07
2.64091e-06
-6.76531e-07
2.65607e-06
4.18198e-07
2.65468e-06
2.16661e-07
2.71534e-06
1.36743e-06
2.7236e-06
6.85831e-07
2.74219e-06
3.20074e-07
2.73942e-06
1.40278e-07
2.72557e-06
-3.94384e-07
2.70465e-06
-4.67584e-07
2.67748e-06
-5.12466e-07
2.6695e-06
-4.26582e-07
2.65894e-06
-2.93885e-07
-2.52046e-07
2.65023e-06
2.81049e-06
-1.12712e-06
2.83242e-06
8.22587e-07
2.83133e-06
-2.45508e-08
2.86324e-06
6.96297e-07
2.82392e-06
-1.06938e-06
2.80838e-06
-9.99588e-07
2.78092e-06
-8.02379e-07
2.76449e-06
-6.60108e-07
2.77787e-06
4.04822e-07
2.77532e-06
2.19213e-07
2.83869e-06
1.30406e-06
2.84933e-06
6.75184e-07
2.86975e-06
2.99659e-07
2.86815e-06
1.41878e-07
2.85357e-06
-3.79804e-07
2.83412e-06
-4.48135e-07
2.80563e-06
-4.83978e-07
2.79715e-06
-4.18101e-07
2.78762e-06
-2.84352e-07
-2.42222e-07
2.77779e-06
2.94483e-06
-1.09906e-06
2.96797e-06
7.99452e-07
2.96567e-06
-2.22476e-08
2.99902e-06
6.62945e-07
2.95876e-06
-1.02911e-06
2.94351e-06
-9.84342e-07
2.91453e-06
-7.73398e-07
2.89591e-06
-6.41487e-07
2.90861e-06
3.92121e-07
2.90528e-06
2.22545e-07
2.97078e-06
1.23855e-06
2.98268e-06
6.63292e-07
3.00399e-06
2.78345e-07
3.00354e-06
1.42328e-07
2.98764e-06
-3.63908e-07
2.96975e-06
-4.3024e-07
2.94046e-06
-4.54688e-07
2.93086e-06
-4.08509e-07
2.92271e-06
-2.76201e-07
-2.31424e-07
2.91192e-06
3.08573e-06
-1.06978e-06
3.11022e-06
7.74966e-07
3.10669e-06
-1.87162e-08
3.14134e-06
6.28294e-07
3.09992e-06
-9.87693e-07
3.08486e-06
-9.69279e-07
3.05478e-06
-7.43326e-07
3.03482e-06
-6.21525e-07
3.04763e-06
3.79313e-07
3.04369e-06
2.26484e-07
3.11085e-06
1.17139e-06
3.12341e-06
6.50735e-07
3.14486e-06
2.56893e-07
3.1457e-06
1.41488e-07
3.1281e-06
-3.46308e-07
3.11171e-06
-4.13851e-07
3.08225e-06
-4.25226e-07
3.07104e-06
-3.97298e-07
3.06447e-06
-2.6963e-07
-2.20006e-07
3.05305e-06
3.23346e-06
-1.03933e-06
3.25942e-06
7.49005e-07
3.25464e-06
-1.39366e-08
3.29048e-06
5.92456e-07
3.24782e-06
-9.45037e-07
3.23278e-06
-9.54237e-07
3.20197e-06
-7.12514e-07
3.18118e-06
-6.00738e-07
3.19464e-06
3.65851e-07
3.19014e-06
2.30988e-07
3.25848e-06
1.10305e-06
3.2715e-06
6.3771e-07
3.29243e-06
2.35962e-07
3.29479e-06
1.39128e-07
3.27529e-06
-3.26803e-07
3.26024e-06
-3.98798e-07
3.23128e-06
-3.96275e-07
3.21812e-06
-3.84132e-07
3.21308e-06
-2.64592e-07
-2.08478e-07
3.20155e-06
3.38833e-06
-1.00773e-06
3.41585e-06
7.21492e-07
3.40979e-06
-7.88405e-09
3.44673e-06
5.55516e-07
3.40288e-06
-9.01183e-07
3.38766e-06
-9.39023e-07
3.35641e-06
-6.81264e-07
3.33509e-06
-5.7942e-07
3.3496e-06
3.51342e-07
3.34453e-06
2.36066e-07
3.4135e-06
1.03408e-06
3.42706e-06
6.24154e-07
3.4469e-06
2.16119e-07
3.45097e-06
1.35057e-07
3.42959e-06
-3.05424e-07
3.41557e-06
-3.84781e-07
3.38781e-06
-3.68509e-07
3.37258e-06
-3.68904e-07
3.36871e-06
-2.60722e-07
-1.97483e-07
3.35771e-06
3.55069e-06
-9.75012e-07
3.57979e-06
6.92391e-07
3.57244e-06
-5.30793e-10
3.6104e-06
5.17555e-07
3.56549e-06
-8.56271e-07
3.54988e-06
-9.23417e-07
3.51845e-06
-6.49833e-07
3.49673e-06
-5.57702e-07
3.51257e-06
3.35512e-07
3.50693e-06
2.41702e-07
3.57595e-06
9.65058e-07
3.59029e-06
6.09819e-07
3.60851e-06
1.97894e-07
3.61445e-06
1.29123e-07
3.59144e-06
-2.82424e-07
3.57802e-06
-3.71358e-07
3.55205e-06
-3.42539e-07
3.53486e-06
-3.51717e-07
3.53162e-06
-2.57476e-07
-1.8757e-07
3.52171e-06
3.7209e-06
-9.41206e-07
3.75158e-06
6.61706e-07
3.74291e-06
8.1449e-09
3.78179e-06
4.78674e-07
3.73604e-06
-8.10523e-07
3.71982e-06
-9.0719e-07
3.68844e-06
-6.18459e-07
3.66631e-06
-5.35575e-07
3.68364e-06
3.18187e-07
3.67755e-06
2.47794e-07
3.74599e-06
8.96616e-07
3.76145e-06
5.94353e-07
3.77761e-06
1.81734e-07
3.78545e-06
1.21284e-07
3.76129e-06
-2.58265e-07
3.74795e-06
-3.58012e-07
3.72422e-06
-3.18813e-07
3.7054e-06
-3.32897e-07
3.70216e-06
-2.54235e-07
-1.79075e-07
3.69367e-06
3.89933e-06
-9.06346e-07
3.93157e-06
6.29464e-07
3.92157e-06
1.81419e-08
3.96122e-06
4.39027e-07
3.91492e-06
-7.6422e-07
3.89784e-06
-8.90108e-07
3.86676e-06
-5.87384e-07
3.8441e-06
-5.12916e-07
3.86299e-06
2.99302e-07
3.85667e-06
2.54113e-07
3.92389e-06
8.29389e-07
3.94088e-06
5.77371e-07
3.95462e-06
1.67992e-07
3.96426e-06
1.11644e-07
3.93958e-06
-2.33582e-07
3.92576e-06
-3.44196e-07
3.90454e-06
-2.97594e-07
3.88457e-06
-3.12931e-07
3.88076e-06
-2.50421e-07
-1.72113e-07
3.8738e-06
4.08637e-06
-8.70469e-07
4.12012e-06
5.95715e-07
4.10885e-06
2.94181e-08
4.14905e-06
3.98826e-07
4.10249e-06
-7.17668e-07
4.08432e-06
-8.71934e-07
4.05383e-06
-5.56891e-07
4.03045e-06
-4.8954e-07
4.05084e-06
2.7891e-07
4.04465e-06
2.60306e-07
4.11003e-06
7.64013e-07
4.12889e-06
5.58507e-07
4.14e-06
1.56884e-07
4.15116e-06
1.00481e-07
4.12669e-06
-2.09109e-07
4.11191e-06
-3.29413e-07
4.09325e-06
-2.7894e-07
4.07273e-06
-2.92406e-07
4.06786e-06
-2.45551e-07
-1.66647e-07
4.06239e-06
4.28245e-06
-8.33616e-07
4.31764e-06
5.60528e-07
4.30518e-06
4.18792e-08
4.34565e-06
3.58348e-07
4.29917e-06
-6.71187e-07
4.27965e-06
-8.52411e-07
4.25008e-06
-5.27324e-07
4.2258e-06
-4.65254e-07
4.24753e-06
2.57178e-07
4.24189e-06
2.65947e-07
4.30481e-06
7.01095e-07
4.32585e-06
5.37461e-07
4.33427e-06
1.4847e-07
4.34651e-06
8.82354e-08
4.32302e-06
-1.85614e-07
4.30687e-06
-3.13263e-07
4.29067e-06
-2.62747e-07
4.27018e-06
-2.71916e-07
4.26397e-06
-2.39334e-07
-1.62485e-07
4.2598e-06
4.488e-06
-7.9584e-07
4.52453e-06
5.24e-07
4.51103e-06
5.53804e-08
4.55146e-06
3.17914e-07
4.50538e-06
-6.25112e-07
4.48421e-06
-8.3124e-07
4.45597e-06
-4.99083e-07
4.43066e-06
-4.39941e-07
4.45344e-06
2.34401e-07
4.44881e-06
2.7057e-07
4.50871e-06
6.41202e-07
4.53212e-06
5.14045e-07
4.53796e-06
1.42635e-07
4.55073e-06
7.54662e-08
4.52889e-06
-1.63778e-07
4.51117e-06
-2.95546e-07
4.49714e-06
-2.48712e-07
4.47728e-06
-2.52057e-07
4.46954e-06
-2.31592e-07
-1.59415e-07
4.46647e-06
4.70349e-06
-7.57211e-07
4.74122e-06
4.86262e-07
4.72688e-06
6.97242e-08
4.7669e-06
2.7789e-07
4.7216e-06
-5.79805e-07
4.69842e-06
-8.08066e-07
4.67192e-06
-4.72583e-07
4.6456e-06
-4.13619e-07
4.66901e-06
2.10989e-07
4.66587e-06
2.73715e-07
4.72224e-06
5.84824e-07
4.74807e-06
4.88217e-07
4.75169e-06
1.39016e-07
4.76429e-06
6.28657e-08
4.74462e-06
-1.44107e-07
4.72547e-06
-2.76394e-07
4.71301e-06
-2.36252e-07
4.69435e-06
-2.33399e-07
4.68509e-06
-2.22337e-07
-1.57059e-07
4.68274e-06
4.92941e-06
-7.17821e-07
4.96818e-06
4.47487e-07
4.95324e-06
8.46717e-08
4.99245e-06
2.38673e-07
4.9483e-06
-5.35653e-07
4.92273e-06
-7.82496e-07
4.89834e-06
-4.48197e-07
4.87121e-06
-3.86488e-07
4.89477e-06
1.87436e-07
4.89351e-06
2.74969e-07
4.94599e-06
5.32348e-07
4.97409e-06
4.60113e-07
4.97603e-06
1.37078e-07
4.9878e-06
5.10976e-08
4.97056e-06
-1.26867e-07
4.95041e-06
-2.56247e-07
4.93879e-06
-2.24636e-07
4.92169e-06
-2.16291e-07
4.91118e-06
-2.1183e-07
-1.54965e-07
4.90909e-06
5.16628e-06
-6.77788e-07
5.20589e-06
4.07885e-07
5.19062e-06
9.99326e-08
5.22859e-06
2.00705e-07
5.18602e-06
-4.93077e-07
5.15763e-06
-7.54113e-07
5.13566e-06
-4.26219e-07
5.10805e-06
-3.58884e-07
5.13124e-06
1.64249e-07
5.13221e-06
2.73999e-07
5.18054e-06
4.84015e-07
5.21058e-06
4.30079e-07
5.21153e-06
1.36129e-07
5.22185e-06
4.07771e-08
5.20715e-06
-1.12172e-07
5.1865e-06
-2.35592e-07
5.17509e-06
-2.13225e-07
5.15968e-06
-2.00883e-07
5.1482e-06
-2.00354e-07
-1.5275e-07
5.14599e-06
5.41466e-06
-6.37258e-07
5.45483e-06
3.67709e-07
5.43961e-06
1.15155e-07
5.47583e-06
1.64486e-07
5.43526e-06
-4.5251e-07
5.40376e-06
-7.22606e-07
5.38431e-06
-4.0677e-07
5.35667e-06
-3.31246e-07
5.37901e-06
1.41913e-07
5.38244e-06
2.70566e-07
5.42654e-06
4.39918e-07
5.45796e-06
3.98655e-07
5.45867e-06
1.35415e-07
5.46712e-06
3.23366e-08
5.45484e-06
-9.99009e-08
5.43425e-06
-2.14998e-07
5.42255e-06
-2.01529e-07
5.40875e-06
-1.87084e-07
5.39676e-06
-1.88364e-07
-1.49991e-07
5.394e-06
5.67511e-06
-5.96405e-07
5.71556e-06
3.27257e-07
5.70083e-06
1.29882e-07
5.73471e-06
1.30603e-07
5.69656e-06
-4.14358e-07
5.6621e-06
-6.88146e-07
5.64481e-06
-3.89482e-07
5.61761e-06
-3.04042e-07
5.63867e-06
1.20855e-07
5.64468e-06
2.64551e-07
5.68461e-06
3.99996e-07
5.71679e-06
3.66476e-07
5.71795e-06
1.34246e-07
5.72433e-06
2.59634e-08
5.71418e-06
-8.97576e-08
5.69422e-06
-1.95035e-07
5.68198e-06
-1.89285e-07
5.66946e-06
-1.74571e-07
5.65738e-06
-1.7628e-07
-1.46376e-07
5.65376e-06
5.94822e-06
-5.55432e-07
5.98861e-06
2.86869e-07
5.975e-06
1.43489e-07
6.00583e-06
9.97731e-08
5.9704e-06
-3.78933e-07
5.93354e-06
-6.51283e-07
5.91771e-06
-3.73651e-07
5.89142e-06
-2.77752e-07
5.91086e-06
1.01416e-07
5.91944e-06
2.55968e-07
5.9554e-06
3.64038e-07
5.9877e-06
3.34177e-07
5.98986e-06
1.32081e-07
5.99421e-06
2.16147e-08
5.98573e-06
-8.12719e-08
5.96692e-06
-1.76227e-07
5.95415e-06
-1.76515e-07
5.94247e-06
-1.6289e-07
5.93061e-06
-1.64426e-07
-1.41863e-07
5.9261e-06
6.23462e-06
-5.14567e-07
6.27457e-06
2.46926e-07
6.26302e-06
1.55033e-07
6.28986e-06
7.29392e-08
6.25729e-06
-3.46369e-07
6.21863e-06
-6.12624e-07
6.2036e-06
-3.58617e-07
6.17867e-06
-2.52821e-07
6.19623e-06
8.38496e-08
6.20725e-06
2.44951e-07
6.23959e-06
3.31699e-07
6.27138e-06
3.02393e-07
6.2749e-06
1.28556e-07
6.27748e-06
1.90311e-08
6.27017e-06
-7.39548e-08
6.25283e-06
-1.58884e-07
6.23975e-06
-1.63444e-07
6.22851e-06
-1.51643e-07
6.21716e-06
-1.53082e-07
-1.36407e-07
6.21171e-06
6.53496e-06
-4.7406e-07
6.57405e-06
2.07842e-07
6.56576e-06
1.63318e-07
6.58754e-06
5.11648e-08
6.55775e-06
-3.16586e-07
6.5179e-06
-5.72776e-07
6.50315e-06
-3.43864e-07
6.47995e-06
-2.29615e-07
6.49549e-06
6.83049e-08
6.50868e-06
2.31759e-07
6.53788e-06
3.02505e-07
6.56852e-06
2.71751e-07
6.57361e-06
1.2346e-07
6.57484e-06
1.78086e-08
6.56823e-06
-6.73487e-08
6.55254e-06
-1.43197e-07
6.53948e-06
-1.5038e-07
6.52843e-06
-1.4059e-07
6.51759e-06
-1.42241e-07
-1.30207e-07
6.51139e-06
6.84991e-06
-4.34175e-07
6.88769e-06
1.70053e-07
6.88353e-06
1.67483e-07
6.89964e-06
3.50587e-08
6.87238e-06
-2.89334e-07
6.83193e-06
-5.32319e-07
6.81711e-06
-3.29042e-07
6.79586e-06
-2.08366e-07
6.80935e-06
5.48121e-08
6.82435e-06
2.16755e-07
6.8509e-06
2.75957e-07
6.87989e-06
2.42758e-07
6.88655e-06
1.16806e-07
6.88693e-06
1.74247e-08
6.88072e-06
-6.11393e-08
6.86664e-06
-1.29118e-07
6.85403e-06
-1.37764e-07
6.84309e-06
-1.29651e-07
6.83256e-06
-1.31716e-07
-1.23523e-07
6.82588e-06
7.18014e-06
-3.95181e-07
7.21618e-06
1.3401e-07
7.21579e-06
1.67878e-07
7.22694e-06
2.39074e-08
7.20186e-06
-2.64253e-07
7.16133e-06
-4.91793e-07
7.1462e-06
-3.13908e-07
7.12703e-06
-1.89198e-07
7.13856e-06
4.32834e-08
7.15493e-06
2.00382e-07
7.17931e-06
2.51578e-07
7.20631e-06
2.15765e-07
7.21433e-06
1.0878e-07
7.21439e-06
1.73705e-08
7.20842e-06
-5.51729e-08
7.19588e-06
-1.16578e-07
7.18418e-06
-1.26063e-07
7.1734e-06
-1.18876e-07
7.16296e-06
-1.2127e-07
-1.16567e-07
7.156e-06
7.52639e-06
-3.5735e-07
7.56021e-06
1.00195e-07
7.56284e-06
1.65244e-07
7.57025e-06
1.65017e-08
7.54695e-06
-2.40956e-07
7.50681e-06
-4.51651e-07
7.49118e-06
-2.98277e-07
7.47414e-06
-1.72159e-07
7.48389e-06
3.35334e-08
7.50114e-06
1.8313e-07
7.52378e-06
2.28941e-07
7.54858e-06
1.90966e-07
7.55766e-06
9.9694e-08
7.55783e-06
1.72101e-08
7.55208e-06
-4.94314e-08
7.54098e-06
-1.05477e-07
7.53063e-06
-1.15707e-07
7.52046e-06
-1.08707e-07
7.50997e-06
-1.10784e-07
-1.09278e-07
7.50268e-06
7.88942e-06
-3.20956e-07
7.92049e-06
6.91266e-08
7.92573e-06
1.60004e-07
7.93037e-06
1.18596e-08
7.90848e-06
-2.19071e-07
7.86908e-06
-4.12245e-07
7.85284e-06
-2.82037e-07
7.83789e-06
-1.57212e-07
7.84612e-06
2.53069e-08
7.86376e-06
1.65486e-07
7.88499e-06
2.07709e-07
7.90755e-06
1.68405e-07
7.91733e-06
8.99189e-08
7.91791e-06
1.66235e-08
7.91245e-06
-4.39641e-08
7.90255e-06
-9.55832e-08
7.89379e-06
-1.06944e-07
7.88488e-06
-9.9796e-08
7.87469e-06
-1.00597e-07
-1.0146e-07
7.86687e-06
8.26999e-06
-2.86268e-07
8.29771e-06
4.14059e-08
8.30535e-06
1.52366e-07
8.30811e-06
9.09771e-09
8.28732e-06
-1.98281e-07
8.2489e-06
-3.73823e-07
8.23203e-06
-2.65165e-07
8.21904e-06
-1.44224e-07
8.22602e-06
1.83215e-08
8.24361e-06
1.47899e-07
8.26369e-06
1.87626e-07
8.28409e-06
1.4801e-07
8.29416e-06
7.98514e-08
8.29533e-06
1.54494e-08
8.29027e-06
-3.89034e-08
8.28133e-06
-8.6646e-08
8.27374e-06
-9.93511e-08
8.26631e-06
-9.23634e-08
8.25669e-06
-9.0978e-08
-9.31778e-08
8.24841e-06
8.66893e-06
-2.53541e-07
8.69257e-06
1.77704e-08
8.70259e-06
1.42344e-07
8.70427e-06
7.41652e-09
8.68437e-06
-1.78379e-07
8.6471e-06
-3.3655e-07
8.62964e-06
-2.477e-07
8.61839e-06
-1.32976e-07
8.6244e-06
1.23129e-08
8.64158e-06
1.30712e-07
8.66067e-06
1.68542e-07
8.679e-06
1.29672e-07
8.68908e-06
6.97747e-08
8.69082e-06
1.37109e-08
8.68628e-06
-3.43632e-08
8.67805e-06
-7.84162e-08
8.67106e-06
-9.23664e-08
8.66476e-06
-8.60624e-08
8.65575e-06
-8.19613e-08
-8.44931e-08
8.64706e-06
9.08708e-06
-2.23e-07
9.10562e-06
-7.74925e-10
9.11832e-06
1.29648e-07
9.11966e-06
6.07576e-09
9.10054e-06
-1.59262e-07
9.06455e-06
-3.00561e-07
9.04654e-06
-2.29691e-07
9.03677e-06
-1.23198e-07
9.04204e-06
7.03947e-09
9.05857e-06
1.14183e-07
9.07671e-06
1.50396e-07
9.09318e-06
1.1321e-07
9.10296e-06
5.9993e-08
9.10518e-06
1.14933e-08
9.10119e-06
-3.0377e-08
9.09346e-06
-7.06821e-08
9.0867e-06
-8.56119e-08
9.08116e-06
-8.05247e-08
9.07303e-06
-7.38279e-08
-7.55613e-08
9.0641e-06
9.52528e-06
-1.94819e-07
9.53802e-06
-1.35207e-08
9.55345e-06
1.14225e-07
9.55503e-06
4.49071e-09
9.53673e-06
-1.4096e-07
9.50214e-06
-2.65966e-07
9.48365e-06
-2.11206e-07
9.47505e-06
-1.14598e-07
9.47979e-06
2.29914e-09
9.49544e-06
9.85308e-08
9.51268e-06
1.33159e-07
9.52744e-06
9.84457e-08
9.53665e-06
5.0788e-08
9.5392e-06
8.94331e-09
9.53576e-06
-2.69358e-08
9.5285e-06
-6.34267e-08
9.52171e-06
-7.8818e-08
9.51671e-06
-7.55275e-08
9.50971e-06
-6.68302e-08
-6.67135e-08
9.50087e-06
9.98442e-06
-1.69102e-07
9.9921e-06
-2.12033e-08
1.0009e-05
9.73414e-08
1.00112e-05
2.30337e-09
9.99386e-06
-1.23648e-07
9.96072e-06
-2.32829e-07
9.94184e-06
-1.92322e-07
9.93416e-06
-1.06923e-07
9.93849e-06
-2.02242e-09
9.9531e-06
8.39127e-08
9.9694e-06
1.16866e-07
9.98264e-06
8.52062e-08
9.99103e-06
4.23947e-08
9.99367e-06
6.29942e-09
9.99074e-06
-2.40011e-08
9.98408e-06
-5.67635e-08
9.97726e-06
-7.20058e-08
9.97246e-06
-7.07216e-08
9.96685e-06
-6.12266e-08
-5.83575e-08
9.9585e-06
1.04654e-05
-1.45867e-07
1.04694e-05
-2.51498e-08
1.04859e-05
8.07565e-08
1.0489e-05
-7.38801e-10
1.04729e-05
-1.07597e-07
1.04413e-05
-2.01199e-07
1.0422e-05
-1.73064e-07
1.0415e-05
-9.98352e-08
1.0419e-05
-6.06249e-09
1.04325e-05
7.04139e-08
1.04477e-05
1.01701e-07
1.04596e-05
7.32961e-08
1.04669e-05
3.50267e-08
1.04696e-05
3.68063e-09
1.04671e-05
-2.15449e-08
1.04611e-05
-5.07706e-08
1.04544e-05
-6.53049e-08
1.04495e-05
-6.58093e-08
1.04451e-05
-5.68164e-08
-5.1371e-08
1.04381e-05
1.09692e-05
-1.25055e-07
1.09706e-05
-2.65394e-08
1.09854e-05
6.59752e-08
1.09894e-05
-4.7868e-09
1.0975e-05
-9.31238e-08
1.0945e-05
-1.71198e-07
1.09252e-05
-1.53293e-07
1.09184e-05
-9.30208e-08
1.09222e-05
-9.90016e-09
1.09345e-05
5.80935e-08
1.09485e-05
8.77025e-08
1.0959e-05
6.27689e-08
1.09654e-05
2.8701e-08
1.09681e-05
1.00234e-09
1.09661e-05
-1.95929e-08
1.09607e-05
-4.53775e-08
1.09544e-05
-5.89802e-08
1.09493e-05
-6.07209e-08
1.09456e-05
-5.31205e-08
-4.63017e-08
1.09405e-05
1.14969e-05
-1.06543e-07
1.14965e-05
-2.62079e-08
1.15087e-05
5.37497e-08
1.15136e-05
-9.59394e-09
1.1501e-05
-8.05482e-08
1.1473e-05
-1.43173e-07
1.14528e-05
-1.33191e-07
1.14457e-05
-8.58763e-08
1.14491e-05
-1.33063e-08
1.14604e-05
4.68506e-08
1.14732e-05
7.48405e-08
1.14824e-05
5.35842e-08
1.14878e-05
2.32959e-08
1.14905e-05
-1.6931e-09
1.14891e-05
-1.82139e-08
1.14843e-05
-4.05065e-08
1.14785e-05
-5.32304e-08
1.14735e-05
-5.57462e-08
1.147e-05
-4.96276e-08
-4.29557e-08
1.14667e-05
1.20494e-05
-9.01552e-08
1.2048e-05
-2.47923e-08
1.20576e-05
4.41993e-08
1.20625e-05
-1.45305e-08
1.2052e-05
-7.00903e-08
1.20265e-05
-1.17584e-07
1.20062e-05
-1.12948e-07
1.19984e-05
-7.80825e-08
1.20011e-05
-1.60129e-08
1.20113e-05
3.66649e-08
1.2023e-05
6.31447e-08
1.20313e-05
4.53309e-08
1.20357e-05
1.88272e-08
1.20383e-05
-4.2301e-09
1.20376e-05
-1.75027e-08
1.20333e-05
-3.62216e-08
1.2028e-05
-4.79782e-08
1.20235e-05
-5.12533e-08
1.202e-05
-4.60827e-08
-4.06499e-08
1.20177e-05
1.26281e-05
-7.56748e-08
1.26262e-05
-2.28356e-08
1.26331e-05
3.72192e-08
1.26375e-05
-1.892e-08
1.26292e-05
-6.17568e-08
1.26066e-05
-9.49922e-08
1.25864e-05
-9.27056e-08
1.25779e-05
-6.96443e-08
1.25798e-05
-1.78542e-08
1.25888e-05
2.76501e-08
1.25994e-05
5.25542e-08
1.26069e-05
3.78364e-08
1.26106e-05
1.50825e-08
1.26127e-05
-6.35978e-09
1.26126e-05
-1.74117e-08
1.26092e-05
-3.27691e-08
1.26043e-05
-4.30717e-08
1.26004e-05
-4.73624e-08
1.25969e-05
-4.26173e-08
-3.86008e-08
1.25949e-05
1.32341e-05
-6.28841e-08
1.32321e-05
-2.07439e-08
1.32368e-05
3.25152e-08
1.32399e-05
-2.20736e-08
1.32336e-05
-5.5418e-08
1.32144e-05
-7.58627e-08
1.31945e-05
-7.27977e-08
1.31854e-05
-6.04935e-08
1.31864e-05
-1.88257e-08
1.31942e-05
1.97601e-08
1.32037e-05
4.30755e-08
1.32105e-05
3.10962e-08
1.32137e-05
1.18318e-08
1.32154e-05
-8.06963e-09
1.32157e-05
-1.76426e-08
1.32132e-05
-3.02989e-08
1.32087e-05
-3.85993e-08
1.32051e-05
-4.37751e-08
1.32022e-05
-3.968e-08
-3.6283e-08
1.31999e-05
1.38689e-05
-5.15829e-08
1.38669e-05
-1.87716e-08
1.38698e-05
2.95915e-08
1.38711e-05
-2.34045e-08
1.38665e-05
-5.07436e-08
1.3851e-05
-6.03416e-08
1.3832e-05
-5.38588e-08
1.38221e-05
-5.05486e-08
1.38222e-05
-1.89343e-08
1.38292e-05
1.27809e-08
1.38375e-05
3.46885e-08
1.38435e-05
2.51635e-08
1.38463e-05
9.04565e-09
1.38477e-05
-9.46775e-09
1.3848e-05
-1.79383e-08
1.38464e-05
-2.87015e-08
1.38426e-05
-3.48393e-08
1.3839e-05
-4.01889e-08
1.38367e-05
-3.74154e-08
-3.38169e-08
1.38343e-05
1.45337e-05
-4.16128e-08
1.45319e-05
-1.69626e-08
1.45337e-05
2.78107e-08
1.45328e-05
-2.25769e-08
1.45293e-05
-4.71679e-08
1.45172e-05
-4.832e-08
1.45e-05
-3.66112e-08
1.44893e-05
-3.98802e-08
1.44885e-05
-1.80684e-08
1.44947e-05
6.57587e-09
1.45022e-05
2.71263e-08
1.45074e-05
1.9969e-08
1.45096e-05
6.83343e-09
1.45107e-05
-1.05073e-08
1.4511e-05
-1.82315e-08
1.45099e-05
-2.76292e-08
1.45071e-05
-3.20554e-08
1.45036e-05
-3.66845e-08
1.45017e-05
-3.54848e-08
-3.17098e-08
1.44996e-05
1.52301e-05
-3.28551e-08
1.52283e-05
-1.51836e-08
1.52295e-05
2.66484e-08
1.52265e-05
-1.958e-08
1.52233e-05
-4.39218e-08
1.52145e-05
-3.95347e-08
1.51996e-05
-2.17461e-08
1.51885e-05
-2.87944e-08
1.51866e-05
-1.60946e-08
1.5192e-05
1.143e-09
1.5199e-05
2.01063e-08
1.52037e-05
1.53017e-08
1.52053e-05
5.17662e-09
1.52059e-05
-1.10464e-08
1.52061e-05
-1.84484e-08
1.52053e-05
-2.68542e-08
1.52035e-05
-3.02176e-08
1.52004e-05
-3.35844e-08
1.51984e-05
-3.35287e-08
-3.01939e-08
1.51969e-05
1.59597e-05
-2.52216e-08
1.59578e-05
-1.32439e-08
1.59586e-05
2.58521e-08
1.59536e-05
-1.46444e-08
1.59497e-05
-4.00138e-08
1.59438e-05
-3.36174e-08
1.59319e-05
-9.84629e-09
1.5921e-05
-1.79057e-08
1.5918e-05
-1.30976e-08
1.59224e-05
-3.28553e-09
1.59292e-05
1.33907e-08
1.59336e-05
1.08964e-08
1.59349e-05
3.87465e-09
1.59348e-05
-1.10221e-08
1.59347e-05
-1.83607e-08
1.59342e-05
-2.63241e-08
1.5933e-05
-2.90186e-08
1.59307e-05
-3.12509e-08
1.59286e-05
-3.14392e-08
-2.91361e-08
1.59275e-05
1.6724e-05
-1.86424e-08
1.67217e-05
-1.09343e-08
1.67223e-05
2.5276e-08
1.6716e-05
-8.31393e-09
1.67103e-05
-3.43271e-08
1.67065e-05
-2.98552e-08
1.66979e-05
-1.28275e-09
1.66881e-05
-8.05959e-09
1.66844e-05
-9.38923e-09
1.66876e-05
-6.52112e-09
1.66939e-05
7.11462e-09
1.66985e-05
6.34161e-09
1.66997e-05
2.63711e-09
1.66992e-05
-1.04891e-08
1.66986e-05
-1.78419e-08
1.66981e-05
-2.58042e-08
1.66974e-05
-2.83159e-08
1.66959e-05
-2.96865e-08
1.66939e-05
-2.94754e-08
-2.82062e-08
1.6693e-05
1.75248e-05
-1.30589e-08
1.7522e-05
-8.12414e-09
1.75223e-05
2.48995e-08
1.75154e-05
-1.41646e-09
1.75077e-05
-2.65649e-08
1.75048e-05
-2.697e-08
1.74995e-05
3.98388e-09
1.74913e-05
1.55567e-10
1.74872e-05
-5.24885e-09
1.74893e-05
-8.6415e-09
1.74948e-05
1.63927e-09
1.74996e-05
1.52331e-09
1.75013e-05
9.31505e-10
1.75005e-05
-9.65144e-09
1.74995e-05
-1.69271e-08
1.74988e-05
-2.50155e-08
1.74983e-05
-2.78737e-08
1.74974e-05
-2.88018e-08
1.74959e-05
-2.79373e-08
-2.72143e-08
1.74949e-05
1.83637e-05
-8.4099e-09
1.83604e-05
-4.87494e-09
1.83605e-05
2.48665e-08
1.83538e-05
5.24277e-09
1.83443e-05
-1.70685e-08
1.8341e-05
-2.36384e-08
1.83388e-05
6.18737e-09
1.83325e-05
6.39949e-09
1.8328e-05
-7.24116e-10
1.83292e-05
-9.774e-09
1.83335e-05
-2.72994e-09
1.83383e-05
-3.24538e-09
1.8341e-05