/*--------------------------------*- C++ -*----------------------------------*\
| =========                 |                                                 |
| \\      /  F ield         | OpenFOAM: The Open Source CFD Toolbox           |
|  \\    /   O peration     | Version:  v1912                                 |
|   \\  /    A nd           | Website:  www.openfoam.com                      |
|    \\/     M anipulation  |                                                 |
\*---------------------------------------------------------------------------*/
FoamFile
{
    version     2.0;
    format      ascii;
    class       volScalarField;
    location    "1.6";
    object      p;
}
// * * * * * * * * * * * * * * * * * * * * * * * * * * * * * * * * * * * * * //

dimensions      [0 2 -2 0 0 0 0];


internalField   nonuniform List<scalar> 
9600
(
4.2132e-12
-0.00314506
-0.00101521
0.00223082
-0.000857024
-0.000310151
-0.00285591
-0.00211444
-0.00145475
-0.00411739
-0.0051276
-0.00514526
-0.00585187
-0.00756647
-0.00962332
-0.0107005
-0.0138461
-0.0144399
-0.015847
-0.0174368
1.37242e-06
-0.00314487
-0.00101622
0.00220995
-0.000828305
-0.000395888
-0.00286317
-0.00207003
-0.00149454
-0.00407643
-0.00511967
-0.00518029
-0.00584797
-0.00762632
-0.00959412
-0.0107637
-0.0138103
-0.0144551
-0.015834
-0.0174581
2.78216e-06
-0.00314506
-0.00101977
0.00218539
-0.000791318
-0.000468163
-0.00285536
-0.00200618
-0.00146974
-0.00405393
-0.00512217
-0.00523161
-0.0058445
-0.00768504
-0.00955455
-0.0108398
-0.0137471
-0.0144826
-0.0158149
-0.0174693
2.5569e-06
-0.00314557
-0.00102418
0.00215591
-0.000770116
-0.000545106
-0.00283014
-0.00195376
-0.00152692
-0.00403105
-0.00512359
-0.00530088
-0.00584893
-0.00775317
-0.00952332
-0.0109151
-0.0136877
-0.0145057
-0.015803
-0.0174914
5.51272e-07
-0.0031462
-0.00102918
0.00211833
-0.000765114
-0.000616352
-0.00278628
-0.00192395
-0.00160547
-0.00400698
-0.00512452
-0.00538869
-0.00585829
-0.00783075
-0.00949327
-0.0109914
-0.013634
-0.0145178
-0.0158072
-0.0175013
-2.91581e-06
-0.00314689
-0.00103479
0.00207092
-0.000771717
-0.000676938
-0.00272774
-0.00191974
-0.00170354
-0.00398206
-0.00512444
-0.00548767
-0.00586719
-0.00791095
-0.00946024
-0.0110681
-0.0135764
-0.0145251
-0.0158205
-0.0174853
-7.54521e-06
-0.00314759
-0.00104093
0.00201314
-0.00078724
-0.000727795
-0.00266245
-0.0019382
-0.00181623
-0.00395697
-0.00512377
-0.00558905
-0.00587342
-0.0079919
-0.00942758
-0.0111395
-0.0135178
-0.0145285
-0.0158355
-0.0174583
-1.3055e-05
-0.00314823
-0.00104761
0.00194535
-0.000809477
-0.000772405
-0.00259764
-0.00197311
-0.00193747
-0.00393254
-0.00512308
-0.00568943
-0.00587671
-0.00807353
-0.0093985
-0.0112035
-0.0134648
-0.0145235
-0.0158567
-0.0174314
-1.9183e-05
-0.00314877
-0.00105499
0.00186857
-0.000836149
-0.000814488
-0.00253717
-0.00201769
-0.00206278
-0.00390908
-0.00512267
-0.00578846
-0.00587776
-0.00815632
-0.00937457
-0.0112611
-0.0134199
-0.0145091
-0.0158886
-0.0174029
-2.57431e-05
-0.00314928
-0.00106326
0.00178412
-0.000865291
-0.000856648
-0.00248215
-0.00206673
-0.00218997
-0.00388681
-0.0051226
-0.00588668
-0.00587806
-0.00824006
-0.00935677
-0.0113117
-0.0133848
-0.0144855
-0.015929
-0.0173705
-3.26448e-05
-0.0031499
-0.00107264
0.00169318
-0.000895442
-0.00090032
-0.00243216
-0.00211726
-0.00231829
-0.00386597
-0.00512285
-0.00598502
-0.00587967
-0.00832383
-0.00934505
-0.0113539
-0.0133612
-0.0144517
-0.0159749
-0.0173385
-3.98718e-05
-0.0031508
-0.00108328
0.00159671
-0.000925643
-0.000946211
-0.00238644
-0.00216796
-0.00244773
-0.00384685
-0.00512357
-0.00608442
-0.00588443
-0.00840605
-0.00933926
-0.0113864
-0.0133504
-0.0144079
-0.0160243
-0.0173131
-4.74575e-05
-0.00315215
-0.00109535
0.00149547
-0.000955299
-0.000994614
-0.00234444
-0.00221846
-0.00257873
-0.00382984
-0.00512483
-0.00618584
-0.00589346
-0.00848434
-0.00934061
-0.0114079
-0.0133536
-0.0143554
-0.0160733
-0.017299
-5.54689e-05
-0.00315411
-0.00110896
0.00139013
-0.000984037
-0.00104566
-0.00230591
-0.00226875
-0.00271185
-0.00381545
-0.00512655
-0.00629028
-0.00590732
-0.00855657
-0.00935154
-0.0114181
-0.0133709
-0.0142969
-0.0161167
-0.0172994
-6.39972e-05
-0.0031568
-0.00112422
0.00128135
-0.00101166
-0.00109943
-0.00227091
-0.00231883
-0.0028475
-0.00380416
-0.00512858
-0.00639848
-0.00592644
-0.00862101
-0.00937462
-0.0114166
-0.0134012
-0.0142364
-0.0161488
-0.0173157
-7.31488e-05
-0.00316028
-0.00114126
0.00116972
-0.00103815
-0.00115602
-0.00223971
-0.00236867
-0.00298583
-0.00379645
-0.00513072
-0.00651077
-0.00595142
-0.00867626
-0.00941187
-0.0114039
-0.0134421
-0.0141794
-0.0161639
-0.0173465
-8.30351e-05
-0.00316457
-0.00116018
0.00105573
-0.00106364
-0.0012155
-0.00221278
-0.00241809
-0.00312683
-0.0037928
-0.00513283
-0.00662668
-0.00598305
-0.00872117
-0.00946431
-0.0113811
-0.0134899
-0.0141315
-0.0161572
-0.0173892
-9.37665e-05
-0.00316962
-0.00118109
0.000939771
-0.00108841
-0.00127782
-0.00219073
-0.00246684
-0.00327038
-0.00379362
-0.00513485
-0.00674558
-0.00602237
-0.00875471
-0.0095319
-0.0113504
-0.0135401
-0.0140973
-0.0161255
-0.0174396
-0.000105454
-0.00317536
-0.00120415
0.000822088
-0.00111288
-0.00134284
-0.00217422
-0.00251465
-0.00341624
-0.00379944
-0.00513648
-0.00686683
-0.00607051
-0.00877626
-0.00961369
-0.0113146
-0.0135879
-0.0140805
-0.0160684
-0.0174917
-0.000118213
-0.00318166
-0.00122954
0.000702844
-0.00113747
-0.00141038
-0.00216385
-0.00256115
-0.00356419
-0.00381053
-0.00513746
-0.00698965
-0.00612835
-0.00878571
-0.00970813
-0.0112768
-0.0136288
-0.0140833
-0.0159871
-0.0175384
-0.000132176
-0.0031884
-0.00125747
0.000582143
-0.00116261
-0.00148016
-0.00216024
-0.00260612
-0.00371399
-0.00382807
-0.0051375
-0.00711343
-0.00619667
-0.00878313
-0.00981293
-0.011241
-0.0136592
-0.0141055
-0.0158848
-0.0175725
-0.000147496
-0.00319545
-0.00128824
0.000460093
-0.00118876
-0.00155183
-0.00216403
-0.00264951
-0.003865
-0.00385264
-0.00513638
-0.00723745
-0.00627613
-0.00876921
-0.00992553
-0.0112104
-0.0136755
-0.014146
-0.0157669
-0.0175858
-0.000164349
-0.00320269
-0.00132214
0.000336841
-0.00121637
-0.00162505
-0.00217572
-0.00269127
-0.00401659
-0.00388511
-0.00513381
-0.00736115
-0.00636727
-0.00874464
-0.0100438
-0.0111882
-0.0136741
-0.0142041
-0.0156413
-0.0175695
-0.000182929
-0.00320998
-0.00135954
0.000212574
-0.00124585
-0.00169956
-0.00219572
-0.00273148
-0.00416808
-0.00392638
-0.00512951
-0.00748406
-0.00647074
-0.00870983
-0.0101654
-0.0111774
-0.0136527
-0.0142773
-0.0155156
-0.0175145
-0.000203457
-0.00321718
-0.00140079
8.75445e-05
-0.0012777
-0.00177501
-0.00222448
-0.00277042
-0.0043185
-0.00397755
-0.00512319
-0.00760564
-0.00658724
-0.00866538
-0.0102878
-0.0111813
-0.0136093
-0.0143613
-0.0153985
-0.0174135
-0.00022618
-0.00322412
-0.00144627
-3.79333e-05
-0.00131242
-0.00185112
-0.00226236
-0.00280847
-0.00446686
-0.00403953
-0.0051145
-0.00772493
-0.00671773
-0.00861202
-0.0104081
-0.0112033
-0.0135418
-0.0144493
-0.0153009
-0.017264
-0.000251361
-0.00323062
-0.00149638
-0.000163519
-0.00135049
-0.00192767
-0.00230951
-0.00284619
-0.00461205
-0.00411346
-0.00510363
-0.00784059
-0.00686336
-0.00855043
-0.0105223
-0.011247
-0.0134501
-0.0145325
-0.0152342
-0.0170715
-0.000279277
-0.00323645
-0.00155153
-0.000288844
-0.00139248
-0.00200444
-0.00236599
-0.00288424
-0.00475274
-0.00420079
-0.00509125
-0.00795077
-0.00702497
-0.00848194
-0.0106261
-0.011316
-0.0133372
-0.0145999
-0.0152064
-0.0168496
-0.000310244
-0.00324141
-0.00161215
-0.000413597
-0.00143885
-0.00208116
-0.0024319
-0.00292368
-0.00488752
-0.00430222
-0.00507816
-0.00805312
-0.00720367
-0.00840889
-0.0107146
-0.0114133
-0.0132099
-0.0146377
-0.0152185
-0.0166178
-0.000344598
-0.00324525
-0.00167864
-0.000537466
-0.00148991
-0.00215779
-0.00250689
-0.00296574
-0.00501484
-0.00441835
-0.00506591
-0.00814475
-0.00740019
-0.00833528
-0.0107816
-0.011539
-0.0130781
-0.0146319
-0.0152626
-0.0164026
-0.000382699
-0.00324771
-0.00175143
-0.000660125
-0.00154605
-0.00223445
-0.0025903
-0.00301164
-0.00513321
-0.00454931
-0.00505674
-0.00822277
-0.00761411
-0.00826658
-0.0108205
-0.0116898
-0.0129557
-0.0145725
-0.0153232
-0.0162325
-0.00042493
-0.00324851
-0.0018309
-0.00078143
-0.00160748
-0.00231119
-0.00268142
-0.00306301
-0.00524153
-0.00469475
-0.0050531
-0.0082844
-0.00784405
-0.00820895
-0.0108254
-0.0118603
-0.0128578
-0.0144571
-0.0153799
-0.0161262
-0.0004717
-0.00324735
-0.00191737
-0.000901343
-0.00167417
-0.00238843
-0.00277897
-0.00312154
-0.00533944
-0.00485357
-0.00505753
-0.00832733
-0.00808723
-0.00816895
-0.0107925
-0.0120422
-0.012798
-0.0142924
-0.0154088
-0.0160858
-0.000523435
-0.00324395
-0.00201107
-0.00101992
-0.0017459
-0.00246689
-0.00288133
-0.00318853
-0.00542738
-0.00502361
-0.00507253
-0.00835074
-0.00833939
-0.00815332
-0.0107215
-0.0122238
-0.012787
-0.0140939
-0.0153844
-0.0160942
-0.00058057
-0.0032381
-0.00211213
-0.00113747
-0.0018221
-0.00254751
-0.00298692
-0.00326501
-0.00550614
-0.00520245
-0.00510078
-0.00835431
-0.00859531
-0.00816873
-0.0106165
-0.0123912
-0.0128277
-0.013882
-0.01529
-0.0161244
-0.00064356
-0.00322954
-0.00222061
-0.00125446
-0.00190187
-0.0026317
-0.00309409
-0.00335136
-0.00557689
-0.00538742
-0.0051449
-0.00833855
-0.00884927
-0.00822049
-0.010484
-0.0125306
-0.0129165
-0.01368
-0.0151246
-0.016143
-0.000712848
-0.00321812
-0.00233638
-0.00136631
-0.0019839
-0.00272105
-0.00320136
-0.0034468
-0.00564163
-0.00557576
-0.00520659
-0.00830514
-0.00909475
-0.00831208
-0.0103331
-0.0126293
-0.0130447
-0.0135092
-0.0149009
-0.0161142
-0.00078887
-0.00320379
-0.00245904
-0.00148447
-0.00206646
-0.00281697
-0.00330804
-0.00354971
-0.00570264
-0.00576573
-0.00528699
-0.00825624
-0.00932514
-0.00844555
-0.010175
-0.0126759
-0.0132008
-0.0133852
-0.0146375
-0.0160164
-0.000872026
-0.00318664
-0.00258774
-0.00160603
-0.00214753
-0.00292015
-0.00341625
-0.00365805
-0.00576141
-0.00595553
-0.00538739
-0.00819486
-0.00953472
-0.00862011
-0.0100215
-0.0126622
-0.0133711
-0.013318
-0.014354
-0.015848
-0.000962685
-0.00316689
-0.00272121
-0.00173315
-0.00222533
-0.00303022
-0.00352894
-0.00376942
-0.00581792
-0.00614465
-0.00550927
-0.00812474
-0.00971793
-0.00883092
-0.00988568
-0.0125848
-0.0135395
-0.0133144
-0.0140705
-0.0156141
-0.00106113
-0.00314499
-0.00285754
-0.00186846
-0.00229923
-0.00314531
-0.00364864
-0.00388247
-0.00587161
-0.00633299
-0.00565364
-0.00804981
-0.0098691
-0.00907042
-0.00978114
-0.0124478
-0.013685
-0.0133757
-0.0138106
-0.0153202
-0.00116754
-0.00312169
-0.00299418
-0.00201443
-0.00236974
-0.00326226
-0.00377799
-0.00399734
-0.00592105
-0.00651938
-0.00582122
-0.00797487
-0.00998339
-0.00932924
-0.00971911
-0.0122637
-0.0137852
-0.0134916
-0.0136027
-0.0149798
-0.00128199
-0.00309797
-0.00312842
-0.00217299
-0.00243844
-0.00337739
-0.00391871
-0.00411521
-0.00596408
-0.00670191
-0.00601319
-0.00790591
-0.0100564
-0.00959606
-0.00970852
-0.0120497
-0.0138209
-0.0136404
-0.0134729
-0.0146199
-0.00140448
-0.00307515
-0.00325775
-0.00234503
-0.00250779
-0.00348697
-0.00407109
-0.00423874
-0.00599917
-0.00687836
-0.00622981
-0.00784982
-0.0100854
-0.00985767
-0.00975471
-0.011826
-0.0137815
-0.0137947
-0.0134317
-0.0142786
-0.00153484
-0.00305486
-0.00337985
-0.0025307
-0.00258118
-0.00358766
-0.00423357
-0.00437232
-0.00602633
-0.00704399
-0.00646892
-0.00781446
-0.0100719
-0.0101006
-0.00985654
-0.0116137
-0.0136678
-0.0139263
-0.0134687
-0.0139956
-0.00167277
-0.00303901
-0.00349244
-0.00272894
-0.00266274
-0.00367742
-0.00440372
-0.00452144
-0.00604774
-0.00719104
-0.00672519
-0.00780876
-0.0100214
-0.0103124
-0.0100059
-0.0114324
-0.0134919
-0.0140109
-0.0135587
-0.0137973
-0.00181776
-0.00302983
-0.00359323
-0.00293778
-0.00275718
-0.00375512
-0.00457738
-0.00469102
-0.00606752
-0.00731243
-0.0069911
-0.00784061
-0.00994393
-0.0104825
-0.010188
-0.0112985
-0.013273
-0.0140328
-0.0136716
-0.0136872
-0.00196906
-0.00302971
-0.00368037
-0.0031545
-0.00287016
-0.00382074
-0.00474747
-0.00488322
-0.0060945
-0.00740507
-0.00725484
-0.00791312
-0.00985326
-0.0106045
-0.0103844
-0.0112204
-0.0130353
-0.0139879
-0.0137781
-0.0136487
-0.00212572
-0.00304069
-0.00375334
-0.00337483
-0.00300678
-0.0038769
-0.00490478
-0.00509611
-0.00614065
-0.00747085
-0.00750225
-0.00802247
-0.00976534
-0.0106788
-0.0105765
-0.0111959
-0.0128037
-0.0138829
-0.0138548
-0.0136568
-0.0022866
-0.00306459
-0.00381291
-0.00359366
-0.00317085
-0.00393106
-0.0050415
-0.00532205
-0.00621464
-0.0075156
-0.00772361
-0.00815979
-0.00969353
-0.0107114
-0.0107503
-0.0112156
-0.0125976
-0.0137322
-0.0138873
-0.0136878
-0.00245023
-0.00310294
-0.00386129
-0.00380489
-0.00336317
-0.0039942
-0.00515442
-0.00554831
-0.00631797
-0.00755024
-0.00791481
-0.00831354
-0.00964575
-0.0107119
-0.0108963
-0.0112673
-0.012429
-0.0135534
-0.0138702
-0.0137213
-0.00261505
-0.00315663
-0.00390248
-0.00400325
-0.00358172
-0.00407671
-0.00524479
-0.00576348
-0.00644715
-0.00758686
-0.00807701
-0.00847236
-0.00962398
-0.0106906
-0.0110086
-0.0113367
-0.0123035
-0.0133658
-0.0138049
-0.0137416
-0.00277956
-0.00322625
-0.00394123
-0.00418538
-0.00382097
-0.00418532
-0.00531802
-0.00595869
-0.00659605
-0.00763431
-0.00821364
-0.00862799
-0.0096263
-0.0106576
-0.0110861
-0.0114096
-0.0122184
-0.0131887
-0.0137008
-0.0137358
-0.00294248
-0.00331171
-0.0039829
-0.00434903
-0.00407195
-0.00432463
-0.00538572
-0.00612952
-0.00675402
-0.00769571
-0.00833073
-0.00877564
-0.00964901
-0.0106211
-0.0111326
-0.0114748
-0.0121636
-0.0130353
-0.0135734
-0.013695
-0.00310314
-0.00341178
-0.00403262
-0.00449334
-0.00432379
-0.00449649
-0.00546122
-0.00627542
-0.00690956
-0.00776994
-0.00843468
-0.00891265
-0.00968816
-0.0105872
-0.0111533
-0.0115261
-0.0121266
-0.0129079
-0.0134401
-0.0136184
-0.00326127
-0.00352452
-0.0040944
-0.00461996
-0.00456661
-0.00469939
-0.00555541
-0.00639902
-0.00705507
-0.00785329
-0.00852896
-0.00903836
-0.00974031
-0.010561
-0.0111533
-0.0115606
-0.0120985
-0.012801
-0.0133151
-0.0135157
-0.003417
-0.00364778
-0.00417058
-0.00473376
-0.00479482
-0.00492442
-0.00567379
-0.00651008
-0.0071879
-0.00794001
-0.00861561
-0.00915249
-0.00980183
-0.0105464
-0.0111393
-0.0115759
-0.0120725
-0.0127062
-0.0132053
-0.0134053
-0.00357075
-0.00377958
-0.00426164
-0.00484185
-0.00500632
-0.00515662
-0.00581593
-0.0066202
-0.00730839
-0.00802627
-0.00869548
-0.00925426
-0.00986808
-0.0105457
-0.0111199
-0.0115743
-0.0120439
-0.0126155
-0.013106
-0.0133052
-0.00372343
-0.00391829
-0.00436687
-0.00495035
-0.00520129
-0.00538547
-0.00597779
-0.00673728
-0.0074214
-0.00811031
-0.00876817
-0.00934299
-0.00993435
-0.0105576
-0.0111028
-0.011561
-0.0120126
-0.0125257
-0.0130045
-0.0132203
-0.00387589
-0.0040626
-0.00448453
-0.00506223
-0.00538206
-0.00560543
-0.006151
-0.00686424
-0.00753328
-0.00819157
-0.00883312
-0.00941882
-0.00999744
-0.0105784
-0.0110909
-0.0115405
-0.0119804
-0.0124421
-0.012893
-0.0131372
-0.00402883
-0.00421129
-0.00461268
-0.00517888
-0.00555264
-0.00581549
-0.00632705
-0.00699979
-0.00764897
-0.00827334
-0.00889129
-0.00948085
-0.0100537
-0.0106048
-0.0110865
-0.0115159
-0.0119456
-0.0123702
-0.0127771
-0.0130409
-0.00418271
-0.00436344
-0.00474927
-0.00530097
-0.00571623
-0.0060155
-0.00650159
-0.00713982
-0.00776893
-0.00836
-0.0089459
-0.00952912
-0.0100988
-0.0106326
-0.0110915
-0.0114927
-0.0119044
-0.0123081
-0.0126697
-0.0129294
-0.00433774
-0.00451845
-0.00489231
-0.00542824
-0.00587511
-0.00620673
-0.00667305
-0.00727967
-0.007891
-0.00845265
-0.00900255
-0.00956819
-0.0101308
-0.0106538
-0.0111017
-0.0114793
-0.0118591
-0.0122469
-0.0125765
-0.0128133
-0.00449399
-0.00467578
-0.00504045
-0.00556019
-0.00603045
-0.00639088
-0.00684072
-0.00741689
-0.00801263
-0.00854973
-0.00906392
-0.00960292
-0.0101528
-0.0106648
-0.0111078
-0.0114757
-0.0118202
-0.0121829
-0.0124933
-0.0127028
-0.00465128
-0.00483486
-0.00519283
-0.00569606
-0.00618247
-0.00656885
-0.00700495
-0.00755066
-0.00813037
-0.00864948
-0.0091308
-0.00963667
-0.0101683
-0.0106683
-0.0111035
-0.0114719
-0.0117939
-0.0121212
-0.0124142
-0.0126018
-0.00480936
-0.00499502
-0.0053486
-0.00583528
-0.00633124
-0.00674069
-0.00716677
-0.00768207
-0.00824146
-0.00874821
-0.00920412
-0.0096728
-0.0101781
-0.0106667
-0.0110916
-0.0114587
-0.0117731
-0.0120683
-0.0123384
-0.0125095
-0.00496792
-0.00515549
-0.00550669
-0.0059776
-0.00647722
-0.00690607
-0.00732567
-0.00781254
-0.0083474
-0.0088407
-0.00928004
-0.00971545
-0.0101853
-0.0106581
-0.011076
-0.0114363
-0.011748
-0.0120221
-0.0122666
-0.0124231
-0.00512659
-0.00531552
-0.0056658
-0.00612267
-0.00662092
-0.00706492
-0.00748102
-0.00794233
-0.00845068
-0.00892626
-0.00935229
-0.00976397
-0.0101969
-0.0106428
-0.011054
-0.0114092
-0.0117157
-0.011977
-0.0121979
-0.0123395
-0.00528477
-0.00547451
-0.00582468
-0.00626972
-0.00676282
-0.00721743
-0.00763253
-0.00807123
-0.00855193
-0.00900821
-0.00941843
-0.00981068
-0.0102151
-0.0106275
-0.0110224
-0.0113752
-0.0116774
-0.0119299
-0.0121319
-0.0122575
-0.00544175
-0.00563166
-0.0059822
-0.00641807
-0.00690345
-0.00736387
-0.00777981
-0.00819995
-0.00865144
-0.0090868
-0.00948111
-0.00985179
-0.0102327
-0.0106172
-0.0109865
-0.0113309
-0.0116315
-0.0118784
-0.0120671
-0.012177
-0.00559669
-0.00578619
-0.00613688
-0.0065664
-0.00704372
-0.00750535
-0.00792216
-0.0083288
-0.00875192
-0.00916186
-0.00954048
-0.00988998
-0.0102424
-0.0106033
-0.0109488
-0.0112766
-0.0115754
-0.0118209
-0.0120023
-0.0121005
-0.00574835
-0.00593749
-0.00628789
-0.006713
-0.00718356
-0.00764366
-0.00805949
-0.00845589
-0.00885635
-0.00923858
-0.0095966
-0.00992761
-0.0102477
-0.0105772
-0.0109017
-0.0112086
-0.0114996
-0.0117468
-0.0119278
-0.0120224
-0.00589531
-0.00608417
-0.00643449
-0.00685733
-0.0073224
-0.00778005
-0.00819437
-0.00858027
-0.00896139
-0.00931997
-0.00965329
-0.00996589
-0.0102569
-0.0105456
-0.0108429
-0.011125
-0.011394
-0.0116341
-0.0118169
-0.0119185
-0.00603601
-0.00622464
-0.00657524
-0.00699838
-0.00746023
-0.00791513
-0.0083298
-0.00870693
-0.00906733
-0.00940298
-0.00970961
-0.00999907
-0.0102684
-0.0105182
-0.0107756
-0.0110295
-0.0112693
-0.0114863
-0.0116563
-0.0117546
-0.00616803
-0.00635718
-0.0067093
-0.00713449
-0.00759581
-0.00804897
-0.00846664
-0.0088422
-0.00918345
-0.00949305
-0.00977061
-0.0100224
-0.0102643
-0.0104833
-0.0106987
-0.0109254
-0.0111389
-0.0113285
-0.0114805
-0.0115589
-0.00628962
-0.00648003
-0.00683527
-0.00726417
-0.00772692
-0.00817996
-0.0086037
-0.00898783
-0.00932918
-0.00961281
-0.00984579
-0.0100314
-0.0101915
-0.0103496
-0.0105077
-0.0106912
-0.0109025
-0.0111189
-0.0113203
-0.0114594
-0.00639915
-0.00659272
-0.00695051
-0.00738361
-0.00785104
-0.00830623
-0.00873774
-0.00913913
-0.00951689
-0.00985002
-0.0101149
-0.0102808
-0.0103173
-0.0103103
-0.0102963
-0.0102625
-0.0102293
-0.0101875
-0.0101597
-0.0101715
-0.00649432
-0.00669342
-0.0070546
-0.00749314
-0.00796738
-0.00842792
-0.00886672
-0.00924643
-0.00955932
-0.00981064
-0.00998757
-0.0101392
-0.0102679
-0.0103794
-0.0105033
-0.0105762
-0.0105682
-0.0104656
-0.0103154
-0.0102131
-0.00657017
-0.00676602
-0.00713043
-0.00757697
-0.00806037
-0.00853069
-0.00898977
-0.00941128
-0.00975917
-0.0100292
-0.0101572
-0.0101642
-0.0101404
-0.0100779
-0.0100078
-0.00993995
-0.00987842
-0.00984331
-0.00984661
-0.00992404
-0.00664107
-0.00684663
-0.00721743
-0.00766663
-0.0081554
-0.00862337
-0.00907568
-0.00949915
-0.0098447
-0.0101163
-0.010289
-0.0103134
-0.0102368
-0.0101087
-0.00997919
-0.00989786
-0.00986758
-0.00989013
-0.00995556
-0.0100788
-0.018777
-0.0192033
-0.0235149
-0.0274339
-0.0276289
-0.0255573
-0.0231952
-0.0212884
-0.0199573
-0.0191844
-0.018944
-0.0190083
-0.0189101
-0.0184112
-0.017846
-0.0175501
-0.0173714
-0.0171483
-0.0169162
-0.0165944
-0.0161713
-0.0158325
-0.0156196
-0.0154219
-0.015191
-0.0149504
-0.0147689
-0.0146505
-0.0144707
-0.014209
-0.0139998
-0.0138751
-0.0137577
-0.0136635
-0.0136543
-0.0137065
-0.0137506
-0.0137169
-0.0135484
-0.0133026
-0.0130946
-0.01294
-0.012766
-0.0125943
-0.0125067
-0.0124593
-0.0123777
-0.0122797
-0.0121604
-0.0119941
-0.0118249
-0.0116916
-0.0115642
-0.0114279
-0.0113172
-0.0111909
-0.0110302
-0.0108807
-0.0107362
-0.0105642
-0.0103972
-0.0102497
-0.0100881
-0.00990334
-0.00971993
-0.00952638
-0.00931861
-0.00911209
-0.00891683
-0.00869656
-0.00847518
-0.00827547
-0.00808339
-0.00787285
-0.00764002
-0.00738213
-0.00712859
-0.00689691
-0.00667081
-0.00643193
-0.00618171
-0.0059307
-0.00565842
-0.00540315
-0.00511751
-0.00485782
-0.00456876
-0.00427222
-0.00398273
-0.00367141
-0.00335899
-0.00303248
-0.00269839
-0.00232011
-0.00196902
-0.00156455
-0.00111334
-0.000668156
-5.55527e-05
0.000581996
-0.0187611
-0.019232
-0.0233988
-0.0273022
-0.0275588
-0.0255232
-0.0231725
-0.0212703
-0.0199417
-0.0191703
-0.0189318
-0.0189995
-0.0189042
-0.0184067
-0.0178418
-0.0175462
-0.0173679
-0.0171451
-0.0169135
-0.0165921
-0.0161689
-0.01583
-0.0156173
-0.0154198
-0.0151891
-0.0149485
-0.0147669
-0.0146487
-0.0144692
-0.0142075
-0.0139983
-0.0138737
-0.0137563
-0.0136621
-0.013653
-0.0137053
-0.0137496
-0.013716
-0.0135476
-0.0133018
-0.0130938
-0.0129392
-0.0127654
-0.0125936
-0.012506
-0.0124587
-0.0123772
-0.0122792
-0.0121599
-0.0119937
-0.0118244
-0.0116912
-0.0115638
-0.0114275
-0.0113168
-0.0111906
-0.0110299
-0.0108804
-0.0107359
-0.0105639
-0.0103969
-0.0102494
-0.0100878
-0.00990308
-0.00971968
-0.00952614
-0.00931838
-0.00911185
-0.00891661
-0.00869636
-0.00847497
-0.00827527
-0.00808319
-0.00787267
-0.00763985
-0.00738197
-0.00712842
-0.00689675
-0.00667066
-0.00643179
-0.00618157
-0.00593057
-0.0056583
-0.00540303
-0.00511739
-0.0048577
-0.00456865
-0.00427212
-0.00398263
-0.00367131
-0.0033589
-0.00303239
-0.00269831
-0.00232003
-0.00196893
-0.00156448
-0.00111326
-0.000668064
-5.54066e-05
0.000582206
-0.0188986
-0.0193181
-0.0231754
-0.0270362
-0.0274279
-0.0254737
-0.0231507
-0.0212565
-0.019931
-0.0191607
-0.0189215
-0.0189883
-0.0188942
-0.018399
-0.0178365
-0.0175427
-0.0173651
-0.0171421
-0.0169109
-0.01659
-0.0161669
-0.0158279
-0.0156154
-0.0154181
-0.0151875
-0.0149469
-0.0147654
-0.0146473
-0.0144679
-0.0142061
-0.0139969
-0.0138725
-0.0137551
-0.0136609
-0.0136519
-0.0137044
-0.0137488
-0.0137153
-0.0135469
-0.013301
-0.013093
-0.0129386
-0.0127648
-0.0125929
-0.0125054
-0.0124582
-0.0123768
-0.0122788
-0.0121596
-0.0119933
-0.011824
-0.0116908
-0.0115635
-0.0114272
-0.0113165
-0.0111903
-0.0110296
-0.0108801
-0.0107357
-0.0105636
-0.0103967
-0.0102492
-0.0100876
-0.00990287
-0.00971948
-0.00952595
-0.00931819
-0.00911166
-0.00891644
-0.00869619
-0.00847479
-0.0082751
-0.00808304
-0.00787253
-0.00763972
-0.00738184
-0.00712828
-0.00689661
-0.00667054
-0.00643167
-0.00618146
-0.00593047
-0.00565819
-0.00540293
-0.0051173
-0.00485761
-0.00456857
-0.00427203
-0.00398255
-0.00367123
-0.00335883
-0.00303232
-0.00269824
-0.00231997
-0.00196887
-0.00156443
-0.0011132
-0.000668005
-5.53112e-05
0.000582469
-0.0190479
-0.0193748
-0.0228757
-0.0266821
-0.0272385
-0.0254005
-0.0231189
-0.0212379
-0.0199188
-0.0191525
-0.0189121
-0.0189737
-0.0188766
-0.0183842
-0.0178271
-0.0175374
-0.0173608
-0.0171376
-0.0169069
-0.0165871
-0.0161647
-0.0158257
-0.015613
-0.0154159
-0.0151858
-0.0149456
-0.0147639
-0.0146458
-0.0144664
-0.0142046
-0.0139955
-0.0138711
-0.0137537
-0.0136594
-0.0136506
-0.0137034
-0.013748
-0.0137146
-0.0135462
-0.0133002
-0.0130921
-0.0129378
-0.0127641
-0.0125922
-0.0125047
-0.0124576
-0.0123763
-0.0122784
-0.0121592
-0.0119929
-0.0118236
-0.0116904
-0.0115631
-0.0114268
-0.0113162
-0.01119
-0.0110293
-0.0108798
-0.0107354
-0.0105634
-0.0103964
-0.010249
-0.0100874
-0.00990265
-0.00971927
-0.00952575
-0.00931798
-0.00911146
-0.00891626
-0.00869601
-0.00847459
-0.00827492
-0.00808288
-0.00787238
-0.00763958
-0.00738169
-0.00712813
-0.00689647
-0.00667041
-0.00643156
-0.00618134
-0.00593036
-0.00565808
-0.00540283
-0.0051172
-0.00485751
-0.00456849
-0.00427194
-0.00398247
-0.00367115
-0.00335875
-0.00303225
-0.00269818
-0.0023199
-0.00196881
-0.00156439
-0.00111315
-0.000667967
-5.5255e-05
0.000582851
-0.0191638
-0.0194114
-0.0225621
-0.0263005
-0.0270237
-0.0253141
-0.0230806
-0.0212152
-0.0199043
-0.0191451
-0.018904
-0.0189555
-0.0188506
-0.0183616
-0.0178135
-0.0175297
-0.0173541
-0.01713
-0.0168998
-0.0165824
-0.0161622
-0.0158235
-0.0156099
-0.0154126
-0.0151838
-0.0149447
-0.0147629
-0.0146441
-0.0144646
-0.0142032
-0.0139943
-0.0138697
-0.0137519
-0.0136575
-0.0136491
-0.0137023
-0.013747
-0.0137138
-0.0135453
-0.0132991
-0.0130911
-0.0129369
-0.0127633
-0.0125913
-0.0125039
-0.012457
-0.0123757
-0.0122779
-0.0121587
-0.0119924
-0.0118231
-0.0116899
-0.0115627
-0.0114264
-0.0113158
-0.0111897
-0.011029
-0.0108795
-0.0107351
-0.0105631
-0.0103961
-0.0102487
-0.0100872
-0.00990241
-0.00971904
-0.00952554
-0.00931776
-0.00911124
-0.00891607
-0.00869582
-0.00847438
-0.00827472
-0.00808271
-0.00787223
-0.00763943
-0.00738154
-0.00712795
-0.00689631
-0.00667028
-0.00643143
-0.00618121
-0.00593024
-0.00565796
-0.00540272
-0.00511709
-0.00485741
-0.00456839
-0.00427184
-0.00398238
-0.00367107
-0.00335867
-0.00303218
-0.00269811
-0.00231983
-0.00196875
-0.00156435
-0.0011131
-0.000667959
-5.5252e-05
0.000583365
-0.0192615
-0.0194641
-0.0222577
-0.025904
-0.0267909
-0.0252194
-0.0230389
-0.0211898
-0.0198878
-0.0191374
-0.0188959
-0.0189347
-0.0188192
-0.018334
-0.0177974
-0.0175203
-0.0173448
-0.0171187
-0.0168887
-0.0165751
-0.0161591
-0.0158214
-0.015606
-0.0154079
-0.0151809
-0.0149439
-0.0147622
-0.0146423
-0.0144625
-0.0142019
-0.0139935
-0.0138683
-0.0137497
-0.0136552
-0.0136473
-0.0137009
-0.0137457
-0.0137125
-0.0135442
-0.013298
-0.0130898
-0.0129357
-0.0127622
-0.0125902
-0.0125028
-0.0124561
-0.0123751
-0.0122772
-0.0121581
-0.0119918
-0.0118224
-0.0116894
-0.0115621
-0.0114259
-0.0113154
-0.0111893
-0.0110286
-0.0108791
-0.0107348
-0.0105627
-0.0103958
-0.0102484
-0.0100869
-0.00990215
-0.0097188
-0.0095253
-0.00931751
-0.009111
-0.00891586
-0.00869561
-0.00847414
-0.00827451
-0.00808253
-0.00787206
-0.00763927
-0.00738136
-0.00712776
-0.00689614
-0.00667012
-0.00643129
-0.00618106
-0.00593011
-0.00565782
-0.00540259
-0.00511696
-0.00485729
-0.00456829
-0.00427173
-0.00398228
-0.00367097
-0.00335858
-0.00303209
-0.00269803
-0.00231976
-0.00196869
-0.00156432
-0.00111307
-0.000668002
-5.53301e-05
0.000584016
-0.0193569
-0.0195341
-0.0219569
-0.0254903
-0.0265408
-0.0251182
-0.0229957
-0.0211631
-0.0198693
-0.0191281
-0.0188869
-0.0189125
-0.0187853
-0.0183046
-0.017781
-0.017511
-0.0173339
-0.0171041
-0.0168736
-0.0165647
-0.016155
-0.0158192
-0.0156014
-0.015402
-0.0151769
-0.0149428
-0.0147615
-0.0146401
-0.0144601
-0.0142011
-0.0139934
-0.0138672
-0.0137474
-0.0136526
-0.0136452
-0.0136992
-0.0137438
-0.0137105
-0.0135426
-0.0132965
-0.0130883
-0.0129343
-0.012761
-0.012589
-0.0125014
-0.0124549
-0.0123742
-0.0122765
-0.0121573
-0.011991
-0.0118217
-0.0116887
-0.0115615
-0.0114253
-0.0113148
-0.0111888
-0.0110281
-0.0108787
-0.0107344
-0.0105623
-0.0103954
-0.0102481
-0.0100866
-0.00990186
-0.00971853
-0.00952503
-0.00931724
-0.00911073
-0.00891562
-0.00869538
-0.00847388
-0.00827427
-0.00808233
-0.00787186
-0.00763908
-0.00738116
-0.00712754
-0.00689594
-0.00666995
-0.00643113
-0.0061809
-0.00592996
-0.00565766
-0.00540245
-0.00511682
-0.00485716
-0.00456817
-0.0042716
-0.00398217
-0.00367086
-0.00335847
-0.003032
-0.00269795
-0.00231967
-0.00196863
-0.0015643
-0.00111304
-0.000668119
-5.5521e-05
0.000584805
-0.0194417
-0.0196078
-0.0216576
-0.0250627
-0.0262752
-0.0250111
-0.0229513
-0.021135
-0.0198482
-0.0191163
-0.0188765
-0.0188894
-0.0187504
-0.0182743
-0.0177647
-0.017502
-0.0173226
-0.0170874
-0.0168554
-0.0165518
-0.0161497
-0.0158165
-0.0155964
-0.0153953
-0.0151722
-0.0149411
-0.0147601
-0.0146371
-0.0144573
-0.0142006
-0.013994
-0.0138667
-0.0137453
-0.0136501
-0.0136433
-0.0136974
-0.0137413
-0.0137076
-0.0135401
-0.0132946
-0.0130865
-0.0129327
-0.0127598
-0.0125877
-0.0124998
-0.0124534
-0.012373
-0.0122755
-0.0121563
-0.01199
-0.0118208
-0.0116878
-0.0115606
-0.0114245
-0.0113141
-0.0111881
-0.0110275
-0.0108781
-0.0107338
-0.0105618
-0.0103949
-0.0102476
-0.0100862
-0.00990152
-0.00971822
-0.00952472
-0.00931692
-0.00911043
-0.00891535
-0.00869511
-0.00847358
-0.00827401
-0.0080821
-0.00787165
-0.00763887
-0.00738094
-0.00712729
-0.00689571
-0.00666975
-0.00643094
-0.00618071
-0.00592979
-0.00565748
-0.00540228
-0.00511665
-0.00485701
-0.00456803
-0.00427145
-0.00398204
-0.00367073
-0.00335836
-0.00303188
-0.00269785
-0.00231957
-0.00196857
-0.00156429
-0.00111302
-0.000668332
-5.58599e-05
0.000585733
-0.0195036
-0.0196827
-0.0213684
-0.0246252
-0.0259924
-0.0248959
-0.0229045
-0.0211051
-0.0198242
-0.0191017
-0.0188646
-0.0188658
-0.0187148
-0.0182433
-0.0177481
-0.017493
-0.017311
-0.0170697
-0.0168354
-0.016537
-0.0161431
-0.0158132
-0.015591
-0.0153883
-0.0151673
-0.014939
-0.0147579
-0.014633
-0.014454
-0.0142003
-0.0139952
-0.0138666
-0.0137436
-0.0136481
-0.0136419
-0.0136961
-0.0137386
-0.0137038
-0.0135366
-0.0132917
-0.013084
-0.0129308
-0.0127586
-0.0125866
-0.0124981
-0.0124516
-0.0123716
-0.0122742
-0.012155
-0.0119888
-0.0118198
-0.0116868
-0.0115596
-0.0114236
-0.0113132
-0.0111872
-0.0110267
-0.0108774
-0.0107331
-0.0105611
-0.0103943
-0.0102471
-0.0100857
-0.00990112
-0.00971786
-0.00952435
-0.00931655
-0.00911008
-0.00891503
-0.00869479
-0.00847325
-0.00827373
-0.00808186
-0.0078714
-0.00763863
-0.00738068
-0.00712701
-0.00689544
-0.00666951
-0.00643072
-0.00618048
-0.00592958
-0.00565726
-0.00540208
-0.00511645
-0.00485682
-0.00456786
-0.00427128
-0.00398188
-0.00367058
-0.00335821
-0.00303175
-0.00269773
-0.00231946
-0.0019685
-0.00156429
-0.00111302
-0.000668667
-5.63844e-05
0.000586797
-0.0195385
-0.0197617
-0.0210963
-0.0241781
-0.0256884
-0.02477
-0.0228546
-0.0210736
-0.0197974
-0.0190842
-0.0188512
-0.0188416
-0.0186787
-0.0182115
-0.0177308
-0.0174836
-0.0172989
-0.0170512
-0.0168142
-0.016521
-0.0161355
-0.0158092
-0.0155852
-0.0153811
-0.0151623
-0.0149367
-0.014755
-0.0146281
-0.01445
-0.0142001
-0.0139968
-0.0138669
-0.0137422
-0.0136465