/*--------------------------------*- C++ -*----------------------------------*\
| =========                 |                                                 |
| \\      /  F ield         | OpenFOAM: The Open Source CFD Toolbox           |
|  \\    /   O peration     | Version:  v1912                                 |
|   \\  /    A nd           | Website:  www.openfoam.com                      |
|    \\/     M anipulation  |                                                 |
\*---------------------------------------------------------------------------*/
FoamFile
{
    version     2.0;
    format      ascii;
    class       volScalarField;
    location    "10";
    object      p;
}
// * * * * * * * * * * * * * * * * * * * * * * * * * * * * * * * * * * * * * //

dimensions      [0 2 -2 0 0 0 0];


internalField   nonuniform List<scalar> 
9600
(
8.4009e-10
0.00417478
0.00279802
0.00296557
0.00322456
0.0019555
0.00474225
0.00302605
0.0036274
0.00646191
0.00823517
0.0114529
0.0141639
0.0179067
0.0200624
0.0206495
0.0264458
0.028329
0.0365502
0.0433707
-2.67346e-06
0.00417825
0.00279634
0.00296628
0.00321689
0.00195519
0.00475668
0.00301791
0.0036511
0.0064629
0.00822564
0.0114707
0.0141526
0.0178935
0.0200542
0.0206254
0.0264431
0.0282422
0.0366355
0.042729
-5.47328e-06
0.00418307
0.00279268
0.00296601
0.00320586
0.00195789
0.00477018
0.00300353
0.00369366
0.00645799
0.00821712
0.0114976
0.0141223
0.017885
0.0200389
0.020603
0.0264083
0.0281552
0.0365874
0.0419466
-7.5185e-06
0.00418748
0.00278672
0.00296341
0.00319279
0.00196322
0.00478233
0.00298343
0.0037399
0.00644803
0.00820857
0.0115173
0.0140853
0.017872
0.020028
0.0205732
0.0263744
0.0280499
0.036423
0.0412318
-8.67077e-06
0.0041912
0.00277876
0.00295832
0.00317856
0.00197106
0.00479238
0.00295742
0.00378959
0.00643423
0.00819881
0.0115323
0.0140485
0.0178567
0.0200182
0.0205379
0.0263375
0.0279286
0.0362413
0.040521
-9.07866e-06
0.00419394
0.00276991
0.00295251
0.00316429
0.00198144
0.00479951
0.00292802
0.00384698
0.0064185
0.0081889
0.011548
0.0140171
0.0178386
0.0200077
0.0204998
0.0262854
0.0278091
0.0360035
0.0398246
-9.04247e-06
0.00419533
0.00276124
0.00294885
0.00315176
0.00199457
0.00480346
0.00289778
0.00391306
0.00640167
0.00817852
0.0115648
0.0139905
0.0178155
0.0199961
0.0204553
0.0262207
0.0276864
0.0357052
0.0391451
-8.82128e-06
0.00419522
0.00275328
0.00295004
0.00314318
0.00201112
0.00480463
0.00286761
0.0039862
0.00638369
0.00816666
0.0115809
0.0139674
0.0177869
0.019981
0.0204064
0.026141
0.0275606
0.0353471
0.0384795
-8.55675e-06
0.00419362
0.002746
0.0029576
0.0031401
0.00203167
0.00480361
0.00283741
0.00406512
0.00636477
0.00815275
0.0115951
0.0139466
0.0177514
0.0199608
0.0203538
0.0260433
0.0274296
0.0349305
0.0378227
-8.29547e-06
0.00419072
0.00273911
0.00297152
0.00314565
0.00205611
0.00480069
0.00280775
0.00414933
0.00634564
0.00813702
0.0116065
0.0139259
0.017708
0.0199339
0.0202979
0.0259243
0.0272921
0.0344583
0.0371688
-8.02332e-06
0.00418676
0.0027325
0.00299039
0.00316263
0.00208352
0.00479582
0.00278079
0.00423799
0.00632773
0.00812104
0.0116138
0.0139021
0.0176562
0.0198978
0.0202383
0.0257814
0.0271468
0.033934
0.0365122
-7.69743e-06
0.00418198
0.00272637
0.00301186
0.00317596
0.00211259
0.00478898
0.00275972
0.00432943
0.0063131
0.00810747
0.0116171
0.0138717
0.0175951
0.0198503
0.0201741
0.025613
0.0269913
0.0333622
0.0358481
-7.27032e-06
0.00417655
0.00272115
0.0030337
0.00318983
0.00214212
0.00478059
0.00274737
0.0044213
0.00630382
0.00809897
0.0116167
0.0138311
0.0175243
0.0197898
0.0201037
0.0254181
0.026823
0.0327491
0.0351715
-6.70237e-06
0.00417048
0.00271732
0.00305443
0.00320361
0.00217139
0.00477163
0.00274543
0.00451134
0.00630127
0.0080969
0.0116134
0.0137783
0.0174434
0.0197146
0.020025
0.0251973
0.0266387
0.0321004
0.034478
-5.96001e-06
0.00416376
0.00271526
0.00307334
0.0032167
0.00220005
0.00476309
0.0027542
0.00459821
0.0063059
0.00810095
0.0116078
0.0137133
0.0173524
0.0196253
0.0199362
0.0249517
0.0264351
0.0314209
0.0337637
-4.99062e-06
0.00415626
0.00271522
0.00309023
0.0032289
0.00222789
0.00475542
0.00277272
0.00468166
0.00631763
0.00810986
0.0116005
0.0136368
0.0172511
0.0195223
0.0198353
0.024683
0.0262092
0.030715
0.0330264
-3.70778e-06
0.00414783
0.00271727
0.00310516
0.00324028
0.00225484
0.00474856
0.00279937
0.00476205
0.00633626
0.00812199
0.0115916
0.01355
0.0171394
0.0194062
0.0197199
0.0243932
0.0259588
0.0299872
0.0322654
-2.00485e-06
0.00413827
0.00272132
0.00311822
0.00325107
0.00228089
0.00474217
0.00283228
0.00483965
0.00636161
0.0081354
0.0115814
0.0134542
0.017017
0.0192782
0.0195878
0.0240835
0.0256829
0.0292413
0.0314807
2.32527e-07
0.00412739
0.0027272
0.00312947
0.00326161
0.00230605
0.00473594
0.00286969
0.0049143
0.00639332
0.00814788
0.0115698
0.0133514
0.0168831
0.0191397
0.0194369
0.0237541
0.0253814
0.02848
0.0306732
3.12224e-06
0.00411497
0.00273474
0.00313884
0.00327224
0.00233038
0.00472955
0.00291017
0.00498531
0.00643079
0.00815705
0.0115563
0.0132433
0.016737
0.0189921
0.0192654
0.0234038
0.0250561
0.0277053
0.029843
6.78853e-06
0.00410077
0.00274383
0.00314617
0.00328324
0.00235392
0.00472263
0.00295266
0.00505181
0.00647353
0.00816061
0.01154
0.0131319
0.0165773
0.0188366
0.0190725
0.0230307
0.0247094
0.0269202
0.0289894
1.13694e-05
0.00408452
0.00275445
0.00315125
0.00329478
0.00237668
0.00471474
0.00299641
0.00511285
0.00652121
0.00815663
0.0115198
0.0130189
0.0164018
0.0186735
0.0188589
0.0226317
0.0243445
0.0261291
0.0281097
1.70257e-05
0.00406589
0.00276664
0.00315381
0.00330696
0.00239861
0.0047054
0.00304116
0.00516737
0.0065735
0.00814384
0.0114941
0.0129063
0.0162086
0.0185025
0.0186259
0.0222028
0.0239635
0.0253389
0.0272007
2.39378e-05
0.00404449
0.00278049
0.00315362
0.00331978
0.00241966
0.0046942
0.00308711
0.00521422
0.00663004
0.00812174
0.0114609
0.0127957
0.0159957
0.0183218
0.0183756
0.0217407
0.0235659
0.0245577
0.0262613
3.23072e-05
0.00401993
0.00279607
0.00315048
0.00333315
0.00243982
0.00468064
0.00313477
0.00525235
0.00669027
0.00809056
0.0114181
0.0126884
0.015762
0.0181287
0.0181115
0.0212436
0.0231478
0.0237944
0.0252938
4.23726e-05
0.00399174
0.00281347
0.00314418
0.00334702
0.00245915
0.00466401
0.00318479
0.00528082
0.00675344
0.00805129
0.0113633
0.0125856
0.0155073
0.0179188
0.0178381
0.020711
0.0227028
0.0230585
0.0243036
5.43871e-05
0.00395943
0.00283273
0.0031346
0.00336138
0.00247789
0.00464342
0.00323778
0.00529864
0.00681876
0.00800537
0.0112933
0.0124882
0.0152332
0.0176877
0.0175591
0.0201457
0.0222237
0.0223572
0.0233009
6.86095e-05
0.00392246
0.00285396
0.00312176
0.00337607
0.00249645
0.00461799
0.00329406
0.00530508
0.00688502
0.00795475
0.0112052
0.0123961
0.0149415
0.0174301
0.0172782
0.0195528
0.0217025
0.0216931
0.0222994
8.53166e-05
0.00388028
0.00287716
0.00310574
0.00339083
0.00251541
0.00458696
0.00335374
0.00529976
0.00695028
0.00790209
0.0110961
0.012308
0.0146361
0.0171411
0.0169967
0.0189384
0.0211322
0.0210628
0.0213141
0.000104773
0.00383235
0.0029023
0.00308673
0.0034052
0.00253546
0.00454959
0.0034168
0.00528238
0.0070118
0.00785023
0.0109642
0.0122213
0.0143223
0.0168161
0.0167126
0.0183116
0.0205083
0.0204579
0.0203618
0.000127249
0.00377815
0.00292972
0.00306498
0.0034186
0.0025573
0.00450526
0.00348281
0.00525193
0.00706665
0.00780171
0.0108084
0.0121323
0.0140047
0.016452
0.0164212
0.0176834
0.0198322
0.0198659
0.0194571
0.000153039
0.00371712
0.00295865
0.00304093
0.00343025
0.00258179
0.00445342
0.00355074
0.00519468
0.00711156
0.00775846
0.0106288
0.0120361
0.0136884
0.0160484
0.0161174
0.0170637
0.0191101
0.0192717
0.0186098
0.000182425
0.00364878
0.00298908
0.00301513
0.00343877
0.00261015
0.00439396
0.00361901
0.0051477
0.00714291
0.00772114
0.0104263
0.0119266
0.013378
0.0156087
0.0157917
0.0164595
0.0183521
0.0186579
0.0178224
0.000215677
0.00357273
0.0030205
0.00298835
0.00344251
0.00264318
0.00432749
0.00368546
0.00509497
0.00715732
0.0076896
0.0102035
0.0117973
0.0130759
0.015138
0.0154331
0.0158758
0.0175699
0.0180093
0.0170889
0.000253052
0.00348874
0.00305198
0.00296161
0.00343994
0.00268126
0.00425522
0.00374747
0.00503762
0.00715212
0.00766252
0.00996363
0.0116418
0.0127824
0.0146432
0.0150355
0.0153119
0.0167787
0.017321
0.0163977
0.000294741
0.00339667
0.00308274
0.00293598
0.00342948
0.00272441
0.00417887
0.0038024
0.00497724
0.00712501
0.0076371
0.00971112
0.0114546
0.0124958
0.0141336
0.0145947
0.0147601
0.015993
0.0165968
0.0157338
0.000340932
0.00329651
0.00311152
0.0029127
0.00341018
0.0027718
0.00409991
0.00384773
0.0049154
0.00707461
0.00760967
0.00945049
0.0112323
0.0122112
0.0136173
0.0141127
0.0142142
0.0152214
0.0158415
0.0150789
0.000391739
0.00318868
0.00313621
0.00289252
0.00338192
0.00282214
0.00402026
0.00388111
0.00485258
0.0070009
0.00757589
0.00918589
0.0109746
0.0119223
0.0130984
0.0135925
0.0136873
0.0144713
0.0150672
0.0144124
0.000447097
0.00307376
0.00315505
0.00287617
0.00334479
0.00287306
0.00394245
0.00390161
0.00478807
0.00690449
0.00753165
0.00891926
0.0106821
0.0116238
0.0125818
0.0130372
0.0131293
0.0137455
0.0142866
0.0137337
0.000506994
0.00295568
0.00316561
0.00286359
0.00329988
0.00292211
0.00386819
0.00390849
0.0047208
0.00678655
0.00747414
0.00865243
0.010355
0.011309
0.0120713
0.0124528
0.0125535
0.0130385
0.0135199
0.0130497
0.000571304
0.00283489
0.00316526
0.00285396
0.00324846
0.00296684
0.00379928
0.00390163
0.00464957
0.00664776
0.00739938
0.00838851
0.00999637
0.0109689
0.0115665
0.0118493
0.011962
0.012346
0.0127775
0.0123705
0.000639807
0.00271284
0.00315175
0.00284669
0.00319241
0.00300452
0.00373648
0.00388168
0.004573
0.00649034
0.0073029
0.00812713
0.00961303
0.0105979
0.0110599
0.011227
0.011359
0.0119114
0.0120914
0.0117245
0.000712052
0.00259133
0.0031231
0.00284085
0.00313333
0.00303355
0.00368
0.00384992
0.00448805
0.00631601
0.00718513
0.00786711
0.00920941
0.010197
0.0105511
0.0105846
0.010708
0.0112237
0.0114222
0.0111892
0.000787144
0.00247206
0.00307843
0.00283491
0.00307291
0.00305178
0.00362885
0.00380865
0.00439378
0.0061244
0.0070434
0.00760944
0.0087921
0.0097688
0.0100518
0.00996389
0.0100549
0.0105805
0.0110281
0.0105646
0.000864282
0.00235688
0.00301691
0.00282714
0.00301235
0.00305844
0.00358144
0.00375895
0.00429008
0.00591673
0.00687555
0.00735148
0.00836783
0.00931918
0.00956782
0.00936985
0.00936677
0.00981681
0.0102028
0.00988226
0.000941899
0.0022476
0.00293978
0.00281529
0.00295164
0.00305273
0.00353646
0.0037027
0.00417554
0.00569314
0.00668299
0.00709144
0.00793941
0.00884534
0.00908045
0.00880142
0.0087108
0.00908471
0.00936101
0.00875678
0.00101774
0.0021461
0.00284947
0.00279566
0.00289182
0.00303468
0.00349072
0.00364113
0.00405118
0.00545435
0.00646315
0.00682792
0.00751463
0.00834183
0.00855277
0.00819935
0.00799394
0.0082754
0.00860466
0.00839912
0.00108973
0.00205388
0.00274939
0.00276581
0.00283097
0.0030049
0.00344148
0.00357506
0.00391644
0.00520187
0.0062194
0.00655407
0.00709024
0.00782162
0.00802607
0.00764749
0.00734353
0.00749882
0.00775752
0.00749154
0.00115594
0.00197141
0.0026439
0.00272333
0.00276761
0.00296292
0.00338726
0.00350391
0.00377436
0.0049363
0.00594689
0.0062694
0.0066652
0.00728224
0.00747194
0.0070764
0.00667015
0.00668355
0.00690046
0.00676073
0.00121505
0.00189882
0.00253551
0.00266681
0.00269969
0.00291017
0.003326
0.00342643
0.00362503
0.00465724
0.00564778
0.00596968
0.00623529
0.00672512
0.00688857
0.00649266
0.00602482
0.0059334
0.0060807
0.00599782
0.00126632
0.00183467
0.00242665
0.00259751
0.0026245
0.00284534
0.00325565
0.00334264
0.00346792
0.00436789
0.00532289
0.00564773
0.00580484
0.00616018
0.00628581
0.0059048
0.00539768
0.00520309
0.00526436
0.00519513
0.00130907
0.00177716
0.00231986
0.00251682
0.00253945
0.00276666
0.00317637
0.0032512
0.00330255
0.00406766
0.00497145
0.00530619
0.00537597
0.00559158
0.00566916
0.00531052
0.00477701
0.00448638
0.00446855
0.00439637
0.00134301
0.00172461
0.0022161
0.00242694
0.00244335
0.00267366
0.00308483
0.00315026
0.0031295
0.0037579
0.00459924
0.00494261
0.00494495
0.00503138
0.00504509
0.00469703
0.00415816
0.00379475
0.00370304
0.00361882
0.00136824
0.00167471
0.00211532
0.00233092
0.00233713
0.00256251
0.00297724
0.003041
0.00295052
0.00344007
0.00420504
0.00455477
0.00451556
0.00448385
0.0044147
0.00406646
0.00354361
0.00312881
0.00295619
0.00285306
0.0013846
0.00162617
0.00201723
0.00223053
0.00222116
0.00243279
0.00285182
0.00292094
0.00276444
0.00311527
0.00379278
0.0041455
0.00408388
0.003948
0.00378964
0.00342724
0.00291994
0.00247833
0.00223056
0.00210609
0.00139272
0.00157801
0.00192004
0.0021267
0.00209821
0.00228452
0.00270303
0.00278633
0.00257633
0.00278806
0.00336537
0.00371158
0.00364364
0.00342692
0.00317974
0.00278607
0.00228427
0.00183719
0.001532
0.00137451
0.00139237
0.00152883
0.0018227
0.0020201
0.00197015
0.0021173
0.00252935
0.00263609
0.00238609
0.00246185
0.00292451
0.00325213
0.00319244
0.00292051
0.00258841
0.00215018
0.0016405
0.00119645
0.000860562
0.000659438
0.00138356
0.00147775
0.00172357
0.0019095
0.00183891
0.00193572
0.00233051
0.00246611
0.00219226
0.00214102
0.00247643
0.00276803
0.00272314
0.00242328
0.00201869
0.0015293
0.000999322
0.000552945
0.00020872
-3.3863e-05
0.00136624
0.001424
0.00162125
0.0017935
0.00170614
0.001743
0.00210282
0.00227213
0.00199297
0.00182735
0.00202906
0.00226336
0.00222961
0.00192718
0.00147216
0.000931213
0.000369806
-9.39579e-05
-0.000438409
-0.000701861
0.00134023
0.00136685
0.00151532
0.00167041
0.00157176
0.0015441
0.00185578
0.00205196
0.00178504
0.00152173
0.00158894
0.00174763
0.0017115
0.00142158
0.000943418
0.000358564
-0.000240073
-0.000734829
-0.00108413
-0.00134581
0.00130515
0.00130559
0.00140585
0.00153872
0.00143457
0.00134514
0.00159128
0.00180223
0.00156327
0.00122451
0.00116051
0.00123139
0.0011749
0.000898639
0.00042102
-0.000190173
-0.000822974
-0.00135459
-0.00172653
-0.00198167
0.00126057
0.00123944
0.00129323
0.00139807
0.00129218
0.00114902
0.0013158
0.00152249
0.00132158
0.000933427
0.000746939
0.000721627
0.000630248
0.000359362
-0.00010539
-0.000722311
-0.00138017
-0.00194567
-0.00235461
-0.00261639
0.00120616
0.00116752
0.00117815
0.001249
0.00114169
0.000959896
0.00103722
0.00121602
0.00105462
0.000643375
0.000349963
0.000225067
8.67082e-05
-0.000190249
-0.000640847
-0.00124619
-0.00191663
-0.00250892
-0.00295333
-0.00324052
0.00114185
0.00108908
0.00106105
0.00109257
0.000980758
0.00077276
0.000762409
0.000890008
0.000759689
0.000348628
-3.17089e-05
-0.000253974
-0.000447084
-0.000741405
-0.00118493
-0.00176904
-0.00243593
-0.00304879
-0.00352069
-0.00384137
0.00106787
0.00100337
0.000941876
0.000930476
0.000808562
0.00058383
0.000495034
0.000554235
0.000437675
4.35492e-05
-0.000400408
-0.000714114
-0.000965413
-0.0012842
-0.00173186
-0.00229625
-0.00294409
-0.003569
-0.00406041
-0.00440916
0.000984718
0.000909776
0.000820195
0.000764666
0.00062549
0.000389935
0.000235965
0.000218168
9.40548e-05
-0.000277493
-0.000758887
-0.00115322
-0.00146642
-0.00181177
-0.00227111
-0.00282694
-0.00344744
-0.00407168
-0.00457884
-0.00494536
0.000892941
0.000808003
0.000695494
0.000596883
0.000432817
0.000188803
-1.59531e-05
-0.000110822
-0.00026145
-0.000616184
-0.00111365
-0.00156928
-0.00194702
-0.00232341
-0.00279284
-0.00335132
-0.00394903
-0.00456018
-0.00508003
-0.00545809
0.000793209
0.000698084
0.000566837
0.000428524
0.000233196
-2.0471e-05
-0.000263604
-0.000429257
-0.000618134
-0.000967813
-0.00147092
-0.00196504
-0.0024006
-0.00281741
-0.00329651
-0.0038594
-0.00444397
-0.00503566
-0.00556282
-0.00595224
0.00068642
0.000580962
0.000433336
0.00025996
2.98017e-05
-0.000236606
-0.000508848
-0.000735919
-0.000969546
-0.00132428
-0.00182939
-0.00234734
-0.00282527
-0.00328482
-0.00378127
-0.00434784
-0.00492617
-0.00549743
-0.00602333
-0.00642579
0.000572903
0.000456965
0.000295148
9.16693e-05
-0.000174756
-0.000458072
-0.000752687
-0.00102898
-0.00131023
-0.0016812
-0.00218537
-0.00271636
-0.00322523
-0.00372014
-0.00423867
-0.00481177
-0.00538807
-0.00594321
-0.00645456
-0.00685706
0.000453978
0.00032805
0.000152197
-7.6596e-05
-0.00037733
-0.000681913
-0.000996096
-0.00130929
-0.00163278
-0.00202926
-0.0025355
-0.00306947
-0.00360262
-0.0041285
-0.00466739
-0.00525236
-0.00583155
-0.00638332
-0.006879
-0.00728623
0.000329789
0.000194447
5.904e-06
-0.000244303
-0.000576255
-0.000903412
-0.00123668
-0.00158041
-0.00193811
-0.00236123
-0.00287584
-0.00340243
-0.00394354
-0.00449475
-0.00504249
-0.00563189
-0.0062018
-0.00674319
-0.00725207
-0.0076685
0.000201783
5.77718e-05
-0.000142273
-0.000410769
-0.000770304
-0.0011206
-0.00146943
-0.00183603
-0.00222558
-0.00267178
-0.00320376
-0.00373133
-0.00426827
-0.00484638
-0.00542044
-0.00604908
-0.00664278
-0.00718302
-0.0076663
-0.00806541
7.10747e-05
-8.02676e-05
-0.000291484
-0.000574644
-0.000955847
-0.00133161
-0.00169732
-0.00207783
-0.00248881
-0.00294815
-0.00348073
-0.00401346
-0.00452631
-0.00509386
-0.00564117
-0.00616669
-0.00681125
-0.00741002
-0.00793217
-0.00835499
-6.15385e-05
-0.000219832
-0.00043979
-0.000733708
-0.00112996
-0.001525
-0.00191433
-0.00231229
-0.00275686
-0.00324323
-0.00377526
-0.00431053
-0.00481945
-0.00537149
-0.00598871
-0.00653625
-0.00709528
-0.00765785
-0.0081525
-0.00854838
-0.000193944
-0.000358118
-0.000586177
-0.000887722
-0.00129298
-0.00170333
-0.0020958
-0.0024943
-0.00293332
-0.00341664
-0.00393157
-0.00445945
-0.0049722
-0.0055053
-0.00610333
-0.0067159
-0.00733634
-0.00796343
-0.0085414
-0.00902561
-0.000325803
-0.000493182
-0.00072797
-0.00103017
-0.0014363
-0.00187023
-0.00231893
-0.00278043
-0.00329465
-0.00380923
-0.0043037
-0.0047323
-0.00515954
-0.00561455
-0.00610357
-0.00659118
-0.0070034
-0.00737252
-0.00770954
-0.00803094
-0.000462356
-0.000627499
-0.000854266
-0.00114101
-0.0015328
-0.0019563
-0.00236502
-0.00276405
-0.00322308
-0.00371994
-0.0042027
-0.00472168
-0.0052354
-0.00576528
-0.00634345
-0.00698288
-0.00763014
-0.00827367
-0.00889775
-0.00944805
-0.000613438
-0.000791739
-0.000983148
-0.00122067
-0.00157788
-0.00201393
-0.00247245
-0.00291906
-0.00343401
-0.00396916
-0.00449589
-0.00502091
-0.00550623
-0.00595196
-0.00638416
-0.00680908
-0.00720959
-0.00757157
-0.00792451
-0.00830262
-0.000716965
-0.000898673
-0.00107557
-0.00129423
-0.00163319
-0.00206393
-0.00251036
-0.00292738
-0.00340758
-0.00390788
-0.00438456
-0.00489545
-0.00540352
-0.00587225
-0.00633197
-0.00680978
-0.00731016
-0.00779546
-0.00827063
-0.00876424
0.059678
0.0404186
0.0237668
0.0136756
0.00899136
0.00741421
0.00619692
0.00409214
0.00142417
-0.000886728
-0.00259604
-0.00430766
-0.00623904
-0.00784032
-0.00870455
-0.00913337
-0.00967958
-0.0105718
-0.01179
-0.0131697
-0.0145242
-0.0158313
-0.0171301
-0.0184176
-0.0197214
-0.0211242
-0.0225745
-0.0239167
-0.0251519
-0.0263669
-0.0276128
-0.0288735
-0.0301275
-0.0313741
-0.0326258
-0.0338815
-0.0351264
-0.0363846
-0.0376889
-0.0390447
-0.040416
-0.0417623
-0.0430968
-0.0444619
-0.0458674
-0.0473211
-0.0488142
-0.0503145
-0.0518387
-0.0534133
-0.0549997
-0.0566033
-0.0582301
-0.0598864
-0.061529
-0.0631738
-0.0648941
-0.0666692
-0.0684414
-0.0702567
-0.0721253
-0.0740099
-0.0759254
-0.0778714
-0.0798556
-0.081852
-0.0838669
-0.0859033
-0.0880275
-0.0902494
-0.0924903
-0.0947182
-0.0969876
-0.099303
-0.101649
-0.104047
-0.106509
-0.109022
-0.111567
-0.114148
-0.116794
-0.119461
-0.122191
-0.124969
-0.127824
-0.13069
-0.133603
-0.136592
-0.139631
-0.142726
-0.145836
-0.149062
-0.152289
-0.155602
-0.158925
-0.162371
-0.165787
-0.16916
-0.172449
-0.175525
0.0569177
0.0402399
0.0238523
0.0137981
0.00908167
0.00746532
0.00623283
0.0041173
0.00143972
-0.000876654
-0.00258771
-0.00430002
-0.00623302
-0.00783572
-0.00870006
-0.00912816
-0.00967415
-0.0105667
-0.0117854
-0.0131657
-0.0145206
-0.0158279
-0.017127
-0.0184147
-0.0197186
-0.0211217
-0.0225724
-0.0239149
-0.0251502
-0.0263653
-0.0276113
-0.0288721
-0.0301263
-0.031373
-0.0326248
-0.0338805
-0.0351255
-0.0363837
-0.0376881
-0.0390439
-0.0404154
-0.0417617
-0.0430961
-0.0444613
-0.0458668
-0.0473205
-0.0488137
-0.050314
-0.0518382
-0.0534129
-0.0549992
-0.0566029
-0.0582297
-0.059886
-0.0615286
-0.0631734
-0.0648937
-0.0666688
-0.068441
-0.0702564
-0.072125
-0.0740097
-0.0759251
-0.0778712
-0.0798554
-0.0818517
-0.0838667
-0.0859031
-0.0880272
-0.0902492
-0.0924901
-0.0947181
-0.0969874
-0.0993029
-0.101649
-0.104047
-0.106509
-0.109022
-0.111567
-0.114148
-0.116793
-0.119461
-0.122191
-0.124968
-0.127824
-0.13069
-0.133603
-0.136592
-0.13963
-0.142726
-0.145836
-0.149062
-0.152289
-0.155602
-0.158925
-0.162371
-0.165787
-0.16916
-0.172449
-0.175524
0.0552829
0.0402486
0.0240635
0.0140257
0.00922989
0.00751962
0.00625089
0.00413428
0.0014589
-0.000859764
-0.00257519
-0.00429184
-0.00622844
-0.00783295
-0.00869693
-0.00912371
-0.00966916
-0.0105621
-0.0117815
-0.0131625
-0.0145177
-0.0158251
-0.0171244
-0.0184123
-0.0197162
-0.0211195
-0.0225708
-0.0239135
-0.0251488
-0.026364
-0.0276101
-0.028871
-0.0301252
-0.031372
-0.0326239
-0.0338797
-0.0351247
-0.036383
-0.0376873
-0.0390433
-0.0404148
-0.0417612
-0.0430956
-0.0444608
-0.0458663
-0.04732
-0.0488132
-0.0503136
-0.0518378
-0.0534125
-0.0549989
-0.0566025
-0.0582294
-0.0598857
-0.0615283
-0.0631731
-0.0648934
-0.0666686
-0.0684408
-0.0702561
-0.0721248
-0.0740094
-0.0759249
-0.0778709
-0.0798552
-0.0818516
-0.0838666
-0.0859029
-0.088027
-0.0902491
-0.09249
-0.0947179
-0.0969872
-0.0993027
-0.101649
-0.104047
-0.106509
-0.109022
-0.111566
-0.114148
-0.116793
-0.119461
-0.122191
-0.124968
-0.127824
-0.13069
-0.133603
-0.136592
-0.13963
-0.142726
-0.145836
-0.149062
-0.152289
-0.155602
-0.158925
-0.162371
-0.165787
-0.16916
-0.172449
-0.175525
0.0534504
0.0400721
0.024248
0.0142639
0.00940431
0.0075818
0.00626828
0.00415575
0.00149003
-0.000829942
-0.00255519
-0.00428137
-0.00622291
-0.00782886
-0.00869253
-0.00911842
-0.0096638
-0.0105575
-0.0117777
-0.0131592
-0.0145145
-0.015822
-0.0171215
-0.0184094
-0.0197136
-0.0211172
-0.0225688
-0.0239115
-0.025147
-0.0263624
-0.0276087
-0.0288697
-0.0301239
-0.0313709
-0.032623
-0.0338789
-0.0351238
-0.0363821
-0.0376865
-0.0390426
-0.0404142
-0.0417607
-0.0430951
-0.0444602
-0.0458658
-0.0473195
-0.0488128
-0.0503132
-0.0518373
-0.0534121
-0.0549985
-0.0566022
-0.058229
-0.0598854
-0.061528
-0.0631727
-0.0648931
-0.0666683
-0.0684405
-0.0702559
-0.0721245
-0.0740092
-0.0759247
-0.0778707
-0.079855
-0.0818514
-0.0838664
-0.0859027
-0.0880268
-0.0902489
-0.0924899
-0.0947178
-0.0969871
-0.0993026
-0.101648
-0.104047
-0.106509
-0.109022
-0.111566
-0.114148
-0.116793
-0.119461
-0.122191
-0.124968
-0.127824
-0.130689
-0.133603
-0.136592
-0.13963
-0.142726
-0.145836
-0.149062
-0.152289
-0.155602
-0.158925
-0.162371
-0.165787
-0.16916
-0.172449
-0.175525
0.0515628
0.0398111
0.0244404
0.0145194
0.00959231
0.00764817
0.00628231
0.00417723
0.00152995
-0.000787488
-0.00252688
-0.00426839
-0.00621664
-0.00782306
-0.00868557
-0.00911068
-0.00965695
-0.0105526
-0.0117741
-0.0131558
-0.014511
-0.0158184
-0.0171179
-0.018406
-0.0197106
-0.0211146
-0.0225661
-0.0239087
-0.0251444
-0.0263602
-0.0276067
-0.0288677
-0.0301221
-0.0313694
-0.0326217
-0.0338777
-0.0351226
-0.036381
-0.0376855
-0.0390417
-0.0404135
-0.04176
-0.0430944
-0.0444595
-0.0458651
-0.0473189
-0.0488123
-0.0503127
-0.0518368
-0.0534116
-0.0549981
-0.0566017
-0.0582287
-0.0598851
-0.0615277
-0.0631724
-0.0648927
-0.066668
-0.0684402
-0.0702555
-0.0721242
-0.0740089
-0.0759244
-0.0778705
-0.0798548
-0.0818512
-0.0838662
-0.0859025
-0.0880265
-0.0902487
-0.0924897
-0.0947176
-0.0969869
-0.0993024
-0.101648
-0.104047
-0.106508
-0.109022
-0.111566
-0.114148
-0.116793
-0.11946
-0.122191
-0.124968
-0.127824
-0.130689
-0.133603
-0.136592
-0.13963
-0.142726
-0.145836
-0.149062
-0.152289
-0.155602
-0.158924
-0.162371
-0.165787
-0.16916
-0.17245
-0.175526
0.0496858
0.0394797
0.0246408
0.0147825
0.0097822
0.00771428
0.00629134
0.00419528
0.00157246
-0.000738642
-0.00249402
-0.00425502
-0.0062117
-0.00781746
-0.00867683
-0.00909983
-0.00964724
-0.0105464
-0.0117702
-0.0131523
-0.0145072
-0.0158143
-0.0171136
-0.018402
-0.0197076
-0.021112
-0.022563
-0.023905
-0.0251411
-0.0263575
-0.0276041
-0.0288647
-0.0301192
-0.0313672
-0.0326201
-0.0338761
-0.035121
-0.0363795
-0.0376843
-0.0390405
-0.0404125
-0.0417592
-0.0430936
-0.0444587
-0.0458643
-0.0473182
-0.0488117
-0.0503121
-0.0518363
-0.0534111
-0.0549976
-0.0566013
-0.0582282
-0.0598847
-0.0615273
-0.0631719
-0.0648923
-0.0666676
-0.0684398
-0.0702552
-0.0721239
-0.0740086
-0.0759241
-0.0778702
-0.0798545
-0.0818509
-0.083866
-0.0859022
-0.0880262
-0.0902485
-0.0924896
-0.0947174
-0.0969867
-0.0993022
-0.101648
-0.104046
-0.106508
-0.109022
-0.111566
-0.114148
-0.116793
-0.11946
-0.12219
-0.124968
-0.127824
-0.130689
-0.133603
-0.136592
-0.13963
-0.142726
-0.145836
-0.149062
-0.152289
-0.155602
-0.158924
-0.162371
-0.165787
-0.16916
-0.17245
-0.175527
0.0478278
0.0390637
0.0248329
0.0150436
0.00997007
0.00777956
0.00629577
0.00420911
0.00161478
-0.000687172
-0.00245905
-0.00424241
-0.00620979
-0.00781472
-0.00866873
-0.00908687
-0.00963428
-0.0105377
-0.0117651
-0.0131484
-0.0145031
-0.0158099
-0.0171086
-0.0183973
-0.0197044
-0.0211096
-0.0225597
-0.0239008
-0.0251373
-0.0263545
-0.0276008
-0.0288605
-0.030115
-0.0313639
-0.0326176
-0.0338738
-0.0351187
-0.0363776
-0.0376827
-0.039039
-0.0404112
-0.0417582
-0.0430926
-0.0444576
-0.0458633
-0.0473174
-0.048811
-0.0503114
-0.0518355
-0.0534104
-0.054997
-0.0566008
-0.0582277
-0.0598841
-0.0615268
-0.0631714
-0.0648918
-0.0666671
-0.0684394
-0.0702548
-0.0721236
-0.0740082
-0.0759238
-0.0778699
-0.0798542
-0.0818507
-0.0838657
-0.0859019
-0.0880258
-0.0902483
-0.0924894
-0.0947172
-0.0969865
-0.099302
-0.101648
-0.104046
-0.106508
-0.109022
-0.111566
-0.114147
-0.116793
-0.11946
-0.12219
-0.124968
-0.127824
-0.130689
-0.133603
-0.136592
-0.13963
-0.142725
-0.145836
-0.149062
-0.152289
-0.155602
-0.158924
-0.162371
-0.165787
-0.16916
-0.172451
-0.175528
0.0459977
0.038557
0.0250081
0.0153005
0.0101558
0.00784514
0.00629638
0.00421817
0.00165561
-0.000634506
-0.00242279
-0.00423072
-0.00621139
-0.00781638
-0.00866351
-0.00907386
-0.00961911
-0.0105266
-0.0117586
-0.0131439
-0.014499
-0.0158053
-0.0171031
-0.0183921
-0.0197011
-0.0211074
-0.0225563
-0.0238963
-0.0251337
-0.0263518
-0.0275975
-0.0288554
-0.0301093
-0.0313594
-0.0326141
-0.0338705
-0.0351156
-0.0363751
-0.0376807
-0.0390371
-0.0404095
-0.0417568
-0.0430913
-0.0444563
-0.0458621
-0.0473163
-0.04881
-0.0503105
-0.0518346
-0.0534095
-0.0549962
-0.0566002
-0.0582271
-0.0598835
-0.0615262
-0.0631708
-0.0648912
-0.0666665
-0.0684389
-0.0702543
-0.0721231
-0.0740078
-0.0759234
-0.0778695
-0.0798539
-0.0818503
-0.0838654
-0.0859015
-0.0880254
-0.090248
-0.0924892
-0.094717
-0.0969862
-0.0993018
-0.101648
-0.104046
-0.106508
-0.109021
-0.111566
-0.114147
-0.116793
-0.11946
-0.12219
-0.124968
-0.127824
-0.130689
-0.133603
-0.136591
-0.13963
-0.142725
-0.145836
-0.149062
-0.152289
-0.155602
-0.158924
-0.16237
-0.165787
-0.169161
-0.172452
-0.17553
0.0442077
0.0379584
0.0251587
0.0155515
0.0103403
0.00791259
0.00629404
0.00422166
0.00169355
-0.000581659
-0.00238585
-0.00422025
-0.00621673
-0.007823
-0.00866247
-0.00906265
-0.00960345
-0.0105142
-0.011751
-0.013139
-0.0144948
-0.0158006
-0.0170974
-0.0183866
-0.0196979
-0.0211054
-0.0225531
-0.023892
-0.0251304
-0.0263499
-0.0275947
-0.02885
-0.0301027
-0.0313537
-0.0326096
-0.0338661
-0.0351115
-0.036372
-0.0376783
-0.0390348
-0.0404074
-0.0417551
-0.0430897
-0.0444547
-0.0458607
-0.0473151
-0.0488089
-0.0503094
-0.0518334
-0.0534082
-0.0549951
-0.0565993
-0.0582264
-0.0598827
-0.0615254
-0.0631701
-0.0648904
-0.0666658
-0.0684382
-0.0702537
-0.0721225
-0.0740073
-0.075923
-0.0778692
-0.0798535
-0.0818499
-0.083865
-0.085901
-0.0880249
-0.0902477
-0.092489
-0.0947168
-0.096986
-0.0993015
-0.101647
-0.104046
-0.106508
-0.109021
-0.111566
-0.114147
-0.116793
-0.11946
-0.12219
-0.124968
-0.127823
-0.130689
-0.133602
-0.136591
-0.13963
-0.142725
-0.145836
-0.149062
-0.152288
-0.155602
-0.158924
-0.16237
-0.165787
-0.169161
-0.172453
-0.175532
0.0424706
0.0372689
0.025278
0.015797
0.0105247
0.00798267
0.00628827
0.00421828
0.00172678
-0.000529796
-0.00234879
-0.00421124
-0.00622603
-0.00783495
-0.00866645
-0.00905468
-0.00958899
-0.010502
-0.0117434
-0.0131342
-0.0144908
-0.0157962
-0.0170919
-0.0183812
-0.0196948
-0.0211038
-0.0225503
-0.0238878
-0.0251275
-0.0263487
-0.0275927
-0.0288449
-0.0300959
-0.0313476
-0.0326042
-0.0338606
-0.0351063
-0.0363683
-0.0376755
-0.0390322
-0.040405
-0.0417531
-0.0430879
-0.0444527
-0.045859
-0.0473137
-0.0488076
-0.0503082
-0.0518319
-0.0534065
-0.0549936
-0.0565982
-0.0582254
-0.0598818
-0.0615246
-0.0631694
-0.0648896
-0.0666649
-0.0684374
-0.070253
-0.0721218
-0.0740066
-0.0759224
-0.0778687
-0.0798531
-0.0818496
-0.0838646
-0.0859005
-0.0880243
-0.0902472
-0.0924886
-0.0947165
-0.0969857
-0.0993012
-0.101647
-0.104045
-0.106507
-0.109021
-0.111565
-0.114147
-0.116792
-0.11946
-0.12219
-0.124967
-0.127823
-0.130689
-0.133602
-0.136591
-0.139629
-0.142725
-0.145835
-0.149061
-0.152288
-0.155601
-0.158924
-0.16237
-0.165787
-0.169161
-0.172455
-0.175534
0.0407941
0.0364931
0.0253617
0.016038
0.0107069
0.0080524
0.00627883
0.00420721
0.00175452
-0.000479748
-0.0023122
-0.00420405
-0.0062396
-0.00785267
-0.00867613
-0.0090511
-0.00957721
-0.0104911
-0.0117366
-0.0131298
-0.0144872
-0.0157922
-0.0170869
-0.0183762
-0.0196923
-0.0211029
-0.022548
-0.0238839
-0.0251247
-0.0263478
-0.027591
-0.0288399
-0.030089
-0.0313413
-0.0325985
-0.0338543
-0.0351003
-0.0363639
-0.0376725
-0.0390294
-0.0404025
-0.041751
-0.0430857
-0.0444504
-0.0458571
-0.0473121
-0.0488062
-0.0503069
-0.0518304
-0.0534046
-0.0549917
-0.0565965
-0.058224
-0.0598805
-0.0615237
-0.0631688
-0.0648887
-0.0666638
-0.0684365
-0.0702521
-0.0721208
-0.0740056
-0.0759217
-0.0778681
-0.0798526
-0.0818492
-0.0838644
-0.0859
-0.0880237
-0.0902467
-0.0924882
-0.0947161
-0.0969853
-0.0993009
-0.101647
-0.104045
-0.106507
-0.109021
-0.111565
-0.114147
-0.116792
-0.119459
-0.122189
-0.124967
-0.127823
-0.130689
-0.133602