/*--------------------------------*- C++ -*----------------------------------*\
| =========                 |                                                 |
| \\      /  F ield         | OpenFOAM: The Open Source CFD Toolbox           |
|  \\    /   O peration     | Version:  v1912                                 |
|   \\  /    A nd           | Website:  www.openfoam.com                      |
|    \\/     M anipulation  |                                                 |
\*---------------------------------------------------------------------------*/
FoamFile
{
    version     2.0;
    format      ascii;
    class       surfaceScalarField;
    location    "10";
    object      phi;
}
// * * * * * * * * * * * * * * * * * * * * * * * * * * * * * * * * * * * * * //

dimensions      [0 3 -1 0 0 0 0];
oriented        oriented;


internalField   nonuniform List<scalar> 
19000
(
1.14751e-06
-1.10762e-06
1.17299e-06
6.62175e-07
1.16344e-06
-1.41705e-07
1.16294e-06
1.79515e-06
1.13926e-06
-3.80337e-07
1.15732e-06
-1.75177e-06
1.21264e-06
-9.26049e-07
1.19903e-06
-1.41848e-06
1.26475e-06
1.23963e-06
1.24266e-06
5.7609e-07
1.23356e-06
1.06605e-06
1.27206e-06
1.32964e-06
1.24149e-06
2.52633e-07
1.21918e-06
1.0811e-07
1.20296e-06
-2.76319e-07
1.16972e-06
-6.96999e-07
1.17245e-06
-2.59673e-07
1.10799e-06
-9.48523e-07
1.13114e-06
-2.1906e-07
-8.74684e-07
1.01705e-06
1.20678e-06
-1.09013e-06
1.23153e-06
6.37418e-07
1.22644e-06
-1.36611e-07
1.22306e-06
1.79853e-06
1.18603e-06
-3.433e-07
1.19615e-06
-1.7619e-06
1.25848e-06
-9.88376e-07
1.256e-06
-1.416e-06
1.31454e-06
1.1811e-06
1.30848e-06
5.82141e-07
1.28424e-06
1.0903e-06
1.33025e-06
1.28362e-06
1.30359e-06
2.7929e-07
1.28503e-06
1.26672e-07
1.25719e-06
-2.48481e-07
1.23836e-06
-6.78167e-07
1.22378e-06
-2.45088e-07
1.18762e-06
-9.12364e-07
1.18287e-06
-2.14311e-07
-8.09225e-07
1.11741e-06
1.26701e-06
-1.07435e-06
1.29671e-06
6.07716e-07
1.29572e-06
-1.3562e-07
1.28812e-06
1.80612e-06
1.2397e-06
-2.94879e-07
1.24041e-06
-1.76261e-06
1.30337e-06
-1.05134e-06
1.31253e-06
-1.42516e-06
1.36807e-06
1.12557e-06
1.37483e-06
5.75377e-07
1.34789e-06
1.11725e-06
1.37925e-06
1.25227e-06
1.36823e-06
2.90303e-07
1.34645e-06
1.48457e-07
1.32177e-06
-2.23799e-07
1.29677e-06
-6.53173e-07
1.28747e-06
-2.35784e-07
1.25673e-06
-8.81628e-07
1.25515e-06
-2.12726e-07
-7.60781e-07
1.2067e-06
1.3288e-06
-1.05905e-06
1.36397e-06
5.72548e-07
1.36812e-06
-1.39764e-07
1.35517e-06
1.81907e-06
1.29935e-06
-2.39059e-07
1.29004e-06
-1.7533e-06
1.34912e-06
-1.11042e-06
1.37153e-06
-1.44756e-06
1.42597e-06
1.07112e-06
1.4419e-06
5.59455e-07
1.42245e-06
1.13669e-06
1.44097e-06
1.23375e-06
1.43327e-06
2.98004e-07
1.41613e-06
1.65598e-07
1.38835e-06
-1.9602e-07
1.3621e-06
-6.26917e-07
1.35071e-06
-2.24393e-07
1.31854e-06
-8.49466e-07
1.31733e-06
-2.11514e-07
-7.09239e-07
1.26579e-06
1.393e-06
-1.0437e-06
1.43122e-06
5.34327e-07
1.43934e-06
-1.47887e-07
1.42342e-06
1.83499e-06
1.36587e-06
-1.81511e-07
1.34707e-06
-1.7345e-06
1.39847e-06
-1.16181e-06
1.43162e-06
-1.48071e-06
1.48843e-06
1.01431e-06
1.50993e-06
5.37953e-07
1.50165e-06
1.14497e-06
1.51337e-06
1.22202e-06
1.50271e-06
3.08669e-07
1.48595e-06
1.82352e-07
1.45757e-06
-1.67635e-07
1.42993e-06
-5.99283e-07
1.41905e-06
-2.13505e-07
1.38468e-06
-8.15095e-07
1.38528e-06
-2.12116e-07
-6.56438e-07
1.33248e-06
1.46044e-06
-1.02846e-06
1.49745e-06
4.97315e-07
1.5076e-06
-1.58035e-07
1.49398e-06
1.84861e-06
1.43909e-06
-1.26624e-07
1.41229e-06
-1.7077e-06
1.45381e-06
-1.20333e-06
1.49284e-06
-1.51975e-06
1.55395e-06
9.53199e-07
1.57952e-06
5.12385e-07
1.58181e-06
1.14268e-06
1.59037e-06
1.21346e-06
1.5749e-06
3.24144e-07
1.55692e-06
2.00327e-07
1.52838e-06
-1.39088e-07
1.50059e-06
-5.71497e-07
1.48988e-06
-2.02788e-07
1.45295e-06
-7.78168e-07
1.45466e-06
-2.13824e-07
-6.02613e-07
1.40083e-06
1.53138e-06
-1.01362e-06
1.56287e-06
4.65823e-07
1.57387e-06
-1.69028e-07
1.56866e-06
1.85382e-06
1.51873e-06
-7.67006e-08
1.48582e-06
-1.67478e-06
1.51606e-06
-1.23358e-06
1.5565e-06
-1.56019e-06
1.62249e-06
8.87214e-07
1.65143e-06
4.83448e-07
1.66289e-06
1.13122e-06
1.66942e-06
1.20693e-06
1.64893e-06
3.44628e-07
1.62984e-06
2.19419e-07
1.60145e-06
-1.10694e-07
1.57372e-06
-5.4377e-07
1.56427e-06
-1.93333e-07
1.52495e-06
-7.38856e-07
1.5274e-06
-2.16267e-07
-5.48645e-07
1.47343e-06
1.6057e-06
-9.99193e-07
1.62886e-06
4.42665e-07
1.64077e-06
-1.8094e-07
1.64859e-06
1.84599e-06
1.60423e-06
-3.234e-08
1.56715e-06
-1.6377e-06
1.58444e-06
-1.25087e-06
1.62382e-06
-1.59957e-06
1.69526e-06
8.15775e-07
1.72637e-06
4.52341e-07
1.74598e-06
1.11161e-06
1.75017e-06
1.20274e-06
1.72457e-06
3.7022e-07
1.70492e-06
2.3907e-07
1.67714e-06
-8.29132e-08
1.6491e-06
-5.15733e-07
1.64132e-06
-1.85547e-07
1.60037e-06
-6.97907e-07
1.6033e-06
-2.19197e-07
-4.95494e-07
1.55015e-06
1.68329e-06
-9.84914e-07
1.69754e-06
4.28424e-07
1.71101e-06
-1.94415e-07
1.73355e-06
1.82345e-06
1.69443e-06
6.78301e-09
1.65509e-06
-1.59836e-06
1.65761e-06
-1.25339e-06
1.69497e-06
-1.63693e-06
1.77247e-06
7.38278e-07
1.80385e-06
4.20957e-07
1.83088e-06
1.08458e-06
1.83222e-06
1.2014e-06
1.80173e-06
4.00716e-07
1.78216e-06
2.58641e-07
1.75555e-06
-5.63027e-08
1.72675e-06
-4.86936e-07
1.72061e-06
-1.79404e-07
1.679e-06
-6.56298e-07
1.68239e-06
-2.22587e-07
-4.44133e-07
1.63103e-06
1.76429e-06
-9.70477e-07
1.7711e-06
4.21613e-07
1.78634e-06
-2.09659e-07
1.82215e-06
1.78764e-06
1.78768e-06
4.12595e-08
1.74787e-06
-1.55855e-06
1.73518e-06
-1.2407e-06
1.7694e-06
-1.67116e-06
1.85199e-06
6.55696e-07
1.88163e-06
3.91315e-07
1.91545e-06
1.05076e-06
1.91442e-06
1.20242e-06
1.88019e-06
4.34944e-07
1.86149e-06
2.77341e-07
1.83658e-06
-3.13892e-08
1.80675e-06
-4.57106e-07
1.80191e-06
-1.74562e-07
1.76051e-06
-6.14897e-07
1.7644e-06
-2.26475e-07
-3.95467e-07
1.71573e-06
1.84897e-06
-9.55696e-07
1.85108e-06
4.195e-07
1.86736e-06
-2.25937e-07
1.91277e-06
1.74222e-06
1.88249e-06
7.15395e-08
1.84358e-06
-1.51964e-06
1.81798e-06
-1.2151e-06
1.84672e-06
-1.6999e-06
1.93071e-06
5.71711e-07
1.95712e-06
3.64906e-07
1.99687e-06
1.011e-06
1.99547e-06
1.20383e-06
1.95996e-06
4.70448e-07
1.94295e-06
2.94355e-07
1.92023e-06
-8.67232e-09
1.88942e-06
-4.2629e-07
1.88544e-06
-1.70582e-07
1.84489e-06
-5.74346e-07
1.84917e-06
-2.30757e-07
-3.50224e-07
1.80393e-06
1.9377e-06
-9.40557e-07
1.93799e-06
4.19209e-07
1.9538e-06
-2.41746e-07
2.00451e-06
1.69151e-06
1.97826e-06
9.77884e-08
1.94088e-06
-1.48226e-06
1.90714e-06
-1.18136e-06
1.92723e-06
-1.71999e-06
2.00722e-06
4.91727e-07
2.02976e-06
3.42364e-07
2.07388e-06
9.66885e-07
2.075e-06
1.20271e-06
2.04155e-06
5.03898e-07
2.02678e-06
3.09116e-07
2.00663e-06
1.14781e-08
1.97526e-06
-3.94916e-07
1.9717e-06
-1.67018e-07
1.93239e-06
-5.35037e-07
1.93671e-06
-2.35079e-07
-3.08947e-07
1.89543e-06
2.03084e-06
-9.25212e-07
2.03144e-06
4.18608e-07
2.04506e-06
-2.55364e-07
2.09753e-06
1.63905e-06
2.07539e-06
1.19927e-07
2.03951e-06
-1.44638e-06
2.0029e-06
-1.14475e-06
2.01175e-06
-1.72884e-06
2.08308e-06
4.20397e-07
2.1019e-06
3.23538e-07
2.14798e-06
9.20808e-07
2.15408e-06
1.19661e-06
2.12594e-06
5.32038e-07
2.11362e-06
3.21436e-07
2.09615e-06
2.89487e-08
2.06495e-06
-3.63711e-07
2.06141e-06
-1.63483e-07
2.02352e-06
-4.97148e-07
2.02733e-06
-2.38885e-07
-2.71969e-07
1.99035e-06
2.12866e-06
-9.09872e-07
2.1306e-06
4.16669e-07
2.14058e-06
-2.65347e-07
2.19275e-06
1.58688e-06
2.17491e-06
1.37763e-07
2.14019e-06
-1.41167e-06
2.10447e-06
-1.10902e-06
2.10109e-06
-1.72546e-06
2.16167e-06
3.59815e-07
2.17737e-06
3.07844e-07
2.22276e-06
8.75412e-07
2.23483e-06
1.18454e-06
2.21431e-06
5.52556e-07
2.20438e-06
3.3137e-07
2.18938e-06
4.39414e-08
2.15918e-06
-3.33507e-07
2.15535e-06
-1.59657e-07
2.1189e-06
-4.60691e-07
2.12159e-06
-2.41574e-07
-2.39401e-07
2.08902e-06
2.23129e-06
-8.94669e-07
2.2347e-06
4.13251e-07
2.24017e-06
-2.70813e-07
2.29134e-06
1.53571e-06
2.27793e-06
1.51179e-07
2.24411e-06
-1.37785e-06
2.21078e-06
-1.07569e-06
2.1958e-06
-1.71048e-06
2.2459e-06
3.09709e-07
2.25905e-06
2.94697e-07
2.30191e-06
8.32549e-07
2.31945e-06
1.16701e-06
2.30758e-06
5.64418e-07
2.30003e-06
3.38923e-07
2.28707e-06
5.6899e-08
2.25857e-06
-3.05003e-07
2.2542e-06
-1.55285e-07
2.21909e-06
-4.25582e-07
2.22017e-06
-2.42654e-07
-2.1115e-07
2.19192e-06
2.33875e-06
-8.79546e-07
2.34338e-06
4.08628e-07
2.34407e-06
-2.7151e-07
2.39442e-06
1.48537e-06
2.38528e-06
1.6032e-07
2.35226e-06
-1.34484e-06
2.32125e-06
-1.04467e-06
2.29612e-06
-1.68535e-06
2.33694e-06
2.68894e-07
2.34782e-06
2.8382e-07
2.38776e-06
7.9261e-07
2.40963e-06
1.14514e-06
2.40639e-06
5.67658e-07
2.40141e-06
3.43895e-07
2.38996e-06
6.8353e-08
2.36355e-06
-2.78597e-07
2.35842e-06
-1.50149e-07
2.32453e-06
-3.91698e-07
2.3237e-06
-2.41823e-07
-1.86968e-07
2.29952e-06
2.45112e-06
-8.64274e-07
2.45668e-06
4.03073e-07
2.45289e-06
-2.67725e-07
2.50291e-06
1.43535e-06
2.49753e-06
1.65706e-07
2.46525e-06
-1.31256e-06
2.43596e-06
-1.01538e-06
2.40233e-06
-1.65172e-06
2.43486e-06
2.36361e-07
2.44338e-06
2.75301e-07
2.48131e-06
7.54674e-07
2.50657e-06
1.11988e-06
2.5112e-06
5.63033e-07
2.50914e-06
3.45948e-07
2.49867e-06
7.8824e-08
2.47442e-06
-2.54346e-07
2.46831e-06
-1.4404e-07
2.43554e-06
-3.58922e-07
2.43272e-06
-2.39003e-07
-1.66483e-07
2.41223e-06
2.56859e-06
-8.48567e-07
2.57499e-06
3.96672e-07
2.56733e-06
-2.60068e-07
2.61755e-06
1.38513e-06
2.61509e-06
1.68162e-07
2.58337e-06
-1.28084e-06
2.55528e-06
-9.87289e-07
2.51478e-06
-1.61122e-06
2.53983e-06
2.11305e-07
2.54573e-06
2.69402e-07
2.58316e-06
7.17251e-07
2.61125e-06
1.09178e-06
2.62251e-06
5.51774e-07
2.62361e-06
3.44853e-07
2.61364e-06
8.87896e-08
2.59135e-06
-2.32057e-07
2.5841e-06
-1.36787e-07
2.55232e-06
-3.27138e-07
2.54762e-06
-2.34311e-07
-1.49223e-07
2.53036e-06
2.69145e-06
-8.32186e-07
2.69879e-06
3.89332e-07
2.68794e-06
-2.4922e-07
2.73877e-06
1.3343e-06
2.73832e-06
1.68609e-07
2.70688e-06
-1.2494e-06
2.67961e-06
-9.60017e-07
2.63389e-06
-1.5655e-06
2.65255e-06
1.92646e-07
2.65563e-06
2.66315e-07
2.69384e-06
6.79045e-07
2.72442e-06
1.0612e-06
2.74077e-06
5.35425e-07
2.74497e-06
3.40652e-07
2.7351e-06
9.86671e-08
2.71447e-06
-2.1143e-07
2.70601e-06
-1.28324e-07
2.67509e-06
-2.96218e-07
2.66876e-06
-2.27985e-07
-1.34699e-07
2.65424e-06
2.82007e-06
-8.14984e-07
2.82854e-06
3.80855e-07
2.81507e-06
-2.35746e-07
2.86674e-06
1.28263e-06
2.86751e-06
1.67845e-07
2.83606e-06
-1.21795e-06
2.80927e-06
-9.33224e-07
2.75993e-06
-1.51616e-06
2.77376e-06
1.78812e-07
2.77405e-06
2.66028e-07
2.81372e-06
6.39377e-07
2.8464e-06
1.02851e-06
2.86619e-06
5.15636e-07
2.87323e-06
3.33616e-07
2.86312e-06
1.08778e-07
2.84386e-06
-1.92168e-07
2.8343e-06
-1.18771e-07
2.80413e-06
-2.66046e-07
2.79639e-06
-2.20248e-07
-1.22519e-07
2.78421e-06
2.95479e-06
-7.9688e-07
2.96464e-06
3.71009e-07
2.94892e-06
-2.20025e-07
3.00148e-06
1.23006e-06
3.00289e-06
1.66441e-07
2.97126e-06
-1.18632e-06
2.94459e-06
-9.0656e-07
2.89298e-06
-1.46455e-06
2.90386e-06
1.6793e-07
2.90156e-06
2.68325e-07
2.94271e-06
5.98229e-07
2.97706e-06
9.94158e-07
2.99872e-06
4.93983e-07
3.00826e-06
3.24074e-07
2.99774e-06
1.19297e-07
2.97959e-06
-1.74018e-07
2.96929e-06
-1.08477e-07
2.93977e-06
-2.36525e-07
2.93079e-06
-2.11265e-07
-1.12441e-07
2.92071e-06
3.09596e-06
-7.77831e-07
3.10739e-06
3.59573e-07
3.08965e-06
-2.02277e-07
3.14299e-06
1.17672e-06
3.14467e-06
1.64757e-07
3.11281e-06
-1.15446e-06
3.08596e-06
-8.79711e-07
3.033e-06
-1.41159e-06
3.04278e-06
1.58151e-07
3.03826e-06
2.72844e-07
3.08039e-06
5.56102e-07
3.116e-06
9.58545e-07
3.13817e-06
4.71816e-07
3.14993e-06
3.12313e-07
3.13904e-06
1.30184e-07
3.12176e-06
-1.56736e-07
3.11126e-06
-9.79736e-08
3.0824e-06
-2.07665e-07
3.07222e-06
-2.0109e-07
-1.04367e-07
3.06415e-06
3.24387e-06
-7.57796e-07
3.25709e-06
3.46354e-07
3.23746e-06
-1.82647e-07
3.29137e-06
1.12281e-06
3.2931e-06
1.63029e-07
3.26106e-06
-1.12242e-06
3.23381e-06
-8.52468e-07
3.18e-06
-1.35777e-06
3.19027e-06
1.4788e-07
3.18401e-06
2.79102e-07
3.22629e-06
5.1382e-07
3.26289e-06
9.21951e-07
3.28446e-06
4.50242e-07
3.2982e-06
2.98578e-07
3.28721e-06
1.41172e-07
3.27053e-06
-1.40052e-07
3.26044e-06
-8.78877e-08
3.2324e-06
-1.7963e-07
3.22096e-06
-1.8965e-07
-9.82988e-08
3.2149e-06
3.39887e-06
-7.36732e-07
3.41402e-06
3.31207e-07
3.39264e-06
-1.61273e-07
3.44685e-06
1.06861e-06
3.44843e-06
1.61444e-07
3.41629e-06
-1.09028e-06
3.38858e-06
-8.2476e-07
3.33408e-06
-1.30326e-06
3.34608e-06
1.3588e-07
3.33866e-06
2.86513e-07
3.38014e-06
4.72347e-07
3.41758e-06
8.84507e-07
3.43766e-06
4.30165e-07
3.45313e-06
2.83113e-07
3.4425e-06
1.51797e-07
3.42611e-06
-1.2366e-07
3.41702e-06
-7.8803e-08
3.39017e-06
-1.52772e-07
3.3773e-06
-1.7679e-07
-9.4213e-08
3.37322e-06
3.56127e-06
-7.14592e-07
3.57842e-06
3.14056e-07
3.5555e-06
-1.38347e-07
3.60976e-06
1.01434e-06
3.61102e-06
1.6018e-07
3.57884e-06
-1.05809e-06
3.55073e-06
-7.96648e-07
3.49548e-06
-1.24802e-06
3.51006e-06
1.21304e-07
3.50216e-06
2.94411e-07
3.54188e-06
4.32623e-07
3.58018e-06
8.46215e-07
3.59806e-06
4.12283e-07
3.61492e-06
2.66251e-07
3.60522e-06
1.61495e-07
3.5888e-06
-1.07234e-07
3.58117e-06
-7.11805e-08
3.55597e-06
-1.27565e-07
3.54159e-06
-1.6241e-07
-9.18907e-08
3.53926e-06
3.73144e-06
-6.91327e-07
3.75058e-06
2.94916e-07
3.72637e-06
-1.14141e-07
3.78054e-06
9.60177e-07
3.78132e-06
1.59402e-07
3.74906e-06
-1.02583e-06
3.7207e-06
-7.68295e-07
3.66459e-06
-1.1919e-06
3.68218e-06
1.03712e-07
3.67451e-06
3.02079e-07
3.71167e-06
3.95462e-07
3.75091e-06
8.06974e-07
3.76609e-06
3.97104e-07
3.78391e-06
2.48432e-07
3.77572e-06
1.69681e-07
3.75898e-06
-9.04864e-08
3.75303e-06
-6.52296e-08
3.73002e-06
-1.04564e-07
3.71417e-06
-1.46553e-07
-9.0874e-08
3.71315e-06
3.90975e-06
-6.66894e-07
3.93076e-06
2.73916e-07
3.90563e-06
-8.9011e-08
3.95966e-06
9.06142e-07
3.95984e-06
1.5922e-07
3.92737e-06
-9.93361e-07
3.899e-06
-7.39921e-07
3.84183e-06
-1.13473e-06
3.86245e-06
8.30911e-08
3.85574e-06
3.08786e-07
3.88973e-06
3.61476e-07
3.93004e-06
7.66657e-07
3.9423e-06
3.84847e-07
3.96048e-06
2.30255e-07
3.95436e-06
1.75796e-07
3.9371e-06
-7.32241e-08
3.93272e-06
-6.08509e-08
3.91248e-06
-8.43254e-08
3.89541e-06
-1.2948e-07
-9.04786e-08
3.89501e-06
4.09662e-06
-6.41267e-07
4.11924e-06
2.51303e-07
4.09359e-06
-6.33667e-08
4.14758e-06
8.52155e-07
4.14716e-06
1.59643e-07
4.11425e-06
-9.60456e-07
4.08609e-06
-7.11763e-07
4.02769e-06
-1.07633e-06
4.05094e-06
5.98411e-08
4.04589e-06
3.13833e-07
4.0763e-06
3.31066e-07
4.11782e-06
7.25138e-07
4.12724e-06
3.75424e-07
4.14509e-06
2.12401e-07
4.14147e-06
1.79418e-07
4.12369e-06
-5.54396e-08
4.12046e-06
-5.76268e-08
4.10347e-06
-6.73294e-08
4.08563e-06
-1.11643e-07
-8.99018e-08
4.08505e-06
4.29248e-06
-6.14449e-07
4.31636e-06
2.27424e-07
4.29062e-06
-3.76249e-08
4.34473e-06
7.9805e-07
4.34383e-06
1.60539e-07
4.31016e-06
-9.26786e-07
4.28247e-06
-6.84072e-07
4.22267e-06
-1.01653e-06
4.24778e-06
3.4735e-08
4.245e-06
3.16614e-07
4.27162e-06
3.04445e-07
4.31442e-06
6.8234e-07
4.32145e-06
3.68396e-07
4.33823e-06
1.95614e-07
4.33741e-06
1.80244e-07
4.31928e-06
-3.73124e-08
4.31654e-06
-5.48858e-08
4.3031e-06
-5.3889e-08
4.28513e-06
-9.36713e-08
-8.83406e-08
4.28357e-06
4.4978e-06
-5.86475e-07
4.52254e-06
2.02681e-07
4.49708e-06
-1.21592e-08
4.55146e-06
7.4367e-07
4.55038e-06
1.6162e-07
4.51553e-06
-8.91941e-07
4.48856e-06
-6.57106e-07
4.42734e-06
-9.55305e-07
4.45326e-06
8.81712e-09
4.45321e-06
3.16663e-07
4.47599e-06
2.81666e-07
4.52001e-06
6.38312e-07
4.52539e-06
3.63016e-07
4.54042e-06
1.80593e-07
4.54253e-06
1.78132e-07
4.52442e-06
-1.92051e-08
4.52138e-06
-5.18499e-08
4.51154e-06
-4.40484e-08
4.49416e-06
-7.62882e-08
-8.51951e-08
4.49101e-06
4.71306e-06
-5.57423e-07
4.73827e-06
1.77471e-07
4.71338e-06
1.27364e-08
4.76808e-06
6.88972e-07
4.76722e-06
1.6247e-07
4.73075e-06
-8.55468e-07
4.70477e-06
-6.31122e-07
4.64227e-06
-8.92803e-07
4.66782e-06
-1.67358e-08
4.6708e-06
3.13684e-07
4.68982e-06
2.62647e-07
4.73484e-06
5.93288e-07
4.73955e-06
3.58311e-07
4.7522e-06
1.67938e-07
4.75713e-06
1.73203e-07
4.73963e-06
-1.70151e-09
4.73557e-06
-4.77929e-08
4.72903e-06
-3.75104e-08
4.71304e-06
-6.02938e-08
-8.00832e-08
4.70792e-06
4.93878e-06
-5.27407e-07
4.96413e-06
1.5212e-07
4.94001e-06
3.68551e-08
4.99487e-06
6.3412e-07
4.99474e-06
1.62592e-07
4.95619e-06
-8.1691e-07
4.93143e-06
-6.06362e-07
4.86808e-06
-8.29458e-07
4.89212e-06
-4.07765e-08
4.89825e-06
3.07559e-07
4.91372e-06
2.47174e-07
4.95929e-06
5.47717e-07
4.96431e-06
3.53296e-07
4.97422e-06
1.58029e-07
4.98161e-06
1.65808e-07
4.9654e-06
1.45131e-08
4.95981e-06
-4.22059e-08
4.95591e-06
-3.3609e-08
4.94203e-06
-4.64124e-08
-7.301e-08
4.93495e-06
5.17549e-06
-4.96579e-07
5.20075e-06
1.26855e-07
5.17756e-06
6.00515e-08
5.23215e-06
5.79527e-07
5.23326e-06
1.61479e-07
5.19223e-06
-7.7588e-07
5.16889e-06
-5.83021e-07
5.1054e-06
-7.65968e-07
5.12697e-06
-6.23421e-08
5.1362e-06
2.98324e-07
5.14846e-06
2.34917e-07
5.19391e-06
5.02265e-07
5.20018e-06
3.47031e-07
5.20713e-06
1.51072e-07
5.21645e-06
1.56489e-07
5.20218e-06
2.87848e-08
5.19489e-06
-3.49183e-08
5.19268e-06
-3.13975e-08
5.18142e-06
-3.51553e-08
-6.43964e-08
5.17281e-06
5.42372e-06
-4.65113e-07
5.44877e-06
1.01805e-07
5.42664e-06
8.21808e-08
5.48033e-06
5.25846e-07
5.48313e-06
1.58676e-07
5.43957e-06
-7.32324e-07
5.41753e-06
-5.60978e-07
5.3548e-06
-7.03235e-07
5.37319e-06
-8.07346e-08
5.38537e-06
2.8614e-07
5.39486e-06
2.25427e-07
5.43938e-06
4.57744e-07
5.44758e-06
3.38837e-07
5.45174e-06
1.46914e-07
5.4622e-06
1.46025e-07
5.45041e-06
4.05796e-08
5.44162e-06
-2.61367e-08
5.44002e-06
-2.97938e-08
5.43158e-06
-2.67116e-08
-5.49397e-08
5.42212e-06
5.68405e-06
-4.332e-07
5.70882e-06
7.70287e-08
5.68797e-06
1.03036e-07
5.73989e-06
4.73922e-07
5.74474e-06
1.53823e-07
5.69915e-06
-6.86733e-07
5.67781e-06
-5.39634e-07
5.6168e-06
-6.42228e-07
5.63161e-06
-9.55434e-08
5.64645e-06
2.71293e-07
5.65374e-06
2.18145e-07
5.69649e-06
4.14995e-07
5.707e-06
3.28323e-07
5.70886e-06
1.45058e-07
5.71954e-06
1.35342e-07
5.71047e-06
4.96465e-08
5.7007e-06
-1.63679e-08
5.69876e-06
-2.78491e-08
5.69292e-06
-2.08751e-08
-4.54762e-08
5.68346e-06
5.95704e-06
-4.01043e-07
5.98148e-06
5.25823e-08
5.96226e-06
1.22253e-07
6.01145e-06
4.24741e-07
6.01855e-06
1.4672e-07
5.97148e-06
-6.39661e-07
5.95025e-06
-5.18405e-07
5.89189e-06
-5.83873e-07
5.90296e-06
-1.06615e-07
5.92005e-06
2.5421e-07
5.92582e-06
2.12377e-07
5.96602e-06
3.74786e-07
5.97894e-06
3.15406e-07
5.97918e-06
1.44816e-07
5.98923e-06
1.25296e-07
5.98285e-06
5.60308e-08
5.97268e-06
-6.2046e-09
5.9698e-06
-2.49697e-08
5.96603e-06
-1.71008e-08
-3.67539e-08
5.95731e-06
6.2433e-06
-3.68854e-07
6.26732e-06
2.85638e-08
6.25031e-06
1.39259e-07
6.29569e-06
3.79363e-07
6.30505e-06
1.37354e-07
6.25708e-06
-5.9169e-07
6.23547e-06
-4.96793e-07
6.18054e-06
-5.2894e-07
6.18795e-06
-1.14027e-07
6.20674e-06
2.35419e-07
6.21172e-06
2.07405e-07
6.24881e-06
3.37691e-07
6.26395e-06
3.00271e-07
6.26325e-06
1.45511e-07
6.27205e-06
1.16495e-07
6.26806e-06
6.00227e-08
6.2581e-06
3.75056e-09
6.25407e-06
-2.09343e-08
6.25154e-06
-1.45761e-08
-2.93459e-08
6.24414e-06
6.54346e-06
-3.36848e-07
6.56689e-06
5.13811e-09
6.5529e-06
1.53248e-07
6.59338e-06
3.38883e-07
6.6048e-06
1.25934e-07
6.5566e-06
-5.43486e-07
6.53417e-06
-4.74363e-07
6.48321e-06
-4.77983e-07
6.48721e-06
-1.1803e-07
6.50712e-06
2.1551e-07
6.51194e-06
2.02585e-07
6.5456e-06
3.04032e-07
6.56263e-06
2.83241e-07
6.56158e-06
1.46562e-07
6.56882e-06
1.0925e-07
6.56673e-06
6.21222e-08
6.55747e-06
1.30013e-08
6.55234e-06
-1.57988e-08
6.55037e-06
-1.26037e-08
-2.34152e-08
6.54444e-06
6.85819e-06
-3.05247e-07
6.88077e-06
-1.74413e-08
6.87058e-06
1.63434e-07
6.90537e-06
3.04096e-07
6.91839e-06
1.12915e-07
6.87066e-06
-4.95755e-07
6.84709e-06
-4.50797e-07
6.80041e-06
-4.313e-07
6.80139e-06
-1.19011e-07
6.82187e-06
1.95033e-07
6.82698e-06
1.97468e-07
6.85714e-06
2.7388e-07
6.87566e-06
2.64722e-07
6.87476e-06
1.47455e-07
6.88028e-06
1.03735e-07
6.87952e-06
6.2877e-08
6.87134e-06
2.11812e-08
6.86533e-06
-9.78653e-09
6.86328e-06
-1.05525e-08
-1.89298e-08
6.8588e-06
7.18817e-06
-2.74283e-07
7.20957e-06
-3.88373e-08
7.20347e-06
1.69536e-07
7.23254e-06
2.75023e-07
7.24641e-06
9.90395e-08
7.19998e-06
-4.49321e-07
7.17506e-06
-4.25873e-07
7.13269e-06
-3.88938e-07
7.13111e-06
-1.17424e-07
7.15162e-06
1.74519e-07
7.15739e-06
1.91693e-07
7.1841e-06
2.47173e-07
7.20367e-06
2.45154e-07
7.20353e-06
1.47593e-07
7.20722e-06
1.00051e-07
7.20715e-06
6.29409e-08
7.20021e-06
2.81227e-08
7.19363e-06
-3.20718e-09
7.19113e-06
-8.05472e-09
-1.56216e-08
7.18783e-06
7.53412e-06
-2.44176e-07
7.55394e-06
-5.86637e-08
7.55154e-06
1.71943e-07
7.5758e-06
2.5076e-07
7.58974e-06
8.51044e-08
7.54525e-06
-4.04838e-07
7.51891e-06
-3.99531e-07
7.48069e-06
-3.50717e-07
7.47707e-06
-1.13809e-07
7.49708e-06
1.5451e-07
7.50377e-06
1.85006e-07
7.52722e-06
2.2372e-07
7.54733e-06
2.25046e-07
7.5486e-06
1.46325e-07
7.55081e-06
9.78366e-08
7.55068e-06
6.30702e-08
7.54456e-06
3.42458e-08
7.53731e-06
4.04192e-09
7.5344e-06
-5.14364e-09
-1.33854e-08
7.53216e-06
7.8968e-06
-2.15165e-07
7.91461e-06
-7.64729e-08
7.91548e-06
1.71069e-07
7.93583e-06
2.30412e-07
7.94928e-06
7.16576e-08
7.90723e-06
-3.62785e-07
7.87957e-06
-3.71875e-07
7.84502e-06
-3.16163e-07
7.84002e-06
-1.08814e-07
7.85905e-06
1.35481e-07
7.86673e-06
1.77326e-07
7.88723e-06
2.03219e-07
7.90732e-06
2.04965e-07
7.91068e-06
1.42964e-07
7.91225e-06
9.62642e-08
7.91173e-06
6.35876e-08
7.90531e-06
4.06635e-08
7.8971e-06
1.22591e-08
7.89257e-06
-6.19418e-10
-1.31651e-08
7.89235e-06
8.277e-06
-1.87483e-07
8.29228e-06
-9.17535e-08
8.29621e-06
1.67137e-07
8.3135e-06
2.13128e-07
8.32588e-06
5.92728e-08
8.28663e-06
-3.23534e-07
8.25794e-06
-3.43191e-07
8.22653e-06
-2.84744e-07
8.22058e-06
-1.02866e-07
8.23841e-06
1.17645e-07
8.24704e-06
1.68703e-07
8.26488e-06
1.85378e-07
8.28437e-06
1.85477e-07
8.28972e-06
1.37609e-07
8.29331e-06
9.26748e-08
8.29907e-06
5.7828e-08
8.30334e-06
3.6398e-08
8.30304e-06
1.25509e-08
8.30011e-06
2.31765e-09
-7.29926e-09
8.29424e-06
8.67555e-06
-1.61366e-07
8.68773e-06
-1.03936e-07
8.69451e-06
1.60354e-07
8.70965e-06
1.97988e-07
8.72053e-06
4.83917e-08
8.68427e-06
-2.87276e-07
8.65484e-06
-3.13758e-07
8.626e-06
-2.55906e-07
8.61961e-06
-9.64698e-08
8.63601e-06
1.01244e-07
8.64536e-06
1.59352e-07
8.6611e-06
1.69638e-07
8.67985e-06
1.66727e-07
8.68733e-06
1.30128e-07
8.69167e-06
8.83335e-08
8.69611e-06
5.33905e-08
8.69956e-06
3.29446e-08
8.69878e-06
1.33339e-08
8.69506e-06
6.03572e-09
-2.77303e-09
8.69053e-06
9.09326e-06
-1.37011e-07
9.10166e-06
-1.12336e-07
9.11136e-06
1.50653e-07
9.12514e-06
1.84209e-07
9.13408e-06
3.94569e-08
9.10094e-06
-2.54133e-07
9.07117e-06
-2.83989e-07
9.04439e-06
-2.29129e-07
9.0377e-06
-8.97831e-08
9.05275e-06
8.61997e-08
9.06285e-06
1.49255e-07
9.07679e-06
1.5569e-07
9.09428e-06
1.49244e-07
9.10315e-06
1.21255e-07
9.10684e-06
8.46438e-08
9.11116e-06
4.90694e-08
9.11565e-06
2.84583e-08
9.11685e-06
1.21324e-08
9.11399e-06
8.8923e-09
3.66011e-09
9.10756e-06
9.53105e-06
-1.14601e-07
9.5349e-06
-1.16189e-07
9.54757e-06
1.37985e-07
9.56078e-06
1.70999e-07
9.56759e-06
3.26511e-08
9.53747e-06
-2.2402e-07
9.5077e-06
-2.5422e-07
9.4827e-06
-2.0413e-07
9.47591e-06
-8.29929e-08
9.48938e-06
7.27377e-08
9.50018e-06
1.38451e-07
9.51306e-06
1.4281e-07
9.52909e-06
1.33214e-07
9.53749e-06
1.12852e-07
9.53714e-06
8.49999e-08
9.53321e-06
5.29958e-08
9.52875e-06
3.29173e-08
9.52326e-06
1.76278e-08
9.52024e-06
1.19102e-08
4.24297e-09
9.51966e-06
9.98976e-06
-9.4227e-08
9.98912e-06
-1.15548e-07
1.00041e-05
1.22964e-07
1.00174e-05
1.57748e-07
1.0022e-05
2.80364e-08
9.99465e-06
-1.9666e-07
9.96553e-06
-2.25099e-07
9.94185e-06
-1.80459e-07
9.93487e-06
-7.6013e-08
9.9471e-06
6.0509e-08
9.95804e-06
1.27516e-07
9.96899e-06
1.31856e-07
9.98344e-06
1.18764e-07
9.99407e-06
1.02222e-07
1.00001e-05
7.8986e-08
1.00054e-05
4.77311e-08
1.00111e-05
2.71447e-08
1.00143e-05
1.44912e-08
1.00116e-05
1.45239e-08
1.28505e-08
1.0003e-05
1.04703e-05
-7.59298e-08
1.04662e-05
-1.11386e-07
1.04821e-05
1.07071e-07
1.04958e-05
1.44039e-07
1.04984e-05
2.54162e-08
1.04735e-05
-1.71806e-07
1.04453e-05
-1.96806e-07
1.04231e-05
-1.58272e-07
1.04157e-05
-6.86513e-08
1.04266e-05
4.95718e-08
1.04374e-05
1.16716e-07
1.04476e-05
1.21716e-07
1.04593e-05
1.07024e-07
1.04671e-05
9.44958e-08
1.04688e-05
7.72485e-08
1.04661e-05
5.04651e-08
1.04633e-05
2.99139e-08
1.04605e-05
1.7304e-08
1.04588e-05
1.61858e-08
1.3125e-08
1.04585e-05
1.09737e-05
-5.96614e-08
1.09673e-05
-1.04943e-07
1.09825e-05
9.18747e-08
1.09968e-05
1.29757e-07
1.0998e-05
2.42253e-08
1.09751e-05
-1.48952e-07
1.09481e-05
-1.69807e-07
1.09271e-05
-1.37216e-07
1.09193e-05
-6.09057e-08
1.09288e-05
4.00465e-08
1.09394e-05
1.06171e-07
1.0948e-05
1.13098e-07
1.09576e-05
9.74018e-08
1.09651e-05
8.69956e-08
1.09676e-05
7.47976e-08
1.09666e-05
5.14394e-08
1.09648e-05
3.17321e-08
1.09636e-05
1.84665e-08
1.09635e-05
1.62929e-08
1.48386e-08
1.09618e-05
1.1501e-05
-4.53239e-08
1.14932e-05
-9.71214e-08
1.15066e-05
7.84859e-08
1.15214e-05
1.14924e-07
1.15218e-05
2.38477e-08
1.15006e-05
-1.27732e-07
1.1475e-05
-1.44266e-07
1.1455e-05
-1.17185e-07
1.14471e-05
-5.29894e-08
1.14547e-05
3.24508e-08
1.14648e-05
9.60643e-08
1.14725e-05
1.05402e-07
1.14805e-05
8.94094e-08
1.14875e-05
7.99903e-08
1.1491e-05
7.1303e-08
1.14911e-05
5.12746e-08
1.149e-05
3.28344e-08
1.14891e-05
1.94451e-08
1.14888e-05
1.65858e-08
1.54422e-08
1.14882e-05
1.20533e-05
-3.27682e-08
1.20448e-05
-8.86229e-08
1.20559e-05
6.74007e-08
1.20708e-05
9.99995e-08
1.20708e-05
2.37932e-08
1.20513e-05
-1.08233e-07
1.20271e-05
-1.20067e-07
1.20081e-05
-9.81559e-08
1.19998e-05
-4.46847e-08
1.20057e-05
2.6546e-08
1.20153e-05
8.64923e-08
1.20223e-05
9.83366e-08
1.20289e-05
8.28483e-08
1.20356e-05
7.32808e-08
1.204e-05
6.69053e-08
1.20408e-05
5.05172e-08
1.20398e-05
3.37665e-08
1.20388e-05
2.04408e-08
1.20385e-05
1.69123e-08
1.51617e-08
1.20388e-05
1.26317e-05
-2.18314e-08
1.2623e-05
-7.99855e-08
1.26317e-05
5.87089e-08
1.2646e-05
8.56917e-08
1.26463e-05
2.35599e-08
1.26284e-05
-9.03762e-08
1.26056e-05
-9.73142e-08
1.25875e-05
-8.00052e-08
1.2579e-05
-3.62401e-08
1.25833e-05
2.22533e-08
1.25921e-05
7.76894e-08
1.25989e-05
9.16282e-08
1.26042e-05
7.74526e-08
1.26105e-05
6.70533e-08
1.26154e-05
6.20158e-08
1.26168e-05
4.90619e-08
1.26163e-05
3.43183e-08
1.26154e-05
2.13119e-08
1.26152e-05
1.7068e-08
1.522e-08
1.26152e-05
1.32374e-05
-1.23283e-08
1.3229e-05
-7.15924e-08
1.32356e-05
5.21023e-08
1.32486e-05
7.27806e-08
1.3249e-05
2.30866e-08
1.32331e-05
-7.44315e-08
1.32119e-05
-7.61632e-08
1.31947e-05
-6.27269e-08
1.3186e-05
-2.75892e-08
1.31888e-05
1.94112e-08
1.3197e-05
6.95266e-08
1.32035e-05
8.51578e-08
1.3208e-05
7.2953e-08
1.32135e-05
6.15658e-08
1.32185e-05
5.69453e-08
1.32206e-05
4.69966e-08
1.32204e-05
3.45113e-08
1.32195e-05
2.21891e-08
1.32197e-05
1.68683e-08
1.53264e-08
1.32196e-05
1.38719e-05
-4.10992e-09
1.3864e-05
-6.36324e-08
1.38689e-05
4.71554e-08
1.38799e-05
6.18361e-08
1.38805e-05
2.25106e-08
1.38667e-05
-6.06699e-08
1.38473e-05
-5.67427e-08
1.38308e-05
-4.62496e-08
1.38221e-05
-1.89428e-08
1.3824e-05
1.75775e-08
1.38314e-05
6.21345e-08
1.38376e-05
7.89596e-08
1.38414e-05
6.90862e-08
1.38459e-05
5.71421e-08
1.38507e-05
5.21152e-08
1.38534e-05
4.42733e-08
1.38541e-05
3.38727e-08
1.38533e-05
2.29516e-08
1.38537e-05
1.64826e-08
1.52681e-08
1.38537e-05
1.45366e-05
2.96673e-09
1.45291e-05
-5.61367e-08
1.45329e-05
4.33825e-08
1.45416e-05
5.30695e-08
1.45419e-05
2.22643e-08
1.45302e-05
-4.90396e-08
1.45128e-05
-3.93394e-08
1.44973e-05
-3.07266e-08
1.44887e-05
-1.03005e-08
1.44897e-05
1.65126e-08
1.44964e-05
5.54604e-08
1.45025e-05
7.2921e-08
1.45059e-05
6.56784e-08
1.45093e-05
5.37071e-08
1.45137e-05
4.76873e-08
1.45168e-05
4.12107e-08
1.45182e-05
3.24561e-08
1.45176e-05
2.35637e-08
1.45176e-05
1.6457e-08
1.47576e-08
1.45181e-05
1.52328e-05
9.03695e-09
1.52258e-05
-4.9127e-08
1.52286e-05
4.05352e-08
1.52353e-05
4.63908e-08
1.52346e-05
2.29544e-08
1.5225e-05
-3.93929e-08
1.52099e-05
-2.42497e-08
1.51955e-05
-1.63237e-08
1.51869e-05
-1.68087e-09
1.51873e-05
1.61208e-08
1.51935e-05
4.92269e-08
1.51995e-05
6.69671e-08
1.52025e-05
6.25981e-08
1.52051e-05
5.11147e-08
1.52089e-05
4.38955e-08
1.5212e-05
3.81282e-08
1.5214e-05
3.04588e-08
1.52141e-05
2.34781e-08
1.52138e-05
1.6766e-08
1.37328e-08
1.52148e-05
1.59622e-05
1.42127e-08
1.59556e-05
-4.25839e-08
1.59576e-05
3.85172e-08
1.59625e-05
4.1518e-08
1.59604e-05
2.50763e-08
1.59523e-05
-3.13257e-08
1.59397e-05
-1.16037e-08
1.59267e-05
-3.36473e-09
1.59183e-05
6.68003e-09
1.59179e-05
1.6568e-08
1.59237e-05
4.34201e-08
1.59298e-05
6.08711e-08
1.59329e-05
5.94963e-08
1.59349e-05
4.91206e-08
1.5938e-05
4.0832e-08
1.59409e-05
3.51787e-08
1.59431e-05
2.83213e-08
1.5944e-05
2.25397e-08
1.59437e-05
1.7021e-08
1.29748e-08
1.59445e-05
1.67262e-05
1.85678e-08
1.67201e-05
-3.64144e-08
1.67214e-05
3.72287e-08
1.67247e-05
3.81431e-08
1.67211e-05
2.86963e-08
1.67139e-05
-2.40995e-08
1.67039e-05
-1.63298e-09
1.66926e-05
7.91423e-09
1.66846e-05
1.47315e-08
1.66834e-05
1.7784e-08
1.66885e-05
3.83148e-08
1.66949e-05
5.44597e-08
1.66984e-05
5.59416e-08
1.67e-05
4.75422e-08
1.67024e-05
3.84958e-08
1.67049e-05
3.26161e-08
1.67071e-05
2.61372e-08
1.67086e-05
2.10088e-08
1.67088e-05
1.68161e-08
1.25484e-08
1.67093e-05
1.75268e-05
2.21608e-08
1.75208e-05
-3.04189e-08
1.75214e-05
3.65904e-08
1.75237e-05
3.58211e-08
1.75189e-05
3.35436e-08
1.75118e-05
-1.70407e-08
1.75044e-05
5.74395e-09
1.74952e-05
1.71386e-08
1.74875e-05
2.24889e-08
1.74856e-05
1.96314e-08
1.74896e-05
3.43231e-08
1.74961e-05
4.80149e-08
1.75004e-05
5.15491e-08
1.75022e-05
4.58204e-08
1.75039e-05
3.68141e-08
1.7506e-05
3.04444e-08
1.7508e-05
2.413e-08
1.75098e-05
1.92673e-08
1.75108e-05
1.58079e-08
1.24293e-08
1.75109e-05
1.83654e-05
2.50643e-08
1.83595e-05
-2.4493e-08
1.83595e-05
3.6637e-08
1.83612e-05
3.40736e-08
1.83556e-05
3.92066e-08
1.83482e-05
-9.66498e-09
1.8343e-05
1.09389e-08
1.83362e-05
2.39125e-08
1.8329e-05
2.97195e-08
1.83264e-05
2.2176e-08
1.83294e-05
3.13709e-08
1.83352e-05
4.21867e-08
1.83403e-05
4.64901e-08
1.83427e-05
4.33495e-08
1.83441e-05
3.54355e-08
1.83458e-05
2.87208e-08
1.83476e-05
2.23629e-08
1.83492e-05
1.76634e-08
1.83508e-05
1.42691e-08
1.1981e-08
1.83512e-05
1.92441e-05
2.73584e-08
1.92383e-05
-1.87386e-08
1.92375e-05