/*--------------------------------*- C++ -*----------------------------------*\
| =========                 |                                                 |
| \\      /  F ield         | OpenFOAM: The Open Source CFD Toolbox           |
|  \\    /   O peration     | Version:  v1912                                 |
|   \\  /    A nd           | Website:  www.openfoam.com                      |
|    \\/     M anipulation  |                                                 |
\*---------------------------------------------------------------------------*/
FoamFile
{
    version     2.0;
    format      ascii;
    class       volVectorField;
    location    "10";
    object      U;
}
// * * * * * * * * * * * * * * * * * * * * * * * * * * * * * * * * * * * * * //

dimensions      [0 1 -1 0 0 0 0];


internalField   nonuniform List<vector> 
9600
(
(0.929651 -0.0112684 0)
(1.03504 0.00740091 0)
(0.969943 -0.00176715 0)
(1.02252 0.0232862 0)
(0.969063 -0.00560518 0)
(0.979617 -0.0266664 0)
(1.00247 -0.0147421 0)
(1.06716 -0.0259083 0)
(0.997312 0.0252286 0)
(1.15428 0.0121596 0)
(0.984281 0.0249316 0)
(1.1183 0.0345304 0)
(1.06207 0.00631625 0)
(1.0658 0.00268368 0)
(1.01898 -0.00952272 0)
(1.03858 -0.0257867 0)
(0.969837 -0.00999457 0)
(1.02807 -0.0420772 0)
(0.879875 -0.0096432 0)
(1.03751 -0.0463439 0)
(0.937799 -0.0110524 0)
(1.03285 0.00716357 0)
(0.978542 -0.00163335 0)
(1.02431 0.0233001 0)
(0.974991 -0.00514409 0)
(0.962018 -0.0270358 0)
(0.993373 -0.0160129 0)
(1.05599 -0.0257557 0)
(1.0011 0.0241777 0)
(1.13995 0.0124935 0)
(1.00374 0.0252552 0)
(1.08966 0.0333988 0)
(1.08428 0.00751358 0)
(1.04926 0.00366586 0)
(1.04561 -0.00863814 0)
(1.01004 -0.0245398 0)
(1.01535 -0.009858 0)
(0.978045 -0.0395457 0)
(0.969431 -0.00914325 0)
(0.949665 -0.0455897 0)
(0.948658 -0.0108752 0)
(1.02691 0.00684042 0)
(0.993189 -0.00160111 0)
(1.02694 0.0233315 0)
(0.982239 -0.0045354 0)
(0.950917 -0.0270855 0)
(0.984331 -0.0170582 0)
(1.04125 -0.0257566 0)
(1.00973 0.0227981 0)
(1.11786 0.0125156 0)
(1.02993 0.0258178 0)
(1.06887 0.0322555 0)
(1.08156 0.00791371 0)
(1.05537 0.00414845 0)
(1.03964 -0.00779357 0)
(1.02246 -0.0238545 0)
(1.0027 -0.00963063 0)
(0.997094 -0.0375818 0)
(0.971785 -0.011121 0)
(0.969905 -0.0380419 0)
(0.960019 -0.0107187 0)
(1.01847 0.00646641 0)
(1.00823 -0.00162954 0)
(1.02823 0.023441 0)
(0.988653 -0.00379206 0)
(0.945672 -0.0270252 0)
(0.975419 -0.0180787 0)
(1.0256 -0.0260862 0)
(1.01908 0.0216552 0)
(1.0983 0.0122257 0)
(1.05004 0.0264506 0)
(1.06475 0.0316361 0)
(1.07936 0.00812873 0)
(1.05697 0.00477025 0)
(1.04548 -0.00686056 0)
(1.02212 -0.0230306 0)
(1.00779 -0.00869528 0)
(0.994506 -0.0371428 0)
(0.977703 -0.00940205 0)
(0.967221 -0.0371051 0)
(0.970231 -0.0105632 0)
(1.01024 0.00604375 0)
(1.0183 -0.00171042 0)
(1.02708 0.0236318 0)
(0.994213 -0.00298073 0)
(0.946711 -0.0267838 0)
(0.9682 -0.0190054 0)
(1.0114 -0.0266125 0)
(1.02501 0.0206297 0)
(1.08478 0.0118229 0)
(1.06148 0.0268323 0)
(1.06937 0.0313273 0)
(1.07993 0.00839746 0)
(1.05776 0.00525556 0)
(1.04743 -0.00597201 0)
(1.02429 -0.0219218 0)
(1.00964 -0.0085873 0)
(0.997521 -0.0352512 0)
(0.980275 -0.00978005 0)
(0.97141 -0.0342147 0)
(0.978348 -0.0104081 0)
(1.00413 0.00561395 0)
(1.0208 -0.00182283 0)
(1.02425 0.0238466 0)
(0.999842 -0.00217953 0)
(0.952009 -0.026421 0)
(0.964422 -0.0197893 0)
(0.999716 -0.0272667 0)
(1.02671 0.0195082 0)
(1.07558 0.0113205 0)
(1.06682 0.0268973 0)
(1.07523 0.0310853 0)
(1.08064 0.00876266 0)
(1.05758 0.00577634 0)
(1.04737 -0.00500577 0)
(1.02583 -0.0209974 0)
(1.01144 -0.00805923 0)
(0.999352 -0.033828 0)
(0.982276 -0.00988729 0)
(0.973699 -0.0315265 0)
(0.984227 -0.010256 0)
(1.00038 0.0052286 0)
(1.01634 -0.00194898 0)
(1.02135 0.0239998 0)
(1.0063 -0.00142925 0)
(0.959731 -0.0259564 0)
(0.964796 -0.0203992 0)
(0.99022 -0.0279907 0)
(1.02623 0.0182533 0)
(1.06856 0.0107307 0)
(1.06908 0.026717 0)
(1.07979 0.0308817 0)
(1.08025 0.00927007 0)
(1.05633 0.0063462 0)
(1.0466 -0.00408668 0)
(1.02646 -0.0199818 0)
(1.0129 -0.00767954 0)
(1.00157 -0.0321728 0)
(0.984209 -0.0100123 0)
(0.976176 -0.0287808 0)
(0.988249 -0.0101088 0)
(0.998242 0.00492885 0)
(1.00768 -0.0020823 0)
(1.01964 0.0240114 0)
(1.01346 -0.000746436 0)
(0.968636 -0.0254167 0)
(0.968784 -0.0208152 0)
(0.981561 -0.0287392 0)
(1.02613 0.0168836 0)
(1.06263 0.0100795 0)
(1.07006 0.0263349 0)
(1.083 0.0307382 0)
(1.0785 0.00991833 0)
(1.05406 0.00692545 0)
(1.04537 -0.00315095 0)
(1.02639 -0.0189818 0)
(1.01351 -0.00736092 0)
(1.00339 -0.03046 0)
(0.98611 -0.0101469 0)
(0.97839 -0.0260628 0)
(0.990957 -0.00996531 0)
(0.996938 0.00473356 0)
(0.998204 -0.00223146 0)
(1.0193 0.0238337 0)
(1.02046 -0.000137678 0)
(0.977712 -0.0248241 0)
(0.975101 -0.0209957 0)
(0.972727 -0.0294721 0)
(1.02727 0.0153913 0)
(1.05691 0.00939575 0)
(1.06991 0.0257692 0)
(1.08462 0.0306667 0)
(1.07529 0.0107 0)
(1.05087 0.00752331 0)
(1.04361 -0.00224287 0)
(1.02574 -0.0179668 0)
(1.01316 -0.00711322 0)
(1.00445 -0.0286823 0)
(0.987882 -0.0102887 0)
(0.980332 -0.0234315 0)
(0.992837 -0.00982221 0)
(0.996009 0.00463323 0)
(0.990577 -0.00240479 0)
(1.01957 0.0234595 0)
(1.02612 0.000388867 0)
(0.985961 -0.0242079 0)
(0.982162 -0.020907 0)
(0.964331 -0.0301524 0)
(1.0282 0.0137803 0)
(1.05008 0.00872449 0)
(1.06734 0.0250406 0)
(1.08363 0.0306652 0)
(1.07049 0.0116113 0)
(1.0468 0.00810836 0)
(1.04125 -0.00139613 0)
(1.02447 -0.0169076 0)
(1.01195 -0.00691638 0)
(1.00451 -0.0268972 0)
(0.989268 -0.0104664 0)
(0.981837 -0.0209371 0)
(0.994258 -0.00967649 0)
(0.995285 0.00459825 0)
(0.986122 -0.00259816 0)
(1.0194 0.0229209 0)
(1.02962 0.000842428 0)
(0.99262 -0.0235961 0)
(0.988437 -0.0205638 0)
(0.958341 -0.0307309 0)
(1.02653 0.0121068 0)
(1.04117 0.0081108 0)
(1.06093 0.0241704 0)
(1.07891 0.0307037 0)
(1.06418 0.0126014 0)
(1.04197 0.00864629 0)
(1.0382 -0.000615309 0)
(1.02266 -0.0158048 0)
(1.01011 -0.0067601 0)
(1.00368 -0.0251513 0)
(0.990095 -0.0106628 0)
(0.982829 -0.0185931 0)
(0.995468 -0.00952692 0)
(0.994737 0.00459389 0)
(0.984777 -0.00279508 0)
(1.01811 0.0222785 0)
(1.03083 0.0012368 0)
(0.997431 -0.023011 0)
(0.992881 -0.020035 0)
(0.956422 -0.0311563 0)
(1.02094 0.01047 0)
(1.03046 0.00757874 0)
(1.05052 0.0231864 0)
(1.07016 0.0307138 0)
(1.05677 0.013574 0)
(1.03664 0.00912965 0)
(1.0345 8.09322e-05 0)
(1.02045 -0.0146742 0)
(1.00793 -0.00662869 0)
(1.00224 -0.0234491 0)
(0.99033 -0.0108554 0)
(0.983298 -0.0164377 0)
(0.996611 -0.00937397 0)
(0.994384 0.00459139 0)
(0.985561 -0.00297198 0)
(1.01564 0.0215916 0)
(1.03021 0.00157223 0)
(1.00064 -0.0224584 0)
(0.995246 -0.0194219 0)
(0.958548 -0.0313942 0)
(1.01209 0.00896918 0)
(1.01942 0.0071354 0)
(1.03763 0.0221271 0)
(1.05832 0.0306237 0)
(1.04892 0.0144361 0)
(1.03124 0.00955133 0)
(1.03029 0.000681959 0)
(1.01806 -0.0135322 0)
(1.00576 -0.00649488 0)
(1.00054 -0.0218068 0)
(0.990113 -0.0110231 0)
(0.983335 -0.0145034 0)
(0.997735 -0.00921964 0)
(0.994218 0.00457545 0)
(0.987256 -0.00311188 0)
(1.01233 0.0209004 0)
(1.02848 0.00184687 0)
(1.00274 -0.0219269 0)
(0.995988 -0.0188079 0)
(0.963113 -0.031428 0)
(1.002 0.00766233 0)
(1.00959 0.00677032 0)
(1.02459 0.0210484 0)
(1.04513 0.0303925 0)
(1.04127 0.0151197 0)
(1.02623 0.00989371 0)
(1.02592 0.00120182 0)
(1.0157 -0.0124127 0)
(1.00386 -0.00634871 0)
(0.998888 -0.0202377 0)
(0.989661 -0.0111497 0)
(0.983108 -0.0127789 0)
(0.998816 -0.00906615 0)
(0.994161 0.00454346 0)
(0.988954 -0.00320467 0)
(1.00867 0.0202252 0)
(1.02629 0.00205953 0)
(1.00417 -0.021405 0)
(0.995851 -0.0182317 0)
(0.968183 -0.0312522 0)
(0.992614 0.00656763 0)
(1.00158 0.00646609 0)
(1.01313 0.0200085 0)
(1.03231 0.030012 0)
(1.03418 0.0155737 0)
(1.02188 0.0101588 0)
(1.02177 0.00165485 0)
(1.01354 -0.011348 0)
(1.0024 -0.00618908 0)
(0.997478 -0.0187351 0)
(0.98918 -0.0112109 0)
(0.982805 -0.0112532 0)
(0.999784 -0.00891391 0)
(0.994111 0.00449737 0)
(0.99024 -0.00324088 0)
(1.00513 0.0195655 0)
(1.02406 0.00221401 0)
(1.00518 -0.0208929 0)
(0.995438 -0.0176974 0)
(0.972564 -0.0308818 0)
(0.984946 0.00567069 0)
(0.995029 0.0062107 0)
(1.00379 0.0190376 0)
(1.02097 0.0295023 0)
(1.02779 0.0157778 0)
(1.0183 0.0103535 0)
(1.01815 0.00205167 0)
(1.01172 -0.010362 0)
(1.00138 -0.00599782 0)
(0.996402 -0.0173004 0)
(0.988806 -0.0111869 0)
(0.982559 -0.00993609 0)
(1.00056 -0.00876153 0)
(0.994016 0.00444095 0)
(0.991077 -0.00322057 0)
(1.00207 0.0189157 0)
(1.02202 0.00231382 0)
(1.00587 -0.0203913 0)
(0.995029 -0.0171946 0)
(0.97597 -0.0303413 0)
(0.979156 0.00495198 0)
(0.989343 0.00600171 0)
(0.996337 0.0181294 0)
(1.01163 0.0288971 0)
(1.02221 0.0157457 0)
(1.01549 0.0104635 0)
(1.01523 0.00240432 0)
(1.01031 -0.00945789 0)
(1.00071 -0.00576898 0)
(0.99565 -0.0159208 0)
(0.988618 -0.0110805 0)
(0.982434 -0.00881894 0)
(1.00109 -0.00860633 0)
(0.993905 0.00437609 0)
(0.991595 -0.00314999 0)
(0.999707 0.0182679 0)
(1.02028 0.00236567 0)
(1.00629 -0.0199003 0)
(0.994662 -0.0167142 0)
(0.978576 -0.0296606 0)
(0.975077 0.0043949 0)
(0.984353 0.00584444 0)
(0.990465 0.0172528 0)
(1.00443 0.0282189 0)
(1.01755 0.0155086 0)
(1.01337 0.0104799 0)
(1.01301 0.0027367 0)
(1.00932 -0.00863351 0)
(1.0003 -0.00549731 0)
(0.995159 -0.0145807 0)
(0.988655 -0.0108917 0)
(0.982441 -0.00787476 0)
(1.00136 -0.00844559 0)
(0.993846 0.00430201 0)
(0.991938 -0.00303699 0)
(0.998081 0.0176132 0)
(1.01885 0.00238344 0)
(1.00651 -0.0194173 0)
(0.994297 -0.0162513 0)
(0.98059 -0.0288739 0)
(0.972518 0.00397388 0)
(0.980299 0.00574689 0)
(0.986071 0.0163712 0)
(0.999299 0.0274759 0)
(1.0139 0.0151094 0)
(1.01185 0.0103963 0)
(1.01139 0.00306011 0)
(1.00869 -0.00787902 0)
(1.00007 -0.00517139 0)
(0.994861 -0.0132774 0)
(0.98893 -0.0106309 0)
(0.982585 -0.00706668 0)
(1.00143 -0.00827718 0)
(0.993886 0.00421653 0)
(0.992212 -0.00289054 0)
(0.997077 0.0169486 0)
(1.01764 0.00237866 0)
(1.00659 -0.018937 0)
(0.993921 -0.0157998 0)
(0.982125 -0.0280097 0)
(0.971262 0.0036615 0)
(0.977456 0.00571106 0)
(0.98311 0.0154586 0)
(0.995968 0.0266728 0)
(1.01122 0.0145968 0)
(1.01077 0.0102243 0)
(1.01017 0.00338947 0)
(1.00833 -0.0071844 0)
(0.999985 -0.00479941 0)
(0.994707 -0.0119937 0)
(0.989434 -0.0103093 0)
(0.982892 -0.00637809 0)
(1.00135 -0.00810001 0)
(0.994025 0.00411702 0)
(0.992482 -0.00271593 0)
(0.996509 0.0162719 0)
(1.01656 0.00236152 0)
(1.00659 -0.018454 0)
(0.993555 -0.0153551 0)
(0.983245 -0.0270937 0)
(0.971014 0.00342694 0)
(0.975876 0.00573432 0)
(0.981418 0.0145024 0)
(0.994001 0.0258193 0)
(1.00929 0.0140103 0)
(1.00996 0.00997437 0)
(1.0092 0.00372913 0)
(1.0081 -0.00653731 0)
(1.00002 -0.00439238 0)
(0.994677 -0.0107265 0)
(0.990132 -0.00994067 0)
(0.9834 -0.00580312 0)
(1.00118 -0.00791354 0)
(0.994231 0.00400113 0)
(0.992781 -0.00251648 0)
(0.996208 0.0155839 0)
(1.01554 0.00233842 0)
(1.00652 -0.0179675 0)
(0.993234 -0.0149112 0)
(0.984013 -0.0261429 0)
(0.971435 0.00323137 0)
(0.975391 0.00581368 0)
(0.980713 0.0135128 0)
(0.992925 0.024929 0)
(1.00788 0.0133862 0)
(1.00923 0.00964572 0)
(1.00835 0.00409097 0)
(1.00791 -0.00593043 0)
(1.00016 -0.00397292 0)
(0.994766 -0.00947659 0)
(0.990978 -0.00953338 0)
(0.984148 -0.00534018 0)
(1.00097 -0.00771716 0)
(0.994463 0.00386616 0)
(0.993123 -0.00229291 0)
(0.996058 0.0148865 0)
(1.01453 0.00231403 0)
(1.00638 -0.0174792 0)
(0.992987 -0.0144593 0)
(0.984504 -0.0251749 0)
(0.972223 0.00303888 0)
(0.975733 0.00593998 0)
(0.980704 0.0125094 0)
(0.992348 0.0240096 0)
(1.00678 0.0127706 0)
(1.00846 0.00924792 0)
(1.00755 0.00446176 0)
(1.00767 -0.00535294 0)
(1.00038 -0.00356726 0)
(0.994967 -0.00824131 0)
(0.991912 -0.00907213 0)
(0.985155 -0.00498862 0)
(1.00076 -0.00751072 0)
(0.994685 0.00371099 0)
(0.993505 -0.00204792 0)
(0.996002 0.0141849 0)
(1.01352 0.00228913 0)
(1.00614 -0.0169855 0)
(0.992825 -0.0139985 0)
(0.984794 -0.0241959 0)
(0.973169 0.00282153 0)
(0.976633 0.00609724 0)
(0.981168 0.0115157 0)
(0.992017 0.0230649 0)
(1.00587 0.0121901 0)
(1.00759 0.0088028 0)
(1.00676 0.00483085 0)
(1.00736 -0.00477877 0)
(1.00064 -0.00319193 0)
(0.995262 -0.00704198 0)
(0.992875 -0.00853261 0)
(0.986406 -0.00474676 0)
(1.00057 -0.00729392 0)
(0.994871 0.00353419 0)
(0.993908 -0.00178296 0)
(0.996022 0.0134802 0)
(1.01253 0.00226812 0)
(1.00581 -0.0164896 0)
(0.99275 -0.0135318 0)
(0.984956 -0.0232015 0)
(0.974154 0.00255543 0)
(0.97786 0.00627021 0)
(0.981952 0.0105597 0)
(0.991801 0.0220971 0)
(1.00507 0.0116585 0)
(1.00662 0.00830532 0)
(1.00597 0.00518374 0)
(1.00695 -0.00419601 0)
(1.00092 -0.00287292 0)
(0.995622 -0.00590058 0)
(0.993809 -0.00790799 0)
(0.98785 -0.00460757 0)
(1.00042 -0.00706526 0)
(0.995008 0.0033337 0)
(0.994297 -0.00150164 0)
(0.996123 0.0127771 0)
(1.01159 0.00225406 0)
(1.00542 -0.0159977 0)
(0.992756 -0.0130586 0)
(0.985054 -0.0221901 0)
(0.975126 0.00223118 0)
(0.979219 0.00644707 0)
(0.982947 0.00965319 0)
(0.99165 0.0211062 0)
(1.00437 0.0112013 0)
(1.0056 0.00776741 0)
(1.00518 0.00547913 0)
(1.00645 -0.0035998 0)
(1.0012 -0.00262668 0)
(0.996013 -0.00484323 0)
(0.994658 -0.00719658 0)
(0.989406 -0.00455413 0)
(1.00031 -0.00682559 0)
(0.995094 0.00311239 0)
(0.994635 -0.00120648 0)
(0.996312 0.0120753 0)
(1.01073 0.00224876 0)
(1.005 -0.0155056 0)
(0.992843 -0.0125839 0)
(0.985142 -0.0211568 0)
(0.976063 0.00184374 0)
(0.980552 0.00660991 0)
(0.984058 0.00881221 0)
(0.991552 0.0200929 0)
(1.00373 0.0108318 0)
(1.0046 0.00721277 0)
(1.00441 0.00571684 0)
(1.00588 -0.00298521 0)
(1.00144 -0.00245204 0)
(0.996402 -0.00390879 0)
(0.995377 -0.0064076 0)
(0.990977 -0.00455591 0)
(1.00024 -0.00657375 0)
(0.995136 0.00287144 0)
(0.994882 -0.000901017 0)
(0.996584 0.0113731 0)
(1.00999 0.00225224 0)
(1.0046 -0.0150082 0)
(0.993008 -0.012114 0)
(0.985266 -0.020103 0)
(0.976953 0.00140421 0)
(0.981735 0.00674089 0)
(0.985193 0.0080541 0)
(0.991499 0.0190453 0)
(1.00314 0.0105416 0)
(1.00366 0.00665892 0)
(1.00365 0.00588595 0)
(1.00524 -0.00234337 0)
(1.00163 -0.00233301 0)
(0.996763 -0.00311466 0)
(0.995938 -0.00556817 0)
(0.992463 -0.00456734 0)
(1.00021 -0.00630951 0)
(0.995145 0.00261434 0)
(0.995018 -0.00059447 0)
(0.996921 0.0106751 0)
(1.00937 0.00226166 0)
(1.00426 -0.0144993 0)
(0.993244 -0.0116514 0)
(0.985458 -0.019023 0)
(0.977789 0.00091929 0)
(0.982689 0.00682892 0)
(0.986261 0.00738987 0)
(0.991475 0.0179605 0)
(1.00255 0.0103308 0)
(1.00283 0.00613157 0)
(1.00292 0.00595231 0)
(1.00458 -0.00168402 0)
(1.00174 -0.00224083 0)
(0.99708 -0.00247552 0)
(0.996328 -0.00470099 0)
(0.993781 -0.00453762 0)
(1.00022 -0.00603409 0)
(0.995139 0.00234708 0)
(0.995043 -0.000288328 0)
(0.997288 0.00997195 0)
(1.00886 0.00227776 0)
(1.00399 -0.0139713 0)
(0.993537 -0.0112005 0)
(0.985735 -0.0179158 0)
(0.97858 0.000405397 0)
(0.983384 0.00685955 0)
(0.987189 0.00682144 0)
(0.991461 0.0168417 0)
(1.00194 0.0101708 0)
(1.00211 0.00564823 0)
(1.00223 0.00592228 0)
(1.00391 -0.00101127 0)
(1.00177 -0.00214261 0)
(0.997354 -0.0020025 0)
(0.996559 -0.00384949 0)
(0.994872 -0.00442089 0)
(1.00026 -0.00574674 0)
(0.995137 0.00207228 0)
(0.994981 1.2193e-05 0)
(0.997646 0.00926616 0)
(1.00843 0.00229439 0)
(1.0038 -0.0134255 0)
(0.993864 -0.0107573 0)
(0.986101 -0.0167872 0)
(0.979349 -0.000106598 0)
(0.983844 0.00682814 0)
(0.987937 0.00633872 0)
(0.991451 0.0156889 0)
(1.00128 0.0100376 0)
(1.00151 0.00522773 0)
(1.0016 0.00580119 0)
(1.00326 -0.000346019 0)
(1.00174 -0.00200517 0)
(0.99759 -0.00167884 0)
(0.996664 -0.0030571 0)
(0.995711 -0.00420372 0)
(1.00031 -0.00544912 0)
(0.995157 0.00179381 0)
(0.994875 0.000306375 0)
(0.99796 0.00855543 0)
(1.00804 0.00230316 0)
(1.00366 -0.0128514 0)
(0.994197 -0.0103365 0)
(0.986544 -0.0156369 0)
(0.980136 -0.000598989 0)
(0.984138 0.00672572 0)
(0.988506 0.0059475 0)
(0.991453 0.0145215 0)
(1.00057 0.00990728 0)
(1.00098 0.00488541 0)
(1.00104 0.00558021 0)
(1.00263 0.000266094 0)
(1.00165 -0.0018129 0)
(0.997799 -0.00148379 0)
(0.996682 -0.00235786 0)
(0.996301 -0.00387929 0)
(1.00035 -0.00514282 0)
(0.995217 0.00151574 0)
(0.994773 0.000591061 0)
(0.99821 0.00784081 0)
(1.00764 0.00229833 0)
(1.00352 -0.0122346 0)
(0.994513 -0.00994191 0)
(0.987046 -0.0144754 0)
(0.980976 -0.00105273 0)
(0.984357 0.00655359 0)
(0.988931 0.00563734 0)
(0.991489 0.0133548 0)
(0.999848 0.0097554 0)
(1.00051 0.00463894 0)
(1.00056 0.00529202 0)
(1.00204 0.000816694 0)
(1.00151 -0.00155293 0)
(0.997989 -0.0013883 0)
(0.996659 -0.00178345 0)
(0.99667 -0.00344672 0)
(1.00039 -0.00482873 0)
(0.995326 0.00123922 0)
(0.994713 0.000861834 0)
(0.998392 0.00713934 0)
(1.00722 0.00226664 0)
(1.00336 -0.0115789 0)
(0.994798 -0.0095615 0)
(0.987587 -0.0133232 0)
(0.981889 -0.00144886 0)
(0.984585 0.00631468 0)
(0.989268 0.00539288 0)
(0.991584 0.0121996 0)
(0.999145 0.00955593 0)
(1.00008 0.00447798 0)
(1.00016 0.00495807 0)
(1.00148 0.00128896 0)
(1.00134 -0.00121815 0)
(0.998163 -0.00133437 0)
(0.99664 -0.00134723 0)
(0.996859 -0.00295487 0)
(1.0004 -0.00450903 0)
(0.995484 0.000965402 0)
(0.994719 0.0011178 0)
(0.998512 0.0064563 0)
(1.00675 0.00220869 0)
(1.00316 -0.0108848 0)
(0.995048 -0.00920136 0)
(0.988151 -0.0121991 0)
(0.982874 -0.00177531 0)
(0.984881 0.00601373 0)
(0.989567 0.00520463 0)
(0.991753 0.0110798 0)
(0.998502 0.00928887 0)
(0.999672 0.00439331 0)
(0.999846 0.00460053 0)
(1.00098 0.00165862 0)
(1.00113 -0.000825668 0)
(0.998315 -0.00126505 0)
(0.996645 -0.00104064 0)
(0.996918 -0.00246551 0)
(1.00039 -0.00418708 0)
(0.995686 0.000697061 0)
(0.994797 0.0013591 0)
(0.998586 0.00579635 0)
(1.00625 0.00212059 0)
(1.00291 -0.0101601 0)
(0.995263 -0.00884672 0)
(0.988725 -0.0111176 0)
(0.983913 -0.00203051 0)
(0.985273 0.0056565 0)
(0.989865 0.00506065 0)
(0.991996 0.0100206 0)
(0.997952 0.00895931 0)
(0.999283 0.00438057 0)
(0.999596 0.00425701 0)
(1.00054 0.00191849 0)
(1.0009 -0.000420807 0)
(0.99844 -0.00115832 0)
(0.996686 -0.000833638 0)
(0.996897 -0.00199426 0)
(1.00036 -0.00386256 0)
(0.995924 0.000430323 0)
(0.994939 0.00157891 0)
(0.998631 0.00518731 0)
(1.00574 0.00199972 0)
(1.00261 -0.00942894 0)
(0.995451 -0.00849299 0)
(0.989301 -0.0100833 0)
(0.984978 -0.00220606 0)
(0.985762 0.0052608 0)
(0.990182 0.00493797 0)
(0.992301 0.00903487 0)
(0.997511 0.00855223 0)
(0.998914 0.00439809 0)
(0.999398 0.00395303 0)
(1.00016 0.00209851 0)
(1.00066 -2.96356e-05 0)
(0.998537 -0.00101593 0)
(0.996768 -0.000722648 0)
(0.99684 -0.00157742 0)
(1.00033 -0.00353791 0)
(0.996184 0.000172313 0)
(0.99513 0.00175882 0)
(0.998662 0.00463473 0)
(1.00522 0.0018564 0)
(1.00229 -0.00868462 0)
(0.995623 -0.00812801 0)
(0.989873 -0.00912582 0)
(0.986042 -0.00230957 0)
(0.986332 0.00483828 0)
(0.990518 0.00482295 0)
(0.992646 0.0081445 0)
(0.99718 0.00809313 0)
(0.998569 0.00442223 0)
(0.999241 0.00369125 0)
(0.999857 0.00221174 0)
(1.00042 0.000351857 0)
(0.998598 -0.000814565 0)
(0.996887 -0.000658912 0)
(0.9968 -0.00128665 0)
(1.00028 -0.00321995 0)
(0.996455 -7.51012e-05 0)
(0.995353 0.0019106 0)
(0.99869 0.00414516 0)
(1.00472 0.00167856 0)
(1.00195 -0.00795013 0)
(0.995784 -0.00773518 0)
(0.990436 -0.00824464 0)
(0.987086 -0.00235855 0)
(0.986964 0.0044019 0)
(0.990871 0.00469888 0)
(0.993012 0.00733191 0)
(0.99695 0.00760367 0)
(0.99825 0.00445253 0)
(0.999111 0.00347849 0)
(0.999626 0.00225064 0)
(1.0002 0.000684917 0)
(0.998625 -0.000551385 0)
(0.997011 -0.000576789 0)
(0.996778 -0.00107028 0)
(1.00023 -0.00290197 0)
(0.996732 -0.000316222 0)
(0.995595 0.00199712 0)
(0.99872 0.00373878 0)
(1.00424 0.00148926 0)
(1.00162 -0.00722798 0)
(0.995945 -0.00733614 0)
(0.990986 -0.0074378 0)
(0.988094 -0.00234806 0)
(0.987635 0.0039644 0)
(0.991227 0.00456865 0)
(0.993384 0.00660195 0)
(0.996814 0.00706685 0)
(0.997964 0.00447633 0)
(0.998991 0.00332979 0)
(0.999456 0.00226075 0)
(1.00002 0.000988232 0)
(0.99863 -0.000249377 0)
(0.997138 -0.000459899 0)
(0.996781 -0.000901455 0)
(1.00019 -0.00259751 0)
(0.997004 -0.000540158 0)
(0.995849 0.00204151 0)
(0.998758 0.00339162 0)
(1.00379 0.00128662 0)
(1.00131 -0.00652558 0)
(0.996106 -0.00689669 0)
(0.991526 -0.00671053 0)
(0.98906 -0.00229599 0)
(0.988331 0.00352105 0)
(0.991588 0.00443326 0)
(0.993743 0.00597541 0)
(0.996758 0.00650409 0)
(0.997724 0.00445673 0)
(0.998879 0.00324962 0)
(0.999346 0.00225779 0)
(0.999873 0.00120601 0)
(0.998612 6.9217e-06 0)
(0.997242 -0.00030614 0)
(0.996804 -0.000744512 0)
(1.00015 -0.00229742 0)
(0.997275 -0.000751678 0)
(0.996108 0.00204772 0)
(0.998796 0.00310972 0)
(1.00338 0.0010959 0)
(1.00102 -0.00587229 0)
(0.996272 -0.00644086 0)
(0.992051 -0.00605466 0)
(0.989979 -0.00219809 0)
(0.989043 0.00309326 0)
(0.99195 0.00424347 0)
(0.994083 0.00542972 0)
(0.996765 0.00594811 0)
(0.997536 0.00437318 0)
(0.998773 0.00318754 0)
(0.999262 0.00228717 0)
(0.999758 0.00151866 0)
(0.998604 0.000386419 0)
(0.997355 -8.54918e-05 0)
(0.996842 -0.000635086 0)
(1.00011 -0.0020115 0)
(0.997536 -0.000930969 0)
(0.996375 0.00201352 0)
(0.998839 0.00286865 0)
(1.00301 0.00090734 0)
(1.00075 -0.00523793 0)
(0.996441 -0.00597255 0)
(0.992569 -0.00545548 0)
(0.990853 -0.00210545 0)
(0.989755 0.00272201 0)
(0.992318 0.00405925 0)
(0.994406 0.00492266 0)
(0.996822 0.00539768 0)
(0.997401 0.00424742 0)
(0.99869 0.00310193 0)
(0.999264 0.0021856 0)
(0.999711 0.00155465 0)
(0.998557 0.000572038 0)
(0.997382 6.83103e-05 0)
(0.99685 -0.000491376 0)
(1.00008 -0.00174351 0)
(0.997795 -0.00108176 0)
(0.996645 0.00194761 0)
(0.998877 0.00265932 0)
(1.00267 0.000751307 0)
(1.00051 -0.00467989 0)
(0.996612 -0.00546623 0)
(0.993064 -0.00490896 0)
(0.991687 -0.00196737 0)
(0.99048 0.00233187 0)
(0.992678 0.00384774 0)
(0.994697 0.00452491 0)
(0.996923 0.00485619 0)
(0.997317 0.00404657 0)
(0.998586 0.00299161 0)
(0.999219 0.00200027 0)
(0.999682 0.00135885 0)
(0.998587 0.000578073 0)
(0.997489 0.000200226 0)
(0.996916 -0.00028056 0)
(1.00005 -0.00148381 0)
(0.998041 -0.00119939 0)
(0.996923 0.001843 0)
(0.998921 0.00248203 0)
(1.00236 0.000603162 0)
(1.0003 -0.00413269 0)
(0.996785 -0.00498827 0)
(0.993548 -0.00439881 0)
(0.992469 -0.00184984 0)
(0.99119 0.00200786 0)
(0.993069 0.00361644 0)
(0.994971 0.00413056 0)
(0.997034 0.00436967 0)
(0.997286 0.00381986 0)
(0.998501 0.00285011 0)
(0.999199 0.00176673 0)
(0.999702 0.00110012 0)
(0.99865 0.000451638 0)
(0.997581 0.000291806 0)
(0.997052 9.34837e-05 0)
(1.00002 -0.00125333 0)
(0.99828 -0.00126198 0)
(0.997205 0.00171326 0)
(0.998955 0.00230254 0)
(1.00208 0.000498988 0)
(1.00012 -0.00366174 0)
(0.996954 -0.00447142 0)
(0.994008 -0.00393761 0)
(0.993216 -0.00170625 0)
(0.991913 0.0016868 0)
(0.993442 0.00337537 0)
(0.995225 0.00380527 0)
(0.997188 0.0038945 0)
(0.997287 0.00353571 0)
(0.998379 0.00279412 0)
(0.999109 0.00184827 0)
(0.999708 0.00122551 0)
(0.998814 0.000660109 0)
(0.997895 0.000511042 0)
(0.99732 0.000181433 0)
(1 -0.00103748 0)
(0.998504 -0.00127562 0)
(0.997486 0.00153836 0)
(0.998997 0.00213551 0)
(1.00182 0.000426598 0)
(0.999968 -0.00322325 0)
(0.997126 -0.00399162 0)
(0.994454 -0.00348761 0)
(0.993906 -0.00157623 0)
(0.992606 0.00141752 0)
(0.993867 0.00311744 0)
(0.995461 0.003507 0)
(0.99732 0.00348243 0)
(0.997372 0.0032326 0)
(0.998395 0.00270029 0)
(0.999141 0.00181696 0)
(0.999767 0.00119731 0)
(0.998911 0.00071961 0)
(0.997931 0.000658496 0)
(0.99732 0.000383238 0)
(0.999982 -0.000846003 0)
(0.998711 -0.00124342 0)
(0.997765 0.00135797 0)
(0.999033 0.00195772 0)
(1.00159 0.00036548 0)
(0.999838 -0.00281822 0)
(0.997294 -0.00351249 0)
(0.994873 -0.00306135 0)
(0.994565 -0.00144253 0)
(0.993304 0.00118543 0)
(0.994262 0.00285183 0)
(0.995693 0.00322472 0)
(0.997485 0.00313292 0)
(0.997467 0.00296614 0)
(0.998341 0.00256587 0)
(0.999054 0.001704 0)
(0.999795 0.00101131 0)
(0.999153 0.000574243 0)
(0.998327 0.000670195 0)
(0.997658 0.000702384 0)
(0.999964 -0.00067604 0)
(0.998898 -0.00117966 0)
(0.998034 0.00116947 0)
(0.999079 0.00176674 0)
(1.00137 0.000354568 0)
(0.999734 -0.00246027 0)
(0.997463 -0.00303875 0)
(0.995272 -0.00268249 0)
(0.995164 -0.00127093 0)
(0.99396 0.000930851 0)
(0.994709 0.00261235 0)
(0.995923 0.003008 0)
(0.997628 0.00280776 0)
(0.997622 0.0027323 0)
(0.998402 0.00250324 0)
(0.999053 0.00184888 0)
(0.999832 0.00124008 0)
(0.99933 0.000812975 0)
(0.998568 0.000788321 0)
(0.997838 0.000718191 0)
(0.999949 -0.000522955 0)
(0.999067 -0.00109735 0)
(0.99829 0.000998163 0)
(0.999124 0.00157963 0)
(1.00118 0.000335781 0)
(0.999647 -0.00210886 0)
(0.997625 -0.00262636 0)
(0.995647 -0.00229191 0)
(0.995724 -0.00113391 0)
(0.994616 0.000774837 0)
(0.995141 0.00236679 0)
(0.99614 0.00276345 0)
(0.997797 0.00257961 0)
(0.997804 0.00251851 0)
(0.998469 0.00239315 0)
(0.999056 0.00184104 0)
(0.999879 0.0012734 0)
(0.99952 0.000805818 0)
(0.998869 0.000744653 0)
(0.998093 0.00075939 0)
(0.999936 -0.000388563 0)
(0.999214 -0.00100962 0)
(0.998531 0.000856476 0)
(0.999178 0.00138672 0)
(1.00101 0.000337059 0)
(0.99958 -0.00180621 0)
(0.997792 -0.00218897 0)
(0.996002 -0.00194869 0)
(0.996233 -0.000962913 0)
(0.995223 0.000616166 0)
(0.995592 0.00211676 0)
(0.996383 0.00260468 0)
(0.997951 0.00238272 0)
(0.998004 0.0022931 0)
(0.998601 0.0022818 0)
(0.999098 0.0018487 0)
(0.999896 0.00130503 0)
(0.999651 0.000839575 0)
(0.999135 0.000766638 0)
(0.998407 0.000764578 0)
(0.999925 -0.00027242 0)
(0.999344 -0.00091193 0)
(0.998753 0.000743091 0)
(0.999229 0.00118988 0)
(1.00087 0.000331377 0)
(0.999539 -0.00149963 0)
(0.99795 -0.00180628 0)
(0.996328 -0.00162257 0)
(0.996702 -0.000797799 0)
(0.995813 0.000518841 0)
(0.996053 0.00192346 0)
(0.996618 0.00241708 0)
(0.998096 0.00220759 0)
(0.99822 0.00211125 0)
(0.99875 0.00212543 0)
(0.999143 0.00178684 0)
(0.999937 0.00132571 0)
(0.999827 0.000898602 0)
(0.999423 0.000807455 0)
(0.998718 0.000772453 0)
(0.999916 -0.000168862 0)
(0.999454 -0.000820971 0)
(0.998955 0.000653368 0)
(0.999286 0.00101608 0)
(1.00075 0.000330534 0)
(0.999514 -0.0012541 0)
(0.99811 -0.00143844 0)
(0.99664 -0.00129182 0)
(0.99713 -0.000626797 0)
(0.996361 0.000439869 0)
(0.996505 0.00170846 0)
(0.996872 0.00224536 0)
(0.998246 0.00208677 0)
(0.998427 0.00193676 0)
(0.998924 0.00194363 0)
(0.999248 0.00172981 0)
(0.99999 0.00136512 0)
(0.999951 0.000923146 0)
(0.999652 0.000775324 0)
(0.998991 0.000748986 0)
(0.999909 -8.08443e-05 0)
(0.999551 -0.000732679 0)
(0.999139 0.000592993 0)
(0.999339 0.000861403 0)
(1.00065 0.000316586 0)
(0.999517 -0.00102545 0)
(0.998274 -0.00108624 0)
(0.996924 -0.000986105 0)
(0.997512 -0.000468539 0)
(0.996877 0.000390314 0)
(0.996964 0.00153576 0)
(0.997143 0.00210101 0)
(0.998381 0.00196976 0)
(0.998618 0.00177939 0)
(0.999119 0.00178134 0)
(0.999378 0.00164104 0)
(1.00005 0.00134679 0)
(1.00007 0.000960203 0)
(0.999907 0.000768962 0)
(0.999285 0.0007832 0)
(0.999904 -2.74086e-06 0)
(0.999633 -0.000648357 0)
(0.999303 0.000538469 0)
(0.999392 0.000733484 0)
(1.00057 0.000314838 0)
(0.999542 -0.000833817 0)
(0.99844 -0.0007869 0)
(0.99719 -0.000693295 0)
(0.997859 -0.000291993 0)
(0.997357 0.000365124 0)
(0.997411 0.00137333 0)
(0.997423 0.00193677 0)
(0.998519 0.00186863 0)
(0.998803 0.00166849 0)
(0.99932 0.00163452 0)
(0.999538 0.0015274 0)
(1.00015 0.00130298 0)
(1.00018 0.00100314 0)
(1.00012 0.000758426 0)
(0.999556 0.000760987 0)
(0.999901 6.2949e-05 0)
(0.999703 -0.00056962 0)
(0.999452 0.000500143 0)
(0.999441 0.000637692 0)
(1.00051 0.000312354 0)
(0.999589 -0.000681214 0)
(0.998619 -0.000516799 0)
(0.997443 -0.00041157 0)
(0.998163 -0.000117867 0)
(0.997795 0.000343132 0)
(0.99785 0.00122114 0)
(0.997724 0.00178435 0)
(0.998666 0.00178929 0)
(0.998967 0.00158123 0)
(0.999508 0.00149601 0)
(0.999708 0.00140897 0)
(1.00027 0.00122662 0)
(1.0003 0.00101268 0)
(1.00032 0.00076999 0)
(0.999845 0.000719639 0)
(0.999901 0.00011915 0)
(0.999762 -0.000496548 0)
(0.999585 0.000472077 0)
(0.999489 0.000563039 0)
(1.00046 0.000331482 0)
(0.999657 -0.000545895 0)
(0.998811 -0.000285439 0)
(0.997683 -0.000165283 0)
(0.998429 5.30239e-05 0)
(0.998193 0.000346296 0)
(0.998276 0.00107625 0)
(0.99804 0.00163349 0)
(0.998822 0.00170245 0)
(0.999116 0.00151577 0)
(0.999686 0.00138232 0)
(0.99989 0.00130656 0)
(1.00042 0.00114538 0)
(1.00044 0.000992707 0)
(1.00049 0.000790141 0)
(1.00011 0.000661853 0)
(0.999903 0.000166701 0)
(0.999812 -0.000428222 0)
(0.999705 0.000450461 0)
(0.999536 0.000513114 0)
(1.00042 0.000374086 0)
(0.999738 -0.000431993 0)
(0.999015 -0.000101537 0)
(0.997919 5.34125e-05 0)
(0.998663 0.000217842 0)
(0.998544 0.000366061 0)
(0.998683 0.000945008 0)
(0.998377 0.00146705 0)
(0.999 0.00161123 0)
(0.999257 0.00147048 0)
(0.999846 0.00130088 0)
(1.00007 0.00120905 0)
(1.00058 0.00105495 0)
(1.0006 0.000925606 0)
(1.00064 0.00079033 0)
(1.00036 0.000634818 0)
(0.999907 0.000206204 0)
(0.999854 -0.000362807 0)
(0.999816 0.000438081 0)
(0.999587 0.000478706 0)
(1.00039 0.00043521 0)
(0.999829 -0.000324266 0)
(0.999235 4.37343e-05 0)
(0.998155 0.000241429 0)
(0.998867 0.000373144 0)
(0.998852 0.000399607 0)
(0.99906 0.000840558 0)
(0.998724 0.0012946 0)
(0.999207 0.00149864 0)
(0.999399 0.00142133 0)
(0.999987 0.00124171 0)
(1.00023 0.00112085 0)
(1.00074 0.000972856 0)
(1.00079 0.000850788 0)
(1.00081 0.000767899 0)
(1.00058 0.000636841 0)
(0.999912 0.000238747 0)
(0.999888 -0.000298626 0)
(0.999916 0.000433002 0)
(0.999642 0.0004523 0)
(1.00036 0.000513603 0)
(0.999921 -0.000213386 0)
(0.999464 0.000146664 0)
(0.998396 0.000385183 0)
(0.999051 0.000525264 0)
(0.999118 0.000449797 0)
(0.999404 0.000762552 0)
(0.999073 0.00113729 0)
(0.999445 0.0013574 0)
(0.999557 0.001359 0)
(1.00011 0.00119686 0)
(1.00038 0.00105834 0)
(1.00089 0.000900062 0)
(1.00098 0.000776174 0)
(1.001 0.000697912 0)
(1.00076 0.000622942 0)
(0.99992 0.000264442 0)
(0.999916 -0.00023531 0)
(1.00001 0.000437297 0)
(0.999703 0.000430974 0)
(1.00035 0.000599221 0)
(1.00001 -9.26393e-05 0)
(0.999697 0.000216385 0)
(0.998651 0.000483233 0)
(0.999222 0.000660297 0)
(0.999346 0.000513449 0)
(0.999711 0.000706137 0)
(0.999407 0.00100304 0)
(0.999704 0.00120761 0)
(0.999744 0.00126436 0)
(1.00024 0.00114881 0)
(1.00051 0.00100968 0)
(1.00102 0.000840008 0)
(1.00115 0.000713261 0)
(1.0012 0.0006118 0)
(1.00095 0.000587192 0)
(0.999929 0.000284515 0)
(0.999937 -0.000173994 0)
(1.00009 0.000451404 0)
(0.99977 0.000412316 0)
(1.00034 0.000680467 0)