/*--------------------------------*- C++ -*----------------------------------*\
| =========                 |                                                 |
| \\      /  F ield         | OpenFOAM: The Open Source CFD Toolbox           |
|  \\    /   O peration     | Version:  v1912                                 |
|   \\  /    A nd           | Website:  www.openfoam.com                      |
|    \\/     M anipulation  |                                                 |
\*---------------------------------------------------------------------------*/
FoamFile
{
    version     2.0;
    format      ascii;
    class       surfaceScalarField;
    location    "5.25";
    object      phi;
}
// * * * * * * * * * * * * * * * * * * * * * * * * * * * * * * * * * * * * * //

dimensions      [0 3 -1 0 0 0 0];
oriented        oriented;


internalField   nonuniform List<scalar> 
19000
(
1.19897e-06
-1.89108e-07
1.07009e-06
1.63013e-06
1.12458e-06
-2.84587e-06
1.29274e-06
-1.5081e-06
1.25612e-06
-9.0118e-08
1.20679e-06
1.842e-06
1.25623e-06
-4.21742e-07
1.24224e-06
-2.44306e-07
1.24322e-06
-7.12975e-07
1.25519e-06
-5.60195e-07
1.23381e-06
-6.33687e-07
1.19468e-06
1.89851e-07
1.20712e-06
1.89892e-07
1.20568e-06
3.06092e-07
1.20565e-06
3.16509e-07
1.21739e-06
3.12474e-07
1.22428e-06
1.20433e-07
1.22595e-06
1.422e-07
1.22699e-06
8.23864e-08
7.91012e-08
1.19648e-06
1.25577e-06
-2.2062e-07
1.1581e-06
1.72781e-06
1.20697e-06
-2.89474e-06
1.35204e-06
-1.65318e-06
1.31548e-06
-5.35508e-08
1.28573e-06
1.87175e-06
1.32903e-06
-4.6504e-07
1.3187e-06
-2.33979e-07
1.31906e-06
-7.13341e-07
1.32831e-06
-5.69437e-07
1.30728e-06
-6.12661e-07
1.26765e-06
2.29478e-07
1.27075e-06
1.86799e-07
1.27774e-06
2.991e-07
1.26334e-06
3.30905e-07
1.29236e-06
2.83454e-07
1.28094e-06
1.31854e-07
1.30378e-06
1.19365e-07
1.27983e-06
1.06332e-07
7.2297e-08
1.28663e-06
1.31362e-06
-2.51456e-07
1.24325e-06
1.79818e-06
1.27619e-06
-2.92768e-06
1.40668e-06
-1.78367e-06
1.3823e-06
-2.91735e-08
1.37186e-06
1.8822e-06
1.39871e-06
-4.9189e-07
1.39286e-06
-2.28131e-07
1.38573e-06
-7.06212e-07
1.40008e-06
-5.83784e-07
1.37816e-06
-5.90748e-07
1.3505e-06
2.57142e-07
1.33889e-06
1.98405e-07
1.35445e-06
2.83544e-07
1.33344e-06
3.51913e-07
1.3608e-06
2.56092e-07
1.35233e-06
1.40328e-07
1.36604e-06
1.05656e-07
1.35476e-06
1.17605e-07
8.30438e-08
1.34402e-06
1.37287e-06
-2.80228e-07
1.32918e-06
1.84187e-06
1.33747e-06
-2.93597e-06
1.45451e-06
-1.90071e-06
1.45497e-06
-2.9639e-08
1.46138e-06
1.87579e-06
1.46499e-06
-4.95494e-07
1.45883e-06
-2.21973e-07
1.44088e-06
-6.88269e-07
1.45789e-06
-6.00793e-07
1.43983e-06
-5.72681e-07
1.42601e-06
2.70963e-07
1.41009e-06
2.14326e-07
1.42416e-06
2.69465e-07
1.4123e-06
3.63779e-07
1.42849e-06
2.39897e-07
1.42763e-06
1.41189e-07
1.43289e-06
1.00394e-07
1.42709e-06
1.23407e-07
9.63049e-08
1.41383e-06
1.43414e-06
-3.06009e-07
1.41014e-06
1.86587e-06
1.39015e-06
-2.91599e-06
1.49574e-06
-2.00629e-06
1.53144e-06
-6.53472e-08
1.55102e-06
1.85621e-06
1.52944e-06
-4.73915e-07
1.51632e-06
-2.08851e-07
1.48884e-06
-6.60784e-07
1.50212e-06
-6.14073e-07
1.4924e-06
-5.62969e-07
1.49186e-06
2.71511e-07
1.48096e-06
2.25221e-07
1.49179e-06
2.58642e-07
1.49117e-06
3.64392e-07
1.50089e-06
2.30175e-07
1.50149e-06
1.4059e-07
1.50313e-06
9.87552e-08
1.49706e-06
1.29475e-07
1.09215e-07
1.48415e-06
1.4984e-06
-3.28729e-07
1.48683e-06
1.87744e-06
1.44182e-06
-2.87099e-06
1.53497e-06
-2.09944e-06
1.60849e-06
-1.38858e-07
1.63847e-06
1.82622e-06
1.59473e-06
-4.30173e-07
1.57048e-06
-1.84599e-07
1.53638e-06
-6.26682e-07
1.54165e-06
-6.19347e-07
1.54008e-06
-5.61397e-07
1.55258e-06
2.59012e-07
1.55012e-06
2.27674e-07
1.56094e-06
2.47831e-07
1.56791e-06
3.57413e-07
1.57572e-06
2.22365e-07
1.57485e-06
1.41468e-07
1.57325e-06
1.00351e-07
1.56593e-06
1.36793e-07
1.22943e-07
1.55221e-06
1.56664e-06
-3.49156e-07
1.56288e-06
1.8812e-06
1.50102e-06
-2.80913e-06
1.5785e-06
-2.17692e-06
1.68271e-06
-2.43066e-07
1.72174e-06
1.78719e-06
1.66168e-06
-3.70116e-07
1.6268e-06
-1.49711e-07
1.58838e-06
-5.88266e-07
1.58519e-06
-6.16159e-07
1.58808e-06
-5.64288e-07
1.61228e-06
2.34812e-07
1.6185e-06
2.21451e-07
1.63228e-06
2.34059e-07
1.64388e-06
3.45812e-07
1.65107e-06
2.15171e-07
1.64826e-06
1.44281e-07
1.64292e-06
1.05693e-07
1.634e-06
1.45713e-07
1.38225e-07
1.61871e-06
1.63921e-06
-3.68242e-07
1.64235e-06
1.87807e-06
1.5726e-06
-2.73937e-06
1.63077e-06
-2.23509e-06
1.75192e-06
-3.64221e-07
1.79886e-06
1.74026e-06
1.72917e-06
-3.00427e-07
1.68787e-06
-1.08408e-07
1.6469e-06
-5.47292e-07
1.63712e-06
-6.06381e-07
1.641e-06
-5.68166e-07
1.67417e-06
2.01637e-07
1.68806e-06
2.07566e-07
1.70581e-06
2.16304e-07
1.72016e-06
3.31467e-07
1.72634e-06
2.08994e-07
1.72155e-06
1.49071e-07
1.71242e-06
1.14815e-07
1.70187e-06
1.56269e-07
1.55163e-07
1.68493e-06
1.71568e-06
-3.8635e-07
1.7271e-06
1.86665e-06
1.65589e-06
-2.66817e-06
1.69289e-06
-2.27209e-06
1.81606e-06
-4.87388e-07
1.86885e-06
1.68747e-06
1.79583e-06
-2.27415e-07
1.75372e-06
-6.62966e-08
1.7123e-06
-5.05867e-07
1.69844e-06
-5.92524e-07
1.70151e-06
-5.71241e-07
1.74049e-06
1.62663e-07
1.75998e-06
1.88079e-07
1.78088e-06
1.95396e-07
1.79643e-06
3.15923e-07
1.80085e-06
2.04567e-07
1.79425e-06
1.55676e-07
1.78189e-06
1.27172e-07
1.77018e-06
1.67981e-07
1.73195e-07
1.75215e-06
1.79535e-06
-4.0298e-07
1.81642e-06
1.84558e-06
1.7471e-06
-2.59885e-06
1.76368e-06
-2.28867e-06
1.87679e-06
-6.00495e-07
1.93247e-06
1.63179e-06
1.8615e-06
-1.56444e-07
1.82349e-06
-2.82909e-08
1.78423e-06
-4.66609e-07
1.76879e-06
-5.77082e-07
1.77024e-06
-5.72693e-07
1.81171e-06
1.21193e-07
1.83388e-06
1.65915e-07
1.85594e-06
1.7333e-07
1.87133e-06
3.00542e-07
1.87372e-06
2.02177e-07
1.866e-06
1.63395e-07
1.85155e-06
1.4162e-07
1.83958e-06
1.79953e-07
1.91196e-07
1.82158e-06
1.87789e-06
-4.17119e-07
1.90843e-06
1.81504e-06
1.84242e-06
-2.53284e-06
1.84144e-06
-2.28769e-06
1.93653e-06
-6.95586e-07
1.99218e-06
1.57614e-06
1.92751e-06
-9.17691e-08
1.89678e-06
2.43976e-09
1.86215e-06
-4.31983e-07
1.84745e-06
-5.6238e-07
1.84654e-06
-5.71789e-07
1.88703e-06
8.07032e-08
1.90877e-06
1.44175e-07
1.92978e-06
1.52327e-07
1.94404e-06
2.86279e-07
1.94479e-06
2.01423e-07
1.9372e-06
1.70991e-07
1.92221e-06
1.56608e-07
1.911e-06
1.91161e-07
2.07811e-07
1.89438e-06
1.96357e-06
-4.27847e-07
2.00178e-06
1.77682e-06
1.93973e-06
-2.47079e-06
1.92499e-06
-2.27295e-06
1.99795e-06
-7.6854e-07
2.0516e-06
1.52249e-06
1.99624e-06
-3.6409e-08
1.97409e-06
2.45865e-08
1.94559e-06
-4.03481e-07
1.9335e-06
-5.50291e-07
1.92953e-06
-5.67822e-07
1.96592e-06
4.43113e-08
1.98481e-06
1.25286e-07
2.00307e-06
1.34075e-07
2.01576e-06
2.73583e-07
2.01565e-06
2.01532e-07
2.00946e-06
1.77182e-07
1.99542e-06
1.70652e-07
1.98576e-06
2.00819e-07
2.21868e-07
1.9717e-06
2.05311e-06
-4.34773e-07
2.09647e-06
1.73347e-06
2.03855e-06
-2.41287e-06
2.01389e-06
-2.24829e-06
2.06395e-06
-8.186e-07
2.11489e-06
1.47155e-06
2.07037e-06
8.11153e-09
2.05666e-06
3.83013e-08
2.03441e-06
-3.81233e-07
2.02593e-06
-5.41817e-07
2.01865e-06
-5.60533e-07
2.04909e-06
1.3862e-08
2.06395e-06
1.10434e-07
2.07861e-06
1.19413e-07
2.08966e-06
2.6253e-07
2.0893e-06
2.01896e-07
2.08525e-06
1.81232e-07
2.07312e-06
1.82778e-07
2.06531e-06
2.08631e-07
2.3269e-07
2.05449e-06
2.14734e-06
-4.38114e-07
2.19354e-06
1.68727e-06
2.13933e-06
-2.35866e-06
2.10806e-06
-2.21702e-06
2.13732e-06
-8.47862e-07
2.18594e-06
1.42293e-06
2.15217e-06
4.18798e-08
2.14584e-06
4.46282e-08
2.12879e-06
-3.64176e-07
2.12384e-06
-5.36875e-07
2.11361e-06
-5.50303e-07
2.13796e-06
-1.04845e-08
2.14886e-06
9.9535e-08
2.15986e-06
1.08413e-07
2.16938e-06
2.53013e-07
2.16891e-06
2.02362e-07
2.16695e-06
1.83198e-07
2.15706e-06
1.92666e-07
2.15092e-06
2.14765e-07
2.40189e-07
2.14342e-06
2.24689e-06
-4.38518e-07
2.29439e-06
1.63978e-06
2.24291e-06
-2.30718e-06
2.20743e-06
-2.18154e-06
2.21988e-06
-8.60316e-07
2.26732e-06
1.37549e-06
2.24296e-06
6.62318e-08
2.24261e-06
4.49806e-08
2.22904e-06
-3.50602e-07
2.22663e-06
-5.34468e-07
2.2142e-06
-5.37872e-07
2.23352e-06
-2.98103e-08
2.24141e-06
9.1649e-08
2.2492e-06
1.00627e-07
2.25738e-06
2.4483e-07
2.25663e-06
2.03108e-07
2.25611e-06
1.83714e-07
2.24831e-06
2.00467e-07
2.24346e-06
2.19623e-07
2.44729e-07
2.23892e-06
2.35215e-06
-4.36797e-07
2.40018e-06
1.59175e-06
2.35015e-06
-2.25716e-06
2.3119e-06
-2.14328e-06
2.31212e-06
-8.60535e-07
2.35986e-06
1.32775e-06
2.34306e-06
8.30282e-08
2.34726e-06
4.07821e-08
2.33539e-06
-3.38725e-07
2.33405e-06
-5.33136e-07
2.3201e-06
-5.23914e-07
2.33586e-06
-4.55724e-08
2.34197e-06
8.55399e-08
2.34724e-06
9.5351e-08
2.35437e-06
2.377e-07
2.35315e-06
2.04333e-07
2.35328e-06
1.83588e-07
2.34725e-06
2.06497e-07
2.34327e-06
2.23596e-07
2.46877e-07
2.34112e-06
2.46333e-06
-4.33727e-07
2.51169e-06
1.54339e-06
2.46182e-06
-2.20728e-06
2.42147e-06
-2.10294e-06
2.41353e-06
-8.52589e-07
2.46304e-06
1.27824e-06
2.45204e-06
9.40277e-08
2.45952e-06
3.3297e-08
2.4479e-06
-3.27101e-07
2.44619e-06
-5.31432e-07
2.43109e-06
-5.08811e-07
2.44444e-06
-5.89221e-08
2.44987e-06
8.01118e-08
2.4534e-06
9.18241e-08
2.45981e-06
2.31284e-07
2.45811e-06
2.06036e-07
2.45823e-06
1.83468e-07
2.4537e-06
2.11025e-07
2.45037e-06
2.26928e-07
2.47214e-07
2.45003e-06
2.5805e-06
-4.29931e-07
2.62938e-06
1.49451e-06
2.5786e-06
-2.1565e-06
2.53639e-06
-2.06073e-06
2.52333e-06
-8.39523e-07
2.5757e-06
1.22586e-06
2.5691e-06
1.00633e-07
2.5788e-06
2.36009e-08
2.56649e-06
-3.14801e-07
2.56332e-06
-5.28254e-07
2.54721e-06
-4.92704e-07
2.55876e-06
-7.04727e-08
2.56424e-06
7.46319e-08
2.5667e-06
8.93629e-08
2.57274e-06
2.25247e-07
2.57078e-06
2.0799e-07
2.57054e-06
1.83714e-07
2.56733e-06
2.14234e-07
2.56458e-06
2.29682e-07
2.46259e-07
2.56553e-06
2.70372e-06
-4.25827e-07
2.75346e-06
1.44477e-06
2.70106e-06
-2.1041e-06
2.65708e-06
-2.01675e-06
2.64088e-06
-8.23321e-07
2.69672e-06
1.17002e-06
2.69345e-06
1.039e-07
2.70444e-06
1.26152e-08
2.69104e-06
-3.01407e-07
2.68576e-06
-5.22974e-07
2.66873e-06
-4.75677e-07
2.67867e-06
-8.0404e-08
2.68453e-06
6.87678e-08
2.68645e-06
8.74397e-08
2.69239e-06
2.19312e-07
2.69055e-06
2.09825e-07
2.68985e-06
1.84421e-07
2.68781e-06
2.16272e-07
2.68571e-06
2.31779e-07
2.44459e-07
2.68751e-06
2.83307e-06
-4.21626e-07
2.88396e-06
1.39388e-06
2.82967e-06
-2.04982e-06
2.78404e-06
-1.97113e-06
2.76578e-06
-8.05058e-07
2.82517e-06
1.11064e-06
2.82447e-06
1.04592e-07
2.83596e-06
1.12827e-09
2.82145e-06
-2.86902e-07
2.81387e-06
-5.15391e-07
2.79609e-06
-4.57894e-07
2.80438e-06
-8.86909e-08
2.81063e-06
6.2509e-08
2.81237e-06
8.57005e-08
2.8184e-06
2.1329e-07
2.81709e-06
2.1113e-07
2.81601e-06
1.85504e-07
2.81498e-06
2.17297e-07
2.81367e-06
2.3309e-07
2.42164e-07
2.81597e-06
2.96864e-06
-4.17368e-07
3.02085e-06
1.34167e-06
2.96479e-06
-1.99376e-06
2.91773e-06
-1.92406e-06
2.89777e-06
-7.85101e-07
2.9604e-06
1.04801e-06
2.96179e-06
1.03207e-07
2.97314e-06
-1.0225e-08
2.95776e-06
-2.7152e-07
2.94797e-06
-5.05603e-07
2.92971e-06
-4.39631e-07
2.93631e-06
-9.52942e-08
2.9428e-06
5.60228e-08
2.94456e-06
8.39369e-08
2.95077e-06
2.07083e-07
2.95035e-06
2.11554e-07
2.94908e-06
1.86765e-07
2.94889e-06
2.17495e-07
2.94846e-06
2.33515e-07
2.39607e-07
2.95102e-06
3.11062e-06
-4.1298e-07
3.16413e-06
1.28816e-06
3.10668e-06
-1.93631e-06
3.05853e-06
-1.87591e-06
3.03677e-06
-7.6334e-07
3.10206e-06
9.82721e-07
3.10527e-06
9.9989e-08
3.11605e-06
-2.1e-08
3.10016e-06
-2.55629e-07
3.0884e-06
-4.9385e-07
3.07e-06
-4.21224e-07
3.07495e-06
-1.00249e-07
3.08146e-06
4.95182e-08
3.08337e-06
8.202e-08
3.08978e-06
2.00681e-07
3.09047e-06
2.10862e-07
3.08928e-06
1.87951e-07
3.08972e-06
2.17053e-07
3.09019e-06
2.33052e-07
2.36882e-07
3.09291e-06
3.25927e-06
-4.08343e-07
3.31394e-06
1.23348e-06
3.25553e-06
-1.87789e-06
3.20676e-06
-1.82714e-06
3.18288e-06
-7.39466e-07
3.25003e-06
9.15579e-07
3.255e-06
9.50103e-08
3.26497e-06
-3.09686e-08
3.249e-06
-2.39656e-07
3.23556e-06
-4.80409e-07
3.21732e-06
-4.02982e-07
3.22073e-06
-1.03657e-07
3.22708e-06
4.31669e-08
3.22926e-06
7.98419e-08
3.2358e-06
1.94136e-07
3.2377e-06
2.08967e-07
3.23685e-06
1.88794e-07
3.23779e-06
2.16118e-07
3.23903e-06
2.31811e-07
2.33964e-07
3.24195e-06
3.41492e-06
-4.03333e-07
3.47057e-06
1.17784e-06
3.41149e-06
-1.81881e-06
3.36263e-06
-1.77828e-06
3.33642e-06
-7.1326e-07
3.4045e-06
8.47496e-07
3.41122e-06
8.82896e-08
3.42037e-06
-4.01179e-08
3.40476e-06
-2.24044e-07
3.38989e-06
-4.6554e-07
3.37205e-06
-3.85134e-07
3.37403e-06
-1.05637e-07
3.3801e-06
3.70959e-08
3.38265e-06
7.72902e-08
3.38924e-06
1.87548e-07
3.39231e-06
2.05891e-07
3.39203e-06
1.89078e-07
3.39338e-06
2.14761e-07
3.39522e-06
2.29979e-07
2.30778e-07
3.3984e-06
3.57792e-06
-3.97845e-07
3.63441e-06
1.12136e-06
3.57473e-06
-1.75914e-06
3.52629e-06
-1.72984e-06
3.49784e-06
-6.84812e-07
3.56591e-06
7.79427e-07
3.57429e-06
7.99073e-08
3.58279e-06
-4.86109e-08
3.56795e-06
-2.0921e-07
3.55187e-06
-4.4946e-07
3.53458e-06
-3.67839e-07
3.5352e-06
-1.06265e-07
3.54087e-06
3.14266e-08
3.5439e-06
7.42612e-08
3.55042e-06
1.81035e-07
3.55454e-06
2.01763e-07
3.55495e-06
1.88676e-07
3.55676e-06
2.12943e-07
3.55901e-06
2.27735e-07
2.27282e-07
3.56251e-06
3.74866e-06
-3.918e-07
3.80593e-06
1.06409e-06
3.74548e-06
-1.69869e-06
3.69785e-06
-1.68222e-06
3.66768e-06
-6.54634e-07
3.73483e-06
7.12274e-07
3.74465e-06
7.00891e-08
3.75276e-06
-5.6721e-08
3.73906e-06
-1.95515e-07
3.72195e-06
-4.32351e-07
3.70534e-06
-3.51221e-07
3.70464e-06
-1.05571e-07
3.70975e-06
2.63187e-08
3.71332e-06
7.06941e-08
3.71964e-06
1.74715e-07
3.72462e-06
1.9678e-07
3.72577e-06
1.8752e-07
3.72814e-06
2.10575e-07
3.7307e-06
2.25175e-07
2.23524e-07
3.73446e-06
3.92753e-06
-3.8514e-07
3.9856e-06
1.00602e-06
3.92405e-06
-1.63714e-06
3.87743e-06
-1.63559e-06
3.84643e-06
-6.23638e-07
3.91191e-06
6.4679e-07
3.92278e-06
5.9221e-08
3.93081e-06
-6.47473e-08
3.91852e-06
-1.83231e-07
3.90055e-06
-4.14376e-07
3.88474e-06
-3.35407e-07
3.88274e-06
-1.03576e-07
3.88709e-06
2.19718e-08
3.89117e-06
6.66072e-08
3.89722e-06
1.68674e-07
3.90278e-06
1.91219e-07
3.90473e-06
1.85571e-07
3.90771e-06
2.07591e-07
3.91059e-06
2.22296e-07
2.19632e-07
3.91448e-06
4.11495e-06
-3.77835e-07
4.17388e-06
9.47081e-07
4.11089e-06
-1.57414e-06
4.06517e-06
-1.58988e-06
4.03451e-06
-5.92976e-07
4.0978e-06
5.83494e-07
4.10923e-06
4.77928e-08
4.11742e-06
-7.29303e-08
4.10671e-06
-1.72522e-07
4.08803e-06
-3.95695e-07
4.07316e-06
-3.20544e-07
4.06993e-06
-1.00345e-07
4.07331e-06
1.85989e-08
4.07783e-06
6.20855e-08
4.08354e-06
1.62965e-07
4.08935e-06
1.8541e-07
4.09207e-06
1.82842e-07
4.09569e-06
2.03972e-07
4.09896e-06
2.1903e-07
2.1576e-07
4.10283e-06
4.31134e-06
-3.69876e-07
4.37118e-06
8.87247e-07
4.30655e-06
-1.50951e-06
4.26137e-06
-1.5447e-06
4.2322e-06
-5.63812e-07
4.29306e-06
5.22638e-07
4.30456e-06
3.6289e-08
4.31303e-06
-8.1394e-08
4.30393e-06
-1.63431e-07
4.2847e-06
-3.76462e-07
4.27093e-06
-3.06768e-07
4.26663e-06
-9.60534e-08
4.26884e-06
1.63936e-08
4.27365e-06
5.72733e-08
4.27904e-06
1.57573e-07
4.28474e-06
1.79712e-07
4.28817e-06
1.79408e-07
4.29239e-06
1.99762e-07
4.29611e-06
2.15307e-07
2.11989e-07
4.29988e-06
4.51717e-06
-3.61274e-07
4.57787e-06
8.26545e-07
4.51165e-06
-1.44329e-06
4.46644e-06
-1.49949e-06
4.43971e-06
-5.37078e-07
4.49813e-06
4.64223e-07
4.50933e-06
2.50865e-08
4.51806e-06
-9.01276e-08
4.51053e-06
-1.55902e-07
4.49089e-06
-3.56818e-07
4.47828e-06
-2.94161e-07
4.47322e-06
-9.09928e-08
4.47412e-06
1.54963e-08
4.47903e-06
5.23657e-08
4.4842e-06
1.52395e-07
4.48945e-06
1.7447e-07
4.49341e-06
1.7544e-07
4.49817e-06
1.95009e-07
4.5024e-06
2.11076e-07
2.08321e-07
4.50607e-06
4.73289e-06
-3.52049e-07
4.79433e-06
7.65102e-07
4.72683e-06
-1.37579e-06
4.68099e-06
-1.45365e-06
4.65723e-06
-5.1332e-07
4.71336e-06
4.08091e-07
4.72407e-06
1.43813e-08
4.73295e-06
-9.9013e-08
4.72686e-06
-1.49807e-07
4.70692e-06
-3.36877e-07
4.69547e-06
-2.82715e-07
4.69003e-06
-8.55552e-08
4.68955e-06
1.59833e-08
4.69433e-06
4.75783e-08
4.69948e-06
1.47244e-07
4.704e-06
1.69957e-07
4.70823e-06
1.7121e-07
4.71351e-06
1.89731e-07
4.71825e-06
2.06335e-07
2.0468e-07
4.72189e-06
4.95898e-06
-3.42228e-07
5.02092e-06
7.03164e-07
4.95268e-06
-1.30755e-06
4.90569e-06
-1.40666e-06
4.88502e-06
-4.92647e-07
4.93905e-06
3.54065e-07
4.94928e-06
4.15222e-09
4.95813e-06
-1.07866e-07
4.95332e-06
-1.44995e-07
4.93316e-06
-3.16724e-07
4.92278e-06
-2.72327e-07
4.91739e-06
-8.01675e-08
4.91552e-06
1.78464e-08
4.91994e-06
4.3161e-08
4.92534e-06
1.41849e-07
4.92898e-06
1.66316e-07
4.93313e-06
1.67059e-07
4.93889e-06
1.8397e-07
4.94412e-06
2.01101e-07
2.00881e-07
4.94792e-06
5.19593e-06
-3.31844e-07
5.25802e-06
6.41077e-07
5.18971e-06
-1.23924e-06
5.14131e-06
-1.35826e-06
5.12347e-06
-4.74813e-07
5.17548e-06
3.02056e-07
5.18543e-06
-5.79419e-09
5.19405e-06
-1.16488e-07
5.19038e-06
-1.41322e-07
5.17008e-06
-2.96427e-07
5.16054e-06
-2.62788e-07
5.15562e-06
-7.5247e-08
5.15249e-06
2.09789e-08
5.15625e-06
3.93998e-08
5.16219e-06
1.3591e-07
5.16505e-06
1.63456e-07
5.16869e-06
1.63415e-07
5.17486e-06
1.77796e-07
5.18057e-06
1.95395e-07
1.96727e-07
5.18472e-06
5.44428e-06
-3.20939e-07
5.5061e-06
5.79262e-07
5.43836e-06
-1.1715e-06
5.38856e-06
-1.30846e-06
5.37312e-06
-4.59371e-07
5.42305e-06
2.52128e-07
5.433e-06
-1.57449e-08
5.44121e-06
-1.24696e-07
5.43855e-06
-1.38668e-07
5.41819e-06
-2.76066e-07
5.40919e-06
-2.53784e-07
5.40513e-06
-7.11904e-08
5.40091e-06
2.52038e-08
5.40375e-06
3.65582e-08
5.41039e-06
1.29269e-07
5.41288e-06
1.60966e-07
5.41559e-06
1.60703e-07
5.42197e-06
1.71413e-07
5.42818e-06
1.89185e-07
1.92056e-07
5.43286e-06
5.70459e-06
-3.09575e-07
5.76568e-06
5.18175e-07
5.69907e-06
-1.10488e-06
5.64813e-06
-1.25753e-06
5.6346e-06
-4.45836e-07
5.68224e-06
2.04478e-07
5.69248e-06
-2.59845e-08
5.70013e-06
-1.32337e-07
5.69839e-06
-1.36932e-07
5.6781e-06
-2.55772e-07
5.66925e-06
-2.44942e-07
5.66637e-06
-6.83115e-08
5.66135e-06
3.02325e-08
5.66299e-06
3.49112e-08
5.67033e-06
1.21933e-07
5.67297e-06
1.58325e-07
5.67463e-06
1.59038e-07
5.68084e-06
1.65208e-07
5.68757e-06
1.82456e-07
1.86794e-07
5.69283e-06
5.97745e-06
-2.97828e-07
6.03736e-06
4.58258e-07
5.97228e-06
-1.0398e-06
5.92064e-06
-1.20589e-06
5.9086e-06
-4.33797e-07
5.95369e-06
1.5939e-07
5.96442e-06
-3.67221e-08
5.97138e-06
-1.39297e-07
5.97047e-06
-1.36021e-07
5.95042e-06
-2.35718e-07
5.94136e-06
-2.35884e-07
5.93986e-06
-6.68074e-08
5.93443e-06
3.56617e-08
5.93463e-06
3.47047e-08
5.94247e-06
1.14097e-07
5.94575e-06
1.5504e-07
5.94656e-06
1.58229e-07
5.95215e-06
1.59621e-07
5.95932e-06
1.75281e-07
1.80911e-07
5.96521e-06
6.26344e-06
-2.85781e-07
6.3218e-06
3.99904e-07
6.25851e-06
-9.76509e-07
6.20663e-06
-1.15401e-06
6.19582e-06
-4.22988e-07
6.23807e-06
1.1714e-07
6.2494e-06
-4.80475e-08
6.25559e-06
-1.45494e-07
6.25541e-06
-1.35841e-07
6.23582e-06
-2.1612e-07
6.22621e-06
-2.26278e-07
6.22613e-06
-6.67322e-08
6.22079e-06
4.10049e-08
6.21939e-06
3.61019e-08
6.22738e-06
1.0611e-07
6.23167e-06
1.50752e-07
6.232e-06
1.57902e-07
6.23662e-06
1.54994e-07
6.24402e-06
1.67883e-07
1.74361e-07
6.25057e-06
6.56321e-06
-2.73519e-07
6.61966e-06
3.43448e-07
6.55836e-06
-9.15209e-07
6.50662e-06
-1.10227e-06
6.49693e-06
-4.13302e-07
6.53611e-06
7.79579e-08
6.54801e-06
-5.9943e-08
6.55342e-06
-1.509e-07
6.55384e-06
-1.36268e-07
6.53494e-06
-1.9722e-07
6.52454e-06
-2.15873e-07
6.5258e-06
-6.79897e-08
6.52109e-06
4.57122e-08
6.51807e-06
3.91189e-08
6.52573e-06
9.84501e-08
6.53121e-06
1.4527e-07
6.53147e-06
1.57645e-07
6.53499e-06
1.51473e-07
6.54225e-06
1.60619e-07
1.67147e-07
6.54947e-06
6.87739e-06
-2.61116e-07
6.93167e-06
2.89161e-07
6.87252e-06
-8.56051e-07
6.82116e-06
-1.05091e-06
6.81258e-06
-4.04729e-07
6.84855e-06
4.19881e-08
6.86088e-06
-7.22718e-08
6.86553e-06
-1.55546e-07
6.86643e-06
-1.37169e-07
6.84849e-06
-1.79279e-07
6.83714e-06
-2.04522e-07
6.83949e-06
-7.03472e-08
6.83598e-06
4.92252e-08
6.83141e-06
4.36928e-08
6.83824e-06
9.16167e-08
6.84491e-06
1.386e-07
6.84553e-06
1.57027e-07
6.84798e-06
1.49021e-07
6.85475e-06
1.5385e-07
1.59428e-07
6.86247e-06
7.20666e-06
-2.4864e-07
7.25855e-06
2.37269e-07
7.20172e-06
-7.99215e-07
7.15085e-06
-1.00004e-06
7.14341e-06
-3.97287e-07
7.17612e-06
9.27645e-09
7.18868e-06
-8.483e-08
7.19263e-06
-1.59499e-07
7.19386e-06
-1.38391e-07
7.17713e-06
-1.62551e-07
7.16479e-06
-1.92188e-07
7.1679e-06
-7.34577e-08
7.16613e-06
5.10019e-08
7.16035e-06
4.94701e-08
7.16579e-06
8.61769e-08
7.17335e-06
1.31041e-07
7.17467e-06
1.5571e-07
7.17616e-06
1.47523e-07
7.18206e-06
1.47953e-07
1.51266e-07
7.19022e-06
7.55175e-06
-2.36162e-07
7.60104e-06
1.8798e-07
7.54674e-06
-7.44918e-07
7.49637e-06
-9.49666e-07
7.49009e-06
-3.91012e-07
7.51956e-06
-2.01935e-08
7.53207e-06
-9.73396e-08
7.53546e-06
-1.62884e-07
7.53688e-06
-1.39816e-07
7.52159e-06
-1.47266e-07
7.50837e-06
-1.78963e-07
7.51173e-06
-7.68218e-08
7.51207e-06
5.06648e-08
7.50573e-06
5.58069e-08
7.50942e-06
8.24952e-08
7.51735e-06
1.23104e-07
7.51967e-06
1.53395e-07
7.52007e-06
1.47118e-07
7.52463e-06
1.43395e-07
1.4272e-07
7.53318e-06
7.91341e-06
-2.23762e-07
7.9599e-06
1.41487e-07
7.9084e-06
-6.93415e-07
7.8584e-06
-8.9966e-07
7.85331e-06
-3.85925e-07
7.87968e-06
-4.65611e-08
7.89182e-06
-1.09483e-07
7.89471e-06
-1.65779e-07
7.89625e-06
-1.41347e-07
7.88259e-06
-1.33607e-07
7.86865e-06
-1.65024e-07
7.87184e-06
-8.00121e-08
7.87448e-06
4.80184e-08
7.86839e-06
6.19013e-08
7.87029e-06
8.05949e-08
7.87805e-06
1.15343e-07
7.88144e-06
1.50006e-07
7.88047e-06
1.48088e-07
7.88237e-06
1.41491e-07
1.33601e-07
7.89149e-06
8.29245e-06
-2.11529e-07
8.33594e-06
9.79948e-08
8.28754e-06
-6.45019e-07
8.23774e-06
-8.49853e-07
8.2338e-06
-3.81986e-07
8.25727e-06
-7.00287e-08
8.2687e-06
-1.20915e-07
8.2712e-06
-1.68282e-07
8.27279e-06
-1.42932e-07
8.2609e-06
-1.21726e-07
8.2465e-06
-1.50623e-07
8.24884e-06
-8.2354e-08
8.25391e-06
4.29555e-08
8.24911e-06
6.66948e-08
8.24959e-06
8.01213e-08
8.25829e-06
1.06644e-07
8.26648e-06
1.41811e-07
8.27217e-06
1.42405e-07
8.2788e-06
1.34861e-07
1.27216e-07
8.28518e-06
8.68971e-06
-1.99574e-07
8.72999e-06
5.77107e-08
8.68499e-06
-6.00024e-07
8.63527e-06
-8.00131e-07
8.63237e-06
-3.79084e-07
8.65319e-06
-9.08426e-08
8.66361e-06
-1.31337e-07
8.66568e-06
-1.70355e-07
8.66729e-06
-1.44545e-07
8.65723e-06
-1.11659e-07
8.64285e-06
-1.36248e-07
8.64378e-06
-8.32844e-08
8.65091e-06
3.58282e-08
8.64923e-06
6.83776e-08
8.65229e-06
7.70625e-08
8.66663e-06
9.23018e-08
8.68025e-06
1.28192e-07
8.68624e-06
1.36409e-07
8.68705e-06
1.34055e-07
1.26184e-07
8.68808e-06
9.10605e-06
-1.88004e-07
9.14291e-06
2.0854e-08
9.10162e-06
-5.58742e-07
9.05206e-06
-7.50564e-07
9.04977e-06
-3.76795e-07
9.06831e-06
-1.09388e-07
9.07746e-06
-1.40486e-07
9.07906e-06
-1.71952e-07
9.08067e-06
-1.46159e-07
9.07251e-06
-1.03498e-07
9.05841e-06
-1.22142e-07
9.05789e-06
-8.27659e-08
9.06649e-06
2.7225e-08
9.06725e-06
6.76186e-08
9.06936e-06
7.49575e-08
9.08119e-06
8.04676e-08
9.09502e-06
1.14359e-07
9.10318e-06
1.28256e-07
9.10558e-06
1.31651e-07
1.26695e-07
9.10507e-06
9.54241e-06
-1.76953e-07
9.57565e-06
-1.23836e-08
9.53828e-06
-5.21376e-07
9.48898e-06
-7.01262e-07
9.48674e-06
-3.74558e-07
9.50356e-06
-1.26205e-07
9.51128e-06
-1.48209e-07
9.51228e-06
-1.72953e-07
9.51368e-06
-1.47558e-07
9.50739e-06
-9.7205e-08
9.49415e-06
-1.089e-07
9.49268e-06
-8.13021e-08
9.50207e-06
1.78375e-08
9.50307e-06
6.66162e-08
9.49796e-06
8.00651e-08
9.49801e-06
8.04203e-08
9.50299e-06
1.09376e-07
9.50452e-06
1.26735e-07
9.50548e-06
1.30689e-07
1.17857e-07
9.51432e-06
9.99973e-06
-1.6655e-07
1.00291e-05
-4.1741e-08
9.99592e-06
-4.88203e-07
9.947e-06
-6.52345e-07
9.94424e-06
-3.71803e-07
9.95971e-06
-1.41669e-07
9.96614e-06
-1.54637e-07
9.96632e-06
-1.73138e-07
9.96742e-06
-1.4866e-07
9.96298e-06
-9.27624e-08
9.95059e-06
-9.65058e-08
9.94693e-06
-7.76517e-08
9.95552e-06
9.25655e-09
9.96113e-06
6.10017e-08
9.96342e-06
7.77705e-08
9.97175e-06
7.20976e-08
9.98705e-06
9.40705e-08
9.99929e-06
1.14496e-07
1.00039e-05
1.26034e-07
1.22724e-07
9.99908e-06
1.0479e-05
-1.5691e-07
1.05044e-05
-6.70973e-08
1.04753e-05
-4.59196e-07
1.04273e-05
-6.04291e-07
1.04233e-05
-3.6783e-07
1.04378e-05
-1.56186e-07
1.04431e-05
-1.59857e-07
1.04422e-05
-1.72293e-07
1.04427e-05
-1.49157e-07
1.04398e-05
-8.9851e-08
1.04288e-05
-8.55292e-08
1.04244e-05
-7.3223e-08
1.0432e-05
1.68828e-09
1.04357e-05
5.72698e-08
1.04323e-05
8.11611e-08
1.04299e-05
7.45236e-08
1.04343e-05
8.96326e-08
1.04404e-05
1.08397e-07
1.04428e-05
1.23685e-07
1.168e-07
1.04487e-05
1.09812e-05
-1.48141e-07
1.10024e-05
-8.82958e-08
1.09775e-05
-4.34266e-07
1.0931e-05
-5.57755e-07
1.09253e-05
-3.62148e-07
1.09387e-05
-1.69633e-07
1.0943e-05
-1.64149e-07
1.09411e-05
-1.7035e-07
1.09409e-05
-1.4893e-07
1.0939e-05
-8.79495e-08
1.09291e-05
-7.56339e-08
1.0923e-05
-6.71052e-08
1.09286e-05
-4.00475e-09
1.09332e-05
5.26811e-08
1.0932e-05
8.23706e-08
1.09303e-05
7.62888e-08
1.09335e-05
8.63971e-08
1.09416e-05
1.00321e-07
1.09478e-05
1.17457e-07
1.13697e-07
1.09509e-05
1.15075e-05
-1.40309e-07
1.15245e-05
-1.05304e-07
1.15033e-05
-4.13029e-07
1.14591e-05
-5.13598e-07
1.14514e-05
-3.54371e-07
1.14634e-05
-1.8169e-07
1.14673e-05
-1.67979e-07
1.14643e-05
-1.6735e-07
1.14628e-05
-1.47493e-07
1.14612e-05
-8.63747e-08
1.14528e-05
-6.72132e-08
1.14458e-05
-6.0091e-08
1.14499e-05
-8.09191e-09
1.14555e-05
4.70326e-08
1.1456e-05
8.19471e-08
1.14551e-05
7.7134e-08
1.14577e-05
8.38454e-08
1.14655e-05
9.24805e-08
1.14729e-05
1.10067e-07
1.10554e-07
1.1476e-05
1.20589e-05
-1.33435e-07
1.2072e-05
-1.18333e-07
1.20536e-05
-3.94628e-07
1.20128e-05
-4.72869e-07
1.20027e-05
-3.44263e-07
1.2013e-05
-1.91966e-07
1.20167e-05
-1.7164e-07
1.20128e-05
-1.63521e-07
1.20102e-05
-1.44803e-07
1.20089e-05
-8.5081e-08
1.20018e-05
-6.01648e-08
1.19945e-05
-5.2739e-08
1.19967e-05
-1.03233e-08
1.20032e-05
4.05389e-08
1.20053e-05
7.98671e-08
1.20051e-05
7.7285e-08
1.20072e-05
8.17539e-08
1.20135e-05
8.61931e-08
1.20213e-05
1.02211e-07
1.0592e-07
1.2026e-05
1.26367e-05
-1.27506e-07
1.2646e-05
-1.27623e-07
1.26297e-05
-3.78378e-07
1.25931e-05
-4.36264e-07
1.25808e-05
-3.31991e-07
1.25887e-05
-1.99864e-07
1.25924e-05
-1.75359e-07
1.25883e-05
-1.59399e-07
1.25843e-05
-1.40744e-07
1.25827e-05
-8.35113e-08
1.25771e-05
-5.45448e-08
1.25701e-05
-4.5798e-08
1.25706e-05
-1.08086e-08
1.25771e-05
3.40523e-08
1.25806e-05
7.64079e-08
1.25811e-05
7.67487e-08
1.25829e-05
7.9909e-08
1.2588e-05
8.11261e-08
1.25954e-05
9.47941e-08
9.97686e-08
1.26016e-05
1.32419e-05
-1.22462e-07
1.32478e-05
-1.33563e-07
1.32331e-05
-3.63618e-07
1.32008e-05
-4.03979e-07
1.3187e-05
-3.18207e-07
1.3192e-05
-2.0484e-07
1.31957e-05
-1.79056e-07
1.31918e-05
-1.55569e-07
1.31866e-05
-1.35511e-07
1.31844e-05
-8.12821e-08
1.31799e-05
-5.00149e-08
1.31735e-05
-3.94767e-08
1.31727e-05
-9.95703e-09
1.31786e-05
2.81608e-08
1.31833e-05
7.1715e-08
1.31846e-05
7.53989e-08
1.31863e-05
7.82267e-08
1.31906e-05
7.6818e-08
1.31971e-05
8.83185e-08
9.31464e-08
1.32037e-05
1.38759e-05
-1.18206e-07
1.38789e-05
-1.36582e-07
1.3865e-05
-3.49695e-07
1.38369e-05
-3.75887e-07
1.38226e-05
-3.03877e-07
1.38243e-05
-2.06563e-07
1.38275e-05
-1.82282e-07
1.38246e-05
-1.52611e-07
1.38186e-05
-1.29565e-07
1.38154e-05
-7.80074e-08
1.38113e-05
-4.59278e-08
1.38059e-05
-3.41042e-08
1.38043e-05
-8.38953e-09
1.38094e-05
2.3102e-08
1.38148e-05
6.63089e-08
1.38169e-05
7.32816e-08
1.38184e-05
7.66972e-08
1.38221e-05
7.31097e-08
1.38281e-05
8.24111e-08
8.69329e-08
1.38343e-05
1.454e-05
-1.14566e-07
1.45407e-05
-1.3723e-07
1.4527e-05
-3.36045e-07
1.45027e-05
-3.51587e-07
1.44887e-05
-2.89845e-07
1.44872e-05
-2.05116e-07
1.44894e-05
-1.84402e-07
1.44876e-05
-1.50808e-07
1.44817e-05
-1.23698e-07
1.44773e-05
-7.36577e-08
1.44731e-05
-4.17258e-08
1.44686e-05
-2.959e-08
1.44667e-05
-6.43181e-09
1.44707e-05
1.90826e-08
1.44765e-05
6.05063e-08
1.44794e-05
7.03342e-08
1.44812e-05
7.49783e-08
1.44841e-05
7.01825e-08
1.44897e-05
7.68092e-08
8.12649e-08
1.44954e-05
1.52356e-05
-1.11316e-07
1.52346e-05
-1.36205e-07
1.52206e-05
-3.21998e-07
1.51998e-05
-3.30793e-07
1.51866e-05
-2.76671e-07
1.51824e-05
-2.00905e-07
1.51826e-05
-1.84659e-07
1.51819e-05
-1.50032e-07
1.51769e-05
-1.18707e-07
1.51718e-05
-6.85686e-08
1.51671e-05
-3.69991e-08
1.5163e-05
-2.55793e-08
1.5161e-05
-4.4079e-09
1.51642e-05
1.59466e-08
1.51701e-05
5.45863e-08
1.51737e-05
6.6732e-08
1.51758e-05
7.28424e-08
1.5178e-05
6.80337e-08
1.51829e-05
7.18569e-08
7.568e-08
1.51885e-05
1.59642e-05
-1.08186e-07
1.59622e-05
-1.34251e-07
1.59473e-05
-3.07014e-07
1.59293e-05
-3.1286e-07
1.59173e-05
-2.64635e-07
1.5911e-05
-1.94603e-07
1.5909e-05
-1.82659e-07
1.59085e-05
-1.49493e-07
1.5905e-05
-1.15277e-07
1.59001e-05
-6.36181e-08
1.58947e-05
-3.16009e-08
1.58908e-05
-2.17278e-08
1.58889e-05
-2.4729e-09
1.58912e-05
1.36708e-08
1.58969e-05
4.88592e-08
1.5901e-05
6.26611e-08
1.59036e-05
7.01974e-08
1.59056e-05
6.60849e-08
1.59094e-05
6.7996e-08
6.98541e-08
1.59152e-05
1.67274e-05
-1.04966e-07
1.67249e-05
-1.31808e-07
1.6709e-05
-2.91081e-07
1.66928e-05
-2.96616e-07
1.6682e-05
-2.53883e-07
1.66742e-05
-1.86827e-07
1.66698e-05
-1.78234e-07
1.66684e-05
-1.48116e-07
1.66669e-05
-1.13793e-07
1.66634e-05
-6.00245e-08
1.66576e-05
-2.58627e-08
1.66536e-05
-1.76629e-08
1.66518e-05
-6.77679e-10
1.66533e-05
1.21501e-08
1.66586e-05
4.35418e-08
1.6663e-05
5.82069e-08
1.66662e-05
6.70878e-08
1.66685e-05
6.37855e-08
1.66711e-05
6.53323e-08
6.43776e-08
1.66766e-05
1.75269e-05
-1.01482e-07
1.75242e-05
-1.29083e-07
1.75076e-05
-2.7451e-07
1.74918e-05
-2.80866e-07
1.74822e-05
-2.44206e-07
1.74736e-05
-1.78238e-07
1.74668e-05
-1.71488e-07
1.74636e-05
-1.44934e-07
1.74637e-05
-1.13811e-07
1.74627e-05
-5.90385e-08
1.74576e-05
-2.07623e-08
1.74531e-05
-1.31667e-08
1.74513e-05
1.14278e-09
1.74522e-05
1.11985e-08
1.7457e-05
3.87739e-08
1.74616e-05
5.35981e-08
1.74649e-05
6.37366e-08
1.74677e-05
6.09672e-08
1.74699e-05
6.31817e-08
5.98975e-08
1.74744e-05
1.83645e-05
-9.76042e-08
1.83616e-05
-1.26213e-07
1.83446e-05
-2.57506e-07
1.83286e-05
-2.64836e-07
1.83199e-05
-2.35508e-07
1.83117e-05
-1.70059e-07
1.83033e-05
-1.63099e-07
1.82977e-05
-1.39311e-07
1.82971e-05
-1.13245e-07
1.82989e-05
-6.08468e-08
1.82958e-05
-1.76779e-08
1.82912e-05
-8.5355e-09
1.82891e-05
3.23005e-09
1.82896e-05
1.07606e-08
1.82937e-05
3.46231e-08
1.82985e-05
4.88216e-08
1.83018e-05
6.03922e-08
1.83051e-05
5.76913e-08
1.83075e-05
6.08042e-08