/*--------------------------------*- C++ -*----------------------------------*\
| =========                 |                                                 |
| \\      /  F ield         | OpenFOAM: The Open Source CFD Toolbox           |
|  \\    /   O peration     | Version:  v1912                                 |
|   \\  /    A nd           | Website:  www.openfoam.com                      |
|    \\/     M anipulation  |                                                 |
\*---------------------------------------------------------------------------*/
FoamFile
{
    version     2.0;
    format      ascii;
    class       volScalarField;
    location    "0.6";
    object      p;
}
// * * * * * * * * * * * * * * * * * * * * * * * * * * * * * * * * * * * * * //

dimensions      [0 2 -2 0 0 0 0];


internalField   nonuniform List<scalar> 
9600
(
-6.38614e-11
0.00214369
0.00227761
0.00242248
-0.000205873
0.00270492
0.00237009
0.00227676
0.00324972
0.00347316
0.00269827
0.00252718
0.00218493
0.0021556
0.00103882
0.000889285
-0.00144481
0.00143707
0.00186321
0.00417361
-2.66655e-07
0.00215183
0.00227551
0.00239699
-0.00019242
0.00270568
0.0023607
0.00228241
0.00323887
0.00342445
0.0026967
0.00252164
0.00220852
0.00213882
0.00106455
0.000847866
-0.00127971
0.00139853
0.00189202
0.00398259
6.77733e-07
0.00215931
0.00226864
0.00237878
-0.000176568
0.00270149
0.00235878
0.00228947
0.00322675
0.00342016
0.00269664
0.00251367
0.00222704
0.00210962
0.00108785
0.000812875
-0.0011282
0.00134254
0.00191271
0.00375622
3.44405e-06
0.00216355
0.00226112
0.00236671
-0.000156677
0.00269409
0.00235663
0.00229531
0.00321098
0.00341957
0.00269546
0.00250129
0.00224256
0.0020707
0.00111469
0.000780178
-0.000982786
0.00128499
0.00191393
0.00353377
8.59735e-06
0.00216501
0.00225396
0.00235986
-0.000130468
0.00268334
0.00235701
0.00229903
0.00319105
0.00342034
0.00269227
0.00248657
0.00225743
0.00202676
0.00114864
0.000746543
-0.000828486
0.00123055
0.001892
0.00332861
1.64726e-05
0.00216444
0.00224745
0.00235767
-9.75627e-05
0.00267007
0.00235985
0.00230055
0.00316804
0.00342086
0.00268774
0.00247057
0.0022718
0.00198233
0.00118767
0.000713435
-0.00067517
0.00117818
0.00185286
0.00314668
2.68947e-05
0.00216265
0.0022423
0.00235854
-5.88497e-05
0.00265527
0.00236499
0.00230086
0.00314312
0.00342016
0.00268271
0.00245325
0.00228618
0.0019394
0.00123015
0.000682745
-0.000528992
0.00113267
0.00180209
0.00297931
3.93526e-05
0.00216062
0.00223892
0.00236082
-1.55436e-05
0.00263978
0.00237231
0.00230095
0.00311697
0.00341794
0.00267785
0.00243466
0.00230092
0.00189857
0.00127529
0.000654879
-0.000390173
0.00109919
0.0017383
0.00281957
5.33163e-05
0.00215908
0.00223715
0.00236343
3.13473e-05
0.00262401
0.00238149
0.00230127
0.0030901
0.00341423
0.00267363
0.00241482
0.00231606
0.00186014
0.00132171
0.000630844
-0.000258914
0.00107893
0.00165916
0.00266697
6.83772e-05
0.00215826
0.00223657
0.00236575
8.1134e-05
0.00260805
0.0023921
0.00230196
0.00306297
0.00340904
0.00267029
0.0023937
0.00233164
0.00182432
0.00136785
0.00061238
-0.000136828
0.00107138
0.00156693
0.00252182
8.42729e-05
0.00215808
0.00223674
0.00236744
0.000133401
0.00259189
0.00240373
0.00230287
0.00303594
0.0034023
0.00266798
0.00237138
0.00234758
0.00179135
0.00141244
0.000600839
-2.58789e-05
0.00107637
0.0014652
0.00238082
0.000100864
0.00215836
0.00223738
0.00236825
0.000187924
0.00257554
0.00241602
0.00230376
0.00300936
0.00339398
0.00266675
0.00234802
0.0023636
0.00176158
0.00145442
0.00059722
7.23657e-05
0.00109307
0.00135697
0.00223904
0.000118094
0.00215897
0.00223832
0.00236801
0.000244601
0.00255899
0.00242871
0.0023044
0.00298349
0.00338405
0.00266655
0.00232384
0.00237929
0.00173556
0.00149282
0.000602139
0.000156698
0.00111916
0.00124536
0.00209243
0.00013596
0.0021598
0.00223952
0.00236661
0.000303393
0.00254225
0.00244165
0.00230462
0.00295851
0.00337258
0.00266726
0.00229914
0.0023941
0.00171397
0.00152678
0.000615781
0.000226524
0.0011512
0.00113431
0.00193846
0.000154486
0.00216077
0.00224099
0.00236397
0.000364308
0.0025253
0.00245477
0.00230428
0.00293452
0.00335969
0.00266863
0.0022743
0.00240743
0.00169735
0.00155535
0.000638051
0.000282075
0.00118502
0.00102817
0.00177599
0.000173716
0.00216184
0.00224277
0.00236009
0.000427368
0.0025081
0.00246805
0.00230331
0.00291156
0.00334553
0.00267026
0.00224977
0.00241876
0.00168599
0.00157722
0.000668496
0.000324665
0.00121625
0.000931143
0.0016053
0.000193702
0.00216295
0.00224494
0.00235497
0.000492579
0.00249062
0.00248149
0.00230166
0.00288951
0.0033303
0.00267168
0.00222592
0.00242767
0.0016801
0.00158632
0.000705961
0.000356883
0.00124126
0.00084674
0.0014279
0.000214507
0.00216405
0.00224758
0.0023486
0.000559917
0.00247284
0.00249506
0.00229938
0.00286807
0.00331435
0.00267255
0.00220298
0.00243382
0.00167969
0.0015969
0.000748889
0.000381357
0.0012573
0.000777463
0.0012465
0.000236196
0.00216508
0.00225075
0.00234099
0.000629339
0.00245477
0.00250869
0.00229658
0.00284688
0.00329256
0.00267262
0.00218109
0.00243701
0.00168439
0.00160304
0.000795564
0.000399718
0.00126247
0.000724652
0.00106454
0.000258847
0.00216596
0.00225453
0.00233209
0.000700772
0.00243647
0.00252227
0.00229349
0.00282554
0.00327731
0.00267173
0.00216035
0.00243731
0.00169365
0.00160489
0.000844299
0.000413121
0.00125611
0.00068867
0.000886003
0.000282544
0.00216661
0.002259
0.00232187
0.000774094
0.00241807
0.00253566
0.0022904
0.00280354
0.00326289
0.00266995
0.00214054
0.00243512
0.00170675
0.0016029
0.000893863
0.000422604
0.00123807
0.000668909
0.000715627
0.000307382
0.00216694
0.00226421
0.0023103
0.000849162
0.00239978
0.00254861
0.00228775
0.00278037
0.00324966
0.00266755
0.00212121
0.00243097
0.00172304
0.00159731
0.000943229
0.000429299
0.00120785
0.000663632
0.000558687
0.000333462
0.00216685
0.0022702
0.00229742
0.000925792
0.00238186
0.00256078
0.0022861
0.00275564
0.00323746
0.00266509
0.00210186
0.00242522
0.00174221
0.00158833
0.000991317
0.000434419
0.00116493
0.000670129
0.000420752
0.000360892
0.00216621
0.00227703
0.00228328
0.00100375
0.00236464
0.00257171
0.00228605
0.00272908
0.00322611
0.00266337
0.00208194
0.00241804
0.00176431
0.0015756
0.00103906
0.000440167
0.00110922
0.00068496
0.000307483
0.000389784
0.00216492
0.00228471
0.00226796
0.00108276
0.00234861
0.0025808
0.00228808
0.00270073
0.00321482
0.00266321
0.00206094
0.0024093
0.00178973
0.00155867
0.00108419
0.000450288
0.00104181
0.000703656
0.00022371
0.000420259
0.00216284
0.00229322
0.00225163
0.00116242
0.00233435
0.00258757
0.00229256
0.00267078
0.00320267
0.0026655
0.00203863
0.0023984
0.00181904
0.00153763
0.0011245
0.000468534
0.00096517
0.000720382
0.000172693
0.000452436
0.00215981
0.00230252
0.0022345
0.00124226
0.00232249
0.00259162
0.00229972
0.00263968
0.00318866
0.002671
0.00201516
0.00238443
0.00185299
0.00151343
0.00115728
0.00049747
0.000883167
0.000728158
0.000154728
0.000486416
0.00215558
0.00231255
0.00221686
0.0013217
0.00231364
0.00259256
0.00230958
0.00260824
0.00317138
0.00268009
0.00199096
0.00236622
0.00189203
0.00148775
0.00117938
0.000537741
0.000801672
0.00072059
0.000165109
0.000522309
0.00213867
0.00232319
0.00219906
0.00140016
0.00230838
0.00259028
0.00232183
0.00257733
0.00314998
0.00269289
0.00196692
0.00234231
0.00193574
0.00146311
0.00118839
0.000587271
0.000728138
0.00069502
0.000194508
0.00056028
0.00213251
0.0023342
0.00218148
0.0014771
0.00230717
0.00258502
0.00233595
0.00254772
0.00312416
0.00270922
0.00194419
0.0023114
0.00198312
0.00144254
0.00118323
0.00064241
0.000670042
0.000654257
0.000229699
0.000600437
0.00212568
0.00234529
0.00216446
0.00155209
0.00231033
0.00257716
0.00235121
0.00252009
0.00309394
0.00272867
0.00192403
0.00227243
0.00203254
0.0014293
0.00116417
0.000698975
0.000632845
0.000605338
0.000257898
0.000642833
0.00211815
0.00235617
0.00214836
0.00162477
0.00231792
0.00256727
0.00236697
0.00249502
0.00305932
0.00275054
0.00190802
0.00222442
0.00208174
0.00142699
0.00113307
0.000751442
0.000618407
0.000556127
0.000272674
0.000687502
0.00211011
0.00236653
0.00213345
0.00169489
0.0023297
0.00255633
0.0023829
0.00247283
0.00302024
0.00277378
0.00189788
0.00216715
0.00212784
0.00143888
0.00109322
0.000793691
0.000625387
0.000514796
0.000274867
0.000734489
0.0021018
0.00237602
0.00211985
0.00176237
0.00234521
0.00254517
0.00239894
0.00245362
0.0029768
0.00279717
0.00189534
0.00210138
0.00216705
0.00146709
0.00104853
0.000820629
0.000650326
0.00048874
0.000269474
0.000783808
0.00209348
0.00238428
0.00210759
0.00182729
0.00236411
0.00253408
0.00241523
0.00243768
0.00292915
0.00281933
0.00190199
0.00202841
0.00219524
0.00151249
0.00100437
0.000828778
0.000688314
0.000483682
0.000263188
0.000835399
0.00208553
0.00239108
0.0020966
0.00188985
0.00238621
0.00252329
0.00243185
0.00242563
0.00287719
0.00283844
0.00191938
0.00195053
0.00220815
0.00157396
0.000968156
0.000817163
0.000732029
0.000502815
0.000263588
0.000889129
0.00207838
0.00239641
0.00208653
0.00195004
0.00241158
0.00251261
0.00244881
0.00241843
0.00282119
0.00285226
0.00194859
0.00187125
0.00220176
0.00164898
0.000949248
0.000788373
0.000771665
0.000545047
0.000279254
0.000944852
0.0020724
0.00240039
0.00207698
0.00200755
0.00244046
0.00250182
0.0024659
0.00241738
0.00276165
0.00285804
0.00198951
0.00179495
0.00217373
0.00173441
0.000956254
0.000749068
0.000797348
0.000604273
0.000318119
0.00100235
0.00206794
0.0024033
0.00206786
0.00206185
0.00247327
0.00249106
0.00248225
0.00242373
0.00269986
0.00285286
0.00204083
0.00172709
0.002124
0.00181854
0.000993673
0.000707485
0.000803221
0.000671551
0.000383075
0.00106134
0.00206531
0.0024057
0.0020588
0.00211218
0.00251054
0.00248084
0.00249605
0.00243845
0.00263862
0.00283418
0.00209995
0.00167361
0.00205503
0.00189135
0.00106102
0.000673523
0.000789056
0.000736106
0.000468613
0.00112155
0.00206478
0.0024083
0.00204938
0.00215731
0.00255253
0.00247248
0.0025052
0.00246159
0.00258208
0.00280113
0.00216236
0.00163933
0.00197186
0.00194474
0.00115363
0.00065781
0.000758632
0.000788667
0.000565173
0.00118274
0.00206655
0.00241177
0.00203944
0.00219588
0.00259897
0.00246783
0.00250822
0.0024918
0.00253464
0.00275426
0.00222196
0.00162711
0.00188218
0.00197293
0.00126421
0.000670444
0.000719011
0.000823774
0.000662893
0.0012447
0.00207071
0.00241664
0.00202984
0.00222674
0.00264899
0.00246906
0.00250446
0.00252566
0.00249965
0.00269658
0.00227263
0.00163739
0.00179449
0.0019737
0.00138186
0.000717939
0.00068002
0.000839405
0.000754073
0.00130723
0.0020772
0.00242336
0.00202172
0.00224893
0.00270083
0.0024784
0.00249411
0.00255938
0.0024794
0.0026336
0.00230991
0.00166747
0.00171724
0.0019502
0.0014938
0.0007994
0.000653286
0.000836491
0.000836574
0.00137023
0.0020858
0.00243226
0.00201653
0.00226189
0.00275187
0.00249753
0.00247865
0.00258933
0.0024747
0.00257056
0.002332
0.0017124
0.00165591
0.00190803
0.00158991
0.000908477
0.000650751
0.000817925
0.000908668
0.0014337
0.00209619
0.00244334
0.00201593
0.00226577
0.00279898
0.00252707
0.00246112
0.00261266
0.00248456
0.0025128
0.00233911
0.00176646
0.00161246
0.00185375
0.00166299
0.00103596
0.00068351
0.00079149
0.00096099
0.00149766
0.00210808
0.00245645
0.0020212
0.00226158
0.00283902
0.00256625
0.00244509
0.00262804
0.00250686
0.00246488
0.00233298
0.00182357
0.00159386
0.00179574
0.0017102
0.00116857
0.000756729
0.000774114
0.000983094
0.00156217
0.00212124
0.00247117
0.00203342
0.00225104
0.00286914
0.00261316
0.00243377
0.00263546
0.00253814
0.00243043
0.0023162
0.00187946
0.00159845
0.0017426
0.00173486
0.00129172
0.000860649
0.000787367
0.00098219
0.00162729
0.00213554
0.00248675
0.00205358
0.00223672
0.00288694
0.00266468
0.00243017
0.00263625
0.00257475
0.00241142
0.00229371
0.00192754
0.0016224
0.00170171
0.00174409
0.00139752
0.000979413
0.000841891
0.000983467
0.00169303
0.00215108
0.00250225
0.00208196
0.00222166
0.00289094
0.002719
0.00243572
0.00263248
0.00261275
0.00240861
0.00227067
0.00196569
0.00166068
0.00167803
0.00174388
0.00148711
0.00109902
0.000925289
0.00101097
0.00175931
0.00216807
0.00251697
0.00211863
0.00220866
0.00288123
0.00276901
0.00245081
0.00262578
0.00265144
0.00242268
0.00225106
0.00199374
0.00170836
0.00167455
0.00173993
0.00156226
0.00121535
0.00102208
0.00107038
0.00182598
0.00218682
0.00253045
0.0021627
0.00220028
0.00285942
0.0028129
0.00247355
0.00261743
0.00268913
0.0024537
0.00223936
0.00201234
0.00175963
0.00169222
0.00174009
0.001623
0.00132906
0.00112362
0.00114724
0.00189281
0.00220775
0.00254248
0.00221216
0.00219859
0.00282848
0.00284826
0.00250143
0.00260858
0.00272384
0.00249975
0.00224168
0.00202464
0.00180793
0.00172691
0.00175382
0.00167334
0.00143658
0.00123176
0.00123032
0.00195956
0.00223117
0.00255309
0.00226456
0.00220502
0.00279225
0.00287382
0.00253228
0.00259948
0.00275409
0.00255844
0.00226183
0.00203597
0.00184918
0.00177203
0.00178694
0.00172189
0.00153238
0.00134754
0.00131905
0.00202602
0.00225729
0.00256254
0.00231778
0.00222025
0.00275433
0.00288925
0.00256521
0.00259019
0.00277696
0.00262731
0.00230168
0.00205139
0.00188423
0.00182056
0.00183657
0.00178146
0.00161833
0.001463
0.00142046
0.0020919
0.00228627
0.00257131
0.0023701
0.00224398
0.00271829
0.00289535
0.00259885
0.00258144
0.00278917
0.00270115
0.00236391
0.00207631
0.00191525
0.00186794
0.00189463
0.00186026
0.00170641
0.00156841
0.00153267
0.00215692
0.00231809
0.00258008
0.00242024
0.00227493
0.00268664
0.00289427
0.00263225
0.00257425
0.00279032
0.00277134
0.00244649
0.00211889
0.00194554
0.00191271
0.00195506
0.00195111
0.00181317
0.00166873
0.00164311
0.00222078
0.00235263
0.00258972
0.00246708
0.0023113
0.00266073
0.00288863
0.0026659
0.0025697
0.00278049
0.00283254
0.00254431
0.00218543
0.0019816
0.00195337
0.00201449
0.00204447
0.00194151
0.00178115
0.00174533
0.00228326
0.00238958
0.00260101
0.0025104
0.0023513
0.00264107
0.00288029
0.00270048
0.00257099
0.00276055
0.00288003
0.00265136
0.00227472
0.00203118
0.00199289
0.00207049
0.0021338
0.00207866
0.00192119
0.00184913
0.00234422
0.00242847
0.00261439
0.0025497
0.00239342
0.00262743
0.00287058
0.0027359
0.00258177
0.00273399
0.0029068
0.00276066
0.00238754
0.00209884
0.00203482
0.00212219
0.0022151
0.002212
0.00208529
0.00197667
0.00240355
0.00246881
0.00263002
0.00258749
0.00243689
0.00261937
0.00286022
0.00277193
0.00260351
0.00270749
0.00291224
0.00285854
0.00252124
0.00219192
0.00208272
0.00216951
0.0022891
0.00233105
0.0022577
0.00214032
0.00246117
0.00251007
0.00264776
0.00262487
0.00248143
0.0026167
0.00284908
0.00280762
0.00263746
0.00268784
0.00290051
0.00293392
0.00266502
0.00231764
0.00214711
0.0022109
0.00235564
0.00243539
0.0024201
0.00232902
0.00251703
0.00255183
0.00266718
0.00266122
0.00252708
0.00261941
0.0028376
0.00284032
0.00268263
0.00268172
0.00287607
0.00298362
0.00280197
0.00246887
0.00224368
0.00225316
0.00241024
0.00252886
0.00256314
0.00252497
0.00257097
0.00259378
0.00268786
0.00269596
0.00257397
0.00262783
0.0028265
0.00286798
0.00273604
0.00269475
0.00284843
0.00300669
0.0029217
0.00263344
0.00237634
0.00231452
0.00245285
0.0026112
0.00268949
0.00270884
0.0026227
0.00263565
0.00270949
0.00272878
0.00262204
0.00264258
0.00281624
0.00288984
0.00279209
0.00272623
0.00283165
0.00300724
0.00301447
0.00279642
0.00253638
0.00241236
0.00249593
0.00267855
0.00280433
0.00287425
0.00267193
0.00267728
0.00273197
0.00275925
0.00267061
0.00266409
0.00280786
0.00290539
0.00284643
0.00277254
0.00283405
0.00299664
0.00307477
0.00294466
0.00271223
0.00255011
0.00256226
0.00273411
0.00290736
0.00302397
0.0027183
0.00271835
0.00275542
0.00278707
0.00271813
0.00269222
0.00280353
0.00291489
0.00289603
0.00282818
0.0028552
0.00299203
0.00310901
0.00306557
0.00288762
0.00271829
0.00267084
0.00279427
0.00299608
0.00316082
0.00276153
0.00275842
0.00278012
0.00281208
0.00276322
0.00272633
0.00280576
0.00291955
0.00293795
0.00288767
0.00289141
0.00300055
0.00312994
0.00315729
0.00304819
0.00290156
0.00282375
0.00288386
0.00307743
0.0032843
0.00280142
0.00279693
0.00280612
0.00283457
0.00280445
0.0027658
0.00281599
0.00292173
0.00297
0.00294631
0.00293947
0.00302233
0.00315038
0.0032268
0.00318773
0.00308073
0.00300606
0.00302085
0.0031717
0.00339739
0.0028379
0.00283336
0.00283319
0.00285549
0.00284081
0.00280671
0.00283388
0.00292499
0.00299292
0.00299838
0.00299467
0.00305712
0.00317429
0.00328121
0.00330898
0.00324915
0.00319662
0.0032002
0.00330382
0.00351549
0.00287099
0.002867
0.00286088
0.0028757
0.00287208
0.00284675
0.00285808
0.00293161
0.00300901
0.00304058
0.00304895
0.00310213
0.00320576
0.00332427
0.00341159
0.00341032
0.0033838
0.0034035
0.00348422
0.00366376
0.00290076
0.00289738
0.00288824
0.00289588
0.0028985
0.0028836
0.00288688
0.00294264
0.00302038
0.0030736
0.0030963
0.00314971
0.00324826
0.00336242
0.00349077
0.00356216
0.00357284
0.00361479
0.00370194
0.00385751
0.00292723
0.00292419
0.00291432
0.00291616
0.0029209
0.00291562
0.00291745
0.00295871
0.00302924
0.00309812
0.00313712
0.00319172
0.00329605
0.0034072
0.0035488
0.00369194
0.00376544
0.00383528
0.00394387
0.0040933
0.0029503
0.0029473
0.00293811
0.0029362
0.00294042
0.00294249
0.00294643
0.00297838
0.0030384
0.00311465
0.00317255
0.00322861
0.00333987
0.0034645
0.00360257
0.00379291
0.00394711
0.0040637
0.00419867
0.004355
0.00297016
0.0029668
0.00295882
0.00295525
0.00295785
0.00296449
0.00297173
0.00299933
0.00304991
0.00312482
0.00320117
0.00326544
0.00337835
0.00352998
0.00367815
0.00388384
0.00410654
0.00428163
0.00443792
0.00458751
0.00298678
0.00298277
0.00297593
0.0029723
0.00297332
0.00298211
0.00299236
0.00301924
0.00306434
0.00313318
0.00322116
0.0033015
0.00341483
0.00359425
0.00377565
0.00398834
0.00424774
0.00447193
0.00464409
0.00477686
0.003
0.0029953
0.00298925
0.00298647
0.0029864
0.00299566
0.00300813
0.00303538
0.00307962
0.00314411
0.00323716
0.00333684
0.00344878
0.00363352
0.00385265
0.00408283
0.00436075
0.00462957
0.00483682
0.00497115
0.00300968
0.00300423
0.00299853
0.00299698
0.00299633
0.00300494
0.0030188
0.00304647
0.00309148
0.00315528
0.00325023
0.0033748
0.00350918
0.00369423
0.00392929
0.00416372
0.00441806
0.00468108
0.00490041
0.00504343
0.00301594
0.00301028
0.00300495
0.00300455
0.00300448
0.00301286
0.00302773
0.00305629
0.00310223
0.00316864
0.00325974
0.00338859
0.0035406
0.00372815
0.00397627
0.00424372
0.00451031
0.00477496
0.00500348
0.00515819
0.00301733
0.00301065
0.00300466
0.00300383
0.00300312
0.00301005
0.00302392
0.00305241
0.00309813
0.00316692
0.00325953
0.00338856
0.00355352
0.00375099
0.00399817
0.00427484
0.00454645
0.00480376
0.00502596
0.00518113
0.00628623
0.00293915
-0.00315607
-0.00765469
-0.00816415
-0.00638466
-0.00437476
-0.00288219
-0.00196312
-0.00142486
-0.000969959
-0.000465944
-4.76938e-05
0.000340719
0.000897644
0.00149223
0.0019362
0.00231241
0.00270785
0.00311869
0.00356257
0.00401733
0.00444508
0.00486272
0.00528194
0.0056978
0.00612672
0.00656332
0.00698718
0.00740983
0.00782817
0.00823582
0.0086479
0.00907346
0.00950893
0.00994015
0.0103741
0.0108208
0.0112549
0.0116857
0.0121364
0.0125835
0.0130281
0.0135034
0.0140063
0.014519
0.0150481
0.015554
0.0159973
0.0164427
0.0169408
0.0174486
0.0179716
0.0185354
0.0191138
0.0196958
0.020274
0.0208523
0.0214613
0.0220989
0.0227313
0.0233856
0.0240782
0.0247818
0.0254882
0.0262157
0.0269658
0.0277197
0.0284875
0.0292736
0.0300833
0.0309038
0.0317354
0.0325809
0.0334472
0.0343442
0.0352618
0.0361925
0.037127
0.0380753
0.0390454
0.0400367
0.0410543
0.0420885
0.043143
0.0442105
0.0452972
0.0464021
0.0475264
0.0486756
0.0498401
0.051035
0.0522429
0.0534783
0.0547318
0.0560068
0.0573021
0.0585964
0.0598816
0.0611454
0.00588048
0.00284656
-0.00305449
-0.00751426
-0.0080824
-0.00634367
-0.00434704
-0.00286135
-0.00194736
-0.00141292
-0.000960598
-0.000457985
-4.10135e-05
0.000345956
0.000902206
0.00149671
0.00194032
0.00231603
0.00271111
0.00312155
0.00356512
0.00401971
0.00444727
0.00486472
0.00528379
0.00569949
0.00612828
0.0065648
0.00698857
0.00741114
0.00782942
0.00823698
0.00864899
0.00907449
0.00950994
0.00994112
0.010375
0.0108217
0.0112557
0.0116865
0.0121372
0.0125843
0.0130289
0.013504
0.0140069
0.0145196
0.0150487
0.0155546
0.0159978
0.0164431
0.0169412
0.0174491
0.017972
0.0185358
0.0191141
0.0196961
0.0202743
0.0208526
0.0214615
0.0220991
0.0227315
0.0233857
0.0240783
0.024782
0.0254884
0.0262158
0.0269659
0.0277198
0.0284876
0.0292737
0.0300834
0.0309039
0.0317355
0.032581
0.0334472
0.0343443
0.0352619
0.0361926
0.037127
0.0380753
0.0390454
0.0400367
0.0410543
0.0420885
0.043143
0.0442105
0.0452972
0.0464021
0.0475264
0.0486756
0.0498401
0.051035
0.0522429
0.0534783
0.0547318
0.0560068
0.0573021
0.0585964
0.0598817
0.0611454
0.00541571
0.00271734
-0.00285344
-0.00723651
-0.00793559
-0.00629167
-0.00432487
-0.00284462
-0.00193192
-0.00139924
-0.000949185
-0.000448458
-3.3179e-05
0.000352053
0.000907142
0.00150095
0.00194393
0.00231928
0.00271416
0.00312426
0.0035675
0.00402188
0.00444922
0.00486648
0.00528542
0.00570096
0.00612963
0.00656609
0.00698977
0.00741226
0.00783047
0.00823795
0.0086499
0.00907535
0.00951076
0.00994191
0.0103758
0.0108224
0.0112565
0.0116872
0.0121379
0.0125849
0.0130294
0.0135045
0.0140074
0.0145201
0.0150492
0.0155551
0.0159983
0.0164435
0.0169415
0.0174494
0.0179723
0.0185361
0.0191144
0.0196964
0.0202745
0.0208528
0.0214617
0.0220993
0.0227317
0.0233859
0.0240785
0.0247821
0.0254885
0.0262159
0.026966
0.0277199
0.0284876
0.0292738
0.0300834
0.0309039
0.0317355
0.032581
0.0334473
0.0343443
0.0352619
0.0361926
0.037127
0.0380754
0.0390454
0.0400368
0.0410543
0.0420886
0.043143
0.0442105
0.0452972
0.0464021
0.0475264
0.0486756
0.0498401
0.051035
0.0522429
0.0534783
0.0547318
0.0560068
0.0573021
0.0585964
0.0598817
0.0611456
0.00496727
0.00260241
-0.00258822
-0.00687669
-0.00772973
-0.00621826
-0.00429426
-0.00282214
-0.00191112
-0.00138025
-0.000933128
-0.000435265
-2.15812e-05
0.000362254
0.000915132
0.00150665
0.00194833
0.00232351
0.00271844
0.00312817
0.00357085
0.00402474
0.0044517
0.00486871
0.00528745
0.00570275
0.00613125
0.00656762
0.0069912
0.00741358
0.00783169
0.00823905
0.00865091
0.0090763
0.00951166
0.00994276
0.0103766
0.0108232
0.0112572
0.0116879
0.0121386
0.0125856
0.0130301
0.0135051
0.014008
0.0145206
0.0150497
0.0155557
0.0159988
0.0164439
0.0169419
0.0174498
0.0179726
0.0185364
0.0191147
0.0196967
0.0202748
0.020853
0.0214619
0.0220995
0.0227319
0.023386
0.0240786
0.0247822
0.0254886
0.026216
0.0269661
0.02772
0.0284877
0.0292738
0.0300835
0.030904
0.0317356
0.032581
0.0334473
0.0343443
0.0352619
0.0361926
0.0371271
0.0380754
0.0390454
0.0400368
0.0410543
0.0420886
0.0431431
0.0442106
0.0452972
0.0464021
0.0475264
0.0486756
0.0498401
0.051035
0.0522429
0.0534783
0.0547318
0.0560068
0.0573021
0.0585965
0.0598818
0.061146
0.00454523
0.00248883
-0.0023141
-0.00649441
-0.00750008
-0.00613362
-0.00425947
-0.00279622
-0.00188592
-0.00135588
-0.000911828
-0.000417776
-5.40636e-06
0.000377742
0.000927284
0.00151453
0.0019541
0.0023293
0.00272459
0.003134
0.0035758
0.00402879
0.00445516
0.00487183
0.00529022
0.00570511
0.0061333
0.00656957
0.00699308
0.00741531
0.00783322
0.00824042
0.00865218
0.00907746
0.00951272
0.00994374
0.0103775
0.0108241
0.0112581
0.0116886
0.0121393
0.0125863
0.0130308
0.0135059
0.0140086
0.0145212
0.0150504
0.0155565
0.0159995
0.0164444
0.0169424
0.0174503
0.0179731
0.0185368
0.0191151
0.0196971
0.0202752
0.0208534
0.0214622
0.0220998
0.0227321
0.0233862
0.0240788
0.0247824
0.0254888
0.0262162
0.0269663
0.0277201
0.0284878
0.0292739
0.0300836
0.0309041
0.0317356
0.0325811
0.0334473
0.0343444
0.035262
0.0361927
0.0371271
0.0380754
0.0390455
0.0400368
0.0410543
0.0420886
0.0431431
0.0442106
0.0452972
0.0464021
0.0475264
0.0486757
0.0498401
0.051035
0.0522429
0.0534783
0.0547318
0.0560068
0.0573021
0.0585965
0.0598819
0.0611464
0.00413964
0.00235067
-0.00205168
-0.00610263
-0.0072542
-0.00604153
-0.00422331
-0.00276911
-0.00185824
-0.00132815
-0.000887127
-0.000397375
1.4233e-05
0.000397646
0.000943152
0.00152457
0.00196145
0.00233693
0.00273293
0.00314205
0.0035826
0.00403426
0.00445985
0.00487613
0.00529404
0.00570826
0.00613589
0.00657196
0.00699546
0.00741756
0.0078352
0.0082422
0.00865383
0.00907894
0.00951401
0.00994492
0.0103786
0.0108252
0.0112591
0.0116895
0.01214
0.0125871
0.0130316
0.0135067
0.0140094
0.0145219
0.0150512
0.0155574
0.0160004
0.016445
0.0169429
0.0174508
0.0179737
0.0185375
0.0191157
0.0196976
0.0202757
0.0208538
0.0214626
0.0221002
0.0227325
0.0233866
0.0240791
0.0247827
0.025489
0.0262164
0.0269665
0.0277203
0.028488
0.0292741
0.0300837
0.0309042
0.0317358
0.0325812
0.0334474
0.0343444
0.035262
0.0361927
0.0371272
0.0380755
0.0390455
0.0400368
0.0410544
0.0420886
0.0431431
0.0442106
0.0452972
0.0464021
0.0475264
0.0486757
0.0498401
0.051035
0.0522429
0.0534783
0.0547318
0.0560068
0.0573022
0.0585965
0.059882
0.061147
0.00374362
0.00218701
-0.0017988
-0.00570032
-0.00699257
-0.00594271
-0.00418672
-0.00274155
-0.00182854
-0.00129794
-0.000860275
-0.000375273
3.58018e-05
0.00042005
0.00096126
0.0015361
0.0019701
0.00234621
0.00274329
0.0031522
0.00359115
0.00404105
0.00446574
0.00488165
0.00529907
0.00571241
0.00613913
0.00657481
0.00699832
0.00742029
0.00783765
0.00824448
0.00865599
0.00908083
0.00951561
0.00994635
0.01038
0.0108266
0.0112603
0.0116906
0.0121409
0.0125878
0.0130325
0.0135077
0.0140103
0.0145227
0.015052
0.0155585
0.0160016
0.0164459
0.0169435
0.0174515
0.0179745
0.0185383
0.0191164
0.0196983
0.0202764
0.0208545
0.0214632
0.0221007
0.0227329
0.023387
0.0240796
0.0247831
0.0254894
0.0262167
0.0269668
0.0277205
0.0284882
0.0292743
0.0300839
0.0309044
0.0317359
0.0325813
0.0334475
0.0343445
0.0352621
0.0361928
0.0371272
0.0380755
0.0390455
0.0400369
0.0410544
0.0420887
0.0431431
0.0442106
0.0452972
0.0464021
0.0475264
0.0486757
0.0498401
0.051035
0.052243
0.0534783
0.0547318
0.0560068
0.0573022
0.0585966
0.0598822
0.0611478
0.00336515
0.00200959
-0.0015539
-0.00529103
-0.00671722
-0.0058375
-0.00414983
-0.00271382
-0.00179696
-0.00126537
-0.000831514
-0.000351811
5.85491e-05
0.000443791
0.000980654
0.00154861
0.00197967
0.00235667
0.00275514
0.00316395
0.00360104
0.00404887
0.00447254
0.00488815
0.00530517
0.00571758
0.00614313
0.00657816
0.00700159
0.00742339
0.00784046
0.00824722
0.00865869
0.00908323
0.00951759
0.00994807
0.0103816
0.0108282
0.0112619
0.011692
0.0121419
0.0125888
0.0130335
0.0135088
0.0140112
0.0145234
0.0150529
0.0155599
0.0160031
0.0164471
0.0169444
0.0174525
0.0179756
0.0185394
0.0191173
0.0196991
0.0202774
0.0208555
0.021464
0.0221014
0.0227336
0.0233877
0.0240802
0.0247836
0.0254899
0.0262172
0.0269672
0.0277209
0.0284886
0.0292746
0.0300842
0.0309046
0.0317361
0.0325815
0.0334477
0.0343447
0.0352623
0.036193
0.0371273
0.0380756
0.0390456
0.0400369
0.0410545
0.0420887
0.0431432
0.0442107
0.0452973
0.0464022
0.0475264
0.0486757
0.0498402
0.051035
0.052243
0.0534783
0.0547318
0.0560068
0.0573022
0.0585967
0.0598824
0.0611487
0.00301503
0.00182402
-0.00132455
-0.00488106
-0.00642892
-0.00572428
-0.00411171
-0.002686
-0.00176369
-0.00123037
-0.000800714
-0.000327025
8.21968e-05
0.000468464
0.00100106
0.00156198
0.00198999
0.00236793
0.00276797
0.00317677
0.0036119
0.00405745
0.00448
0.00489533
0.00531202
0.00572355
0.00614785
0.00658206
0.00700523
0.00742674
0.0078435
0.0082503
0.00866185
0.00908609
0.00951995
0.0099501
0.0103834
0.01083
0.0112638
0.0116937
0.0121434
0.0125901
0.0130349
0.0135101
0.0140121
0.0145239
0.0150535
0.0155613
0.016005
0.0164486
0.0169455
0.0174537
0.0179771
0.0185408
0.0191185
0.0197003
0.0202787
0.0208568
0.0214652
0.0221024
0.0227346
0.0233886
0.024081
0.0247844
0.0254906
0.0262178
0.0269678
0.0277215
0.0284891
0.029275
0.0300846
0.030905
0.0317364
0.0325818
0.0334479
0.0343449
0.0352625
0.0361931
0.0371275
0.0380757
0.0390457
0.040037
0.0410546
0.0420888
0.0431433
0.0442107
0.0452973
0.0464022
0.0475265
0.0486757
0.0498402
0.051035
0.052243
0.0534783
0.0547318
0.0560068
0.0573022
0.0585968
0.0598827
0.0611497
0.00269899
0.00163103
-0.00111807
-0.00447377
-0.00612628
-0.00560074
-0.00407151
-0.00265846
-0.00172916
-0.00119287
-0.000767705
-0.000300891
0.000106695
0.000494041
0.00102249
0.00157626
0.002001
0.00237983
0.00278149
0.00319034
0.00362348
0.00406663
0.004488
0.00490302
0.00531938
0.00573008
0.00615315
0.00658646
0.00700924
0.00743031
0.00784671
0.00825361
0.00866535
0.00908933
0.00952267
0.00995241
0.0103855
0.0108319
0.0112659
0.0116957
0.0121451
0.0125918
0.0130368
0.0135118
0.0140131
0.0145242
0.0150537
0.0155624
0.016007
0.0164504
0.0169469
0.0174553
0.017979
0.0185425
0.0191199
0.0197016
0.0202802
0.0208585
0.0214667
0.0221037
0.0227358
0.0233899
0.0240821
0.0247853
0.0254915
0.0262187
0.0269686
0.0277222
0.0284897
0.0292756
0.0300851
0.0309055
0.0317369
0.0325821
0.0334482
0.0343452
0.0352628
0.0361934
0.0371278
0.0380759
0.0390459
0.0400372
0.0410547
0.0420889
0.0431434
0.0442108
0.0452974
0.0464023
0.0475265
0.0486758
0.0498402
0.0510351
0.052243
0.0534783
0.0547319
0.0560068
0.0573023
0.0585969
0.059883
0.0611508
0.00241864
0.00143345
-0.000938029
-0.0040708
-0.00580829
-0.00546511
-0.00402863
-0.00263166
-0.0016939
-0.0011529
-0.00073231
-0.00027326
0.000132152
0.000520613
0.00104503
0.00159147
0.00201274
0.00239235
0.00279562
0.00320454
0.00363565
0.00407635
0.00449646
0.00491114
0.00532716
0.00573703
0.00615888
0.00659128
0.00701359
0.0074341
0.00785007
0.00825712
0.00866911
0.00909286
0.00952565
0.00995496
0.0103877
0.010834
0.011268
0.0116979
0.012147
0.0125938
0.0130392
0.013514
0.0140144
0.0145244
0.0150535
0.015563
0.0160087
0.0164523
0.0169485
0.0174573
0.0179814
0.0185447
0.0191215
0.019703
0.020282
0.0208606
0.0214686
0.0221053
0.0227374
0.0233914
0.0240835
0.0247865
0.0254926
0.0262198
0.0269696
0.0277231
0.0284906
0.0292764
0.0300858
0.0309062
0.0317375
0.0325827
0.0334487
0.0343455
0.0352631
0.0361938
0.0371281
0.0380762
0.0390461
0.0400373
0.0410548
0.0420891
0.0431435
0.044211
0.0452976
0.0464024
0.0475266
0.0486759
0.0498403
0.0510351
0.0522431
0.0534784
0.0547319
0.0560068
0.0573023
0.0585971
0.0598834
0.0611521
0.00217497
0.00123701
-0.00078621
-0.00367466