/*--------------------------------*- C++ -*----------------------------------*\
| =========                 |                                                 |
| \\      /  F ield         | OpenFOAM: The Open Source CFD Toolbox           |
|  \\    /   O peration     | Version:  v1912                                 |
|   \\  /    A nd           | Website:  www.openfoam.com                      |
|    \\/     M anipulation  |                                                 |
\*---------------------------------------------------------------------------*/
FoamFile
{
    version     2.0;
    format      ascii;
    class       volVectorField;
    location    "7.7";
    object      U;
}
// * * * * * * * * * * * * * * * * * * * * * * * * * * * * * * * * * * * * * //

dimensions      [0 1 -1 0 0 0 0];


internalField   nonuniform List<vector> 
9600
(
(0.698281 -0.00267867 0)
(1.33299 0.00822062 0)
(0.429484 -0.032042 0)
(1.5241 0.0103596 0)
(0.776068 0.00924073 0)
(1.22116 0.00423467 0)
(0.766542 -0.0192725 0)
(1.29253 0.00135281 0)
(0.762344 -0.000592057 0)
(1.27546 0.0128585 0)
(0.777833 0.0144549 0)
(1.19836 0.0226663 0)
(0.834056 0.0116389 0)
(1.22765 0.010946 0)
(0.844121 0.00258681 0)
(1.21387 0.00712482 0)
(0.915997 -0.0095619 0)
(1.19666 -0.000584801 0)
(0.938414 -0.00571447 0)
(1.18374 0.000287455 0)
(0.707517 -0.00314944 0)
(1.32838 0.0108293 0)
(0.462559 -0.0346199 0)
(1.51141 0.00761734 0)
(0.8102 0.0117601 0)
(1.2243 0.00476647 0)
(0.806419 -0.0207005 0)
(1.29377 0.00168844 0)
(0.786506 -0.000769591 0)
(1.26926 0.0130045 0)
(0.801602 0.0151358 0)
(1.17663 0.0224602 0)
(0.877596 0.0106517 0)
(1.1924 0.0110827 0)
(0.915732 0.00265282 0)
(1.15544 0.00530455 0)
(1.01236 -0.00884279 0)
(1.12025 -0.00167938 0)
(1.05607 -0.00422496 0)
(1.07382 0.00112416 0)
(0.726099 -0.00350625 0)
(1.31835 0.0127158 0)
(0.514532 -0.0362531 0)
(1.47894 0.00535038 0)
(0.87289 0.0138316 0)
(1.22512 0.00512139 0)
(0.859576 -0.0216861 0)
(1.28421 0.00234801 0)
(0.842285 -0.000792252 0)
(1.24886 0.0133549 0)
(0.862639 0.0163353 0)
(1.13145 0.0214998 0)
(0.946698 0.00998863 0)
(1.14208 0.010477 0)
(0.99684 0.00341884 0)
(1.10368 0.00336223 0)
(1.07007 -0.00810246 0)
(1.08603 -0.00277239 0)
(1.08541 -0.00311272 0)
(1.06988 0.00162266 0)
(0.754354 -0.0039553 0)
(1.30055 0.0143262 0)
(0.584706 -0.037827 0)
(1.42327 0.00290939 0)
(0.95244 0.0155368 0)
(1.2193 0.00566183 0)
(0.918082 -0.0224599 0)
(1.25534 0.00270346 0)
(0.919556 -0.000546671 0)
(1.21298 0.0134634 0)
(0.941148 0.017902 0)
(1.08715 0.0203668 0)
(1.00605 0.00954097 0)
(1.10497 0.00958868 0)
(1.04734 0.00409797 0)
(1.08177 0.00199786 0)
(1.08307 -0.0079863 0)
(1.0802 -0.00309412 0)
(1.08448 -0.00255761 0)
(1.07841 0.00267173 0)
(0.791692 -0.00448977 0)
(1.27312 0.0157001 0)
(0.666034 -0.0388852 0)
(1.34567 -9.18107e-05 0)
(1.03465 0.0168609 0)
(1.20894 0.00643071 0)
(0.970688 -0.0227739 0)
(1.20814 0.00259748 0)
(0.994424 -0.000100457 0)
(1.17168 0.0133497 0)
(1.0083 0.0195801 0)
(1.06528 0.0196101 0)
(1.04279 0.00904572 0)
(1.08794 0.0088138 0)
(1.06982 0.00456729 0)
(1.07595 0.00139075 0)
(1.07715 -0.00790173 0)
(1.07417 -0.00326959 0)
(1.07858 -0.00227721 0)
(1.07777 0.00326153 0)
(0.835319 -0.00508083 0)
(1.23623 0.0167469 0)
(0.74678 -0.0394412 0)
(1.25523 -0.00332697 0)
(1.10409 0.0175944 0)
(1.19795 0.00752012 0)
(1.00769 -0.0224882 0)
(1.15253 0.00211613 0)
(1.04635 0.000292525 0)
(1.13685 0.0132737 0)
(1.05156 0.0209798 0)
(1.06568 0.0193011 0)
(1.06315 0.00861395 0)
(1.08259 0.00826632 0)
(1.07707 0.00495953 0)
(1.07292 0.00133995 0)
(1.06592 -0.00759249 0)
(1.06194 -0.00352725 0)
(1.06754 -0.0022335 0)
(1.07016 0.00359308 0)
(0.880188 -0.00569914 0)
(1.19276 0.0174908 0)
(0.816848 -0.0394781 0)
(1.1676 -0.00660514 0)
(1.14916 0.0176125 0)
(1.18745 0.00894261 0)
(1.02647 -0.0215704 0)
(1.1005 0.00141278 0)
(1.06945 0.000392871 0)
(1.11303 0.0132541 0)
(1.07476 0.0218806 0)
(1.07657 0.0192632 0)
(1.07559 0.00842138 0)
(1.08089 0.00795866 0)
(1.07709 0.00541704 0)
(1.06817 0.00170114 0)
(1.0538 -0.00698732 0)
(1.04655 -0.00371842 0)
(1.05166 -0.00234502 0)
(1.05701 0.00359483 0)
(0.920428 -0.00629679 0)
(1.14764 0.0180067 0)
(0.872486 -0.0391112 0)
(1.09689 -0.00985141 0)
(1.16549 0.0169205 0)
(1.17501 0.0106293 0)
(1.03123 -0.0201094 0)
(1.05949 0.000624157 0)
(1.06945 0.000113892 0)
(1.09708 0.0131029 0)
(1.08615 0.0222751 0)
(1.08837 0.0193296 0)
(1.08369 0.00853825 0)
(1.07891 0.00792719 0)
(1.07315 0.00601662 0)
(1.06123 0.00236973 0)
(1.04209 -0.00608643 0)
(1.03128 -0.00366964 0)
(1.0341 -0.00248631 0)
(1.04026 0.00321357 0)
(0.951576 -0.00682528 0)
(1.10617 0.0183551 0)
(0.915311 -0.0384839 0)
(1.04807 -0.0128278 0)
(1.1554 0.0157064 0)
(1.15707 0.0123878 0)
(1.02851 -0.0182908 0)
(1.03094 -0.000129603 0)
(1.05574 -0.000500065 0)
(1.08316 0.0126296 0)
(1.09019 0.0222184 0)
(1.0958 0.0194139 0)
(1.08712 0.00896623 0)
(1.07469 0.00818655 0)
(1.06624 0.00677307 0)
(1.05269 0.00325423 0)
(1.03141 -0.00496037 0)
(1.0181 -0.00336295 0)
(1.01814 -0.00256622 0)
(1.02306 0.00264618 0)
(0.972148 -0.00724816 0)
(1.07234 0.0185534 0)
(0.948257 -0.0377247 0)
(1.01728 -0.0152824 0)
(1.12589 0.0142505 0)
(1.13208 0.0139793 0)
(1.02338 -0.0163457 0)
(1.01263 -0.000741124 0)
(1.03652 -0.00128396 0)
(1.06703 0.011766 0)
(1.08689 0.0217669 0)
(1.09562 0.0194806 0)
(1.08432 0.00965094 0)
(1.0671 0.00869313 0)
(1.05685 0.00764763 0)
(1.04347 0.00424522 0)
(1.02249 -0.0037303 0)
(1.0081 -0.00286504 0)
(1.0059 -0.00250064 0)
(1.00849 0.00213298 0)
(0.983577 -0.00755023 0)
(1.04784 0.0185868 0)
(0.973105 -0.0369154 0)
(0.998088 -0.0170732 0)
(1.08673 0.0128 0)
(1.10197 0.0152245 0)
(1.01833 -0.0144973 0)
(1.00143 -0.00114864 0)
(1.0177 -0.00203035 0)
(1.04796 0.0106057 0)
(1.07552 0.0210105 0)
(1.0865 0.0195023 0)
(1.0748 0.010484 0)
(1.05615 0.00934093 0)
(1.04591 0.00854417 0)
(1.03463 0.00521707 0)
(1.01593 -0.00251626 0)
(1.00168 -0.00223075 0)
(0.998177 -0.00223895 0)
(0.998326 0.00176988 0)
(0.988851 -0.0077398 0)
(1.03195 0.018445 0)
(0.990672 -0.0360915 0)
(0.986068 -0.018186 0)
(1.04803 0.0115015 0)
(1.07129 0.0160061 0)
(1.01402 -0.012912 0)
(0.994803 -0.00134954 0)
(1.00297 -0.0025847 0)
(1.0284 0.00934769 0)
(1.05787 0.0200843 0)
(1.07014 0.0194521 0)
(1.06031 0.0113291 0)
(1.04322 0.00999677 0)
(1.03485 0.00933733 0)
(1.02701 0.00606047 0)
(1.01182 -0.00141328 0)
(0.998614 -0.00152705 0)
(0.994632 -0.00181828 0)
(0.992826 0.00157012 0)
(0.990946 -0.00783917 0)
(1.02243 0.0181421 0)
(1.00187 -0.0352577 0)
(0.979059 -0.0187283 0)
(1.01709 0.0104021 0)
(1.04471 0.0163173 0)
(1.01032 -0.0116495 0)
(0.991015 -0.00140364 0)
(0.993676 -0.00288485 0)
(1.01183 0.00818572 0)
(1.03822 0.0191375 0)
(1.0508 0.0193135 0)
(1.04425 0.0120631 0)
(1.03056 0.0105404 0)
(1.02508 0.00993269 0)
(1.02101 0.00670205 0)
(1.00966 -0.000479256 0)
(0.998035 -0.000829352 0)
(0.994187 -0.0012952 0)
(0.991076 0.00154307 0)
(0.991896 -0.00787394 0)
(1.01676 0.0177172 0)
(1.00811 -0.03441 0)
(0.97572 -0.018868 0)
(0.996456 0.0095005 0)
(1.02485 0.0162652 0)
(1.00716 -0.0106766 0)
(0.98893 -0.00140227 0)
(0.989126 -0.00296538 0)
(1.00038 0.00723663 0)
(1.02107 0.0182862 0)
(1.03305 0.0190807 0)
(1.03 0.0126165 0)
(1.0201 0.010907 0)
(1.01746 0.0102998 0)
(1.01655 0.00712214 0)
(1.00865 0.000265717 0)
(0.998775 -0.00019047 0)
(0.995451 -0.000700278 0)
(0.991683 0.00168126 0)
(0.992673 -0.0078648 0)
(1.01307 0.0172175 0)
(1.01101 -0.0335517 0)
(0.974782 -0.0187506 0)
(0.984771 0.00877403 0)
(1.01181 0.015981 0)
(1.00466 -0.00991872 0)
(0.987851 -0.00140194 0)
(0.987578 -0.00289569 0)
(0.99397 0.00652503 0)
(1.00882 0.01758 0)
(1.01969 0.0187703 0)
(1.01949 0.0129792 0)
(1.01272 0.0111122 0)
(1.01222 0.0104604 0)
(1.01341 0.00735794 0)
(1.00811 0.000833727 0)
(0.999829 0.000360277 0)
(0.997191 -7.39055e-05 0)
(0.993323 0.00193507 0)
(0.993538 -0.00782471 0)
(1.01035 0.0166781 0)
(1.01193 -0.0326831 0)
(0.975114 -0.0184847 0)
(0.979042 0.00818236 0)
(1.00411 0.0155682 0)
(1.00294 -0.00929492 0)
(0.987396 -0.00142891 0)
(0.987406 -0.00273833 0)
(0.991042 0.0060045 0)
(1.00146 0.0170115 0)
(1.01116 0.0184087 0)
(1.01287 0.0131858 0)
(1.00822 0.0112026 0)
(1.00902 0.01048 0)
(1.01137 0.00747107 0)
(1.0077 0.00126399 0)
(1.00065 0.000825787 0)
(0.998658 0.000557707 0)
(0.995067 0.0022431 0)
(0.994454 -0.00776088 0)
(1.00819 0.0161187 0)
(1.01184 -0.0318071 0)
(0.975934 -0.0181389 0)
(0.976599 0.00768045 0)
(0.999929 0.0150864 0)
(1.002 -0.00874751 0)
(0.987376 -0.00148367 0)
(0.987641 -0.00253608 0)
(0.989894 0.00560628 0)
(0.997576 0.01654 0)
(1.00633 0.018017 0)
(1.00917 0.0132815 0)
(1.00581 0.011229 0)
(1.00728 0.0104146 0)
(1.01018 0.00751987 0)
(1.00737 0.00162534 0)
(1.00113 0.00121139 0)
(0.999621 0.00117123 0)
(0.996467 0.00256048 0)
(0.995321 -0.00767801 0)
(1.00648 0.0155491 0)
(1.01127 -0.0309229 0)
(0.976835 -0.0177593 0)
(0.97577 0.00723223 0)
(0.997811 0.0145583 0)
(1.0017 -0.00824196 0)
(0.987673 -0.00155734 0)
(0.987896 -0.00230736 0)
(0.989394 0.00527799 0)
(0.995601 0.0161181 0)
(1.00371 0.017609 0)
(1.00717 0.0132979 0)
(1.00463 0.0112322 0)
(1.0064 0.0102958 0)
(1.00958 0.00753217 0)
(1.00712 0.00196603 0)
(1.0014 0.00153436 0)
(1.00018 0.00175116 0)
(0.99747 0.00287203 0)
(0.996071 -0.00757942 0)
(1.00518 0.0149726 0)
(1.0105 -0.0300281 0)
(0.977669 -0.0173712 0)
(0.9757 0.00681607 0)
(0.996803 0.0139978 0)
(1.00179 -0.0077599 0)
(0.988178 -0.00163477 0)
(0.988087 -0.00205206 0)
(0.989049 0.00499122 0)
(0.994437 0.0157107 0)
(1.00214 0.017192 0)
(1.00592 0.0132553 0)
(1.00405 0.0112275 0)
(1.00591 0.0101396 0)
(1.00929 0.00752218 0)
(1.00694 0.00230718 0)
(1.00158 0.00182506 0)
(1.00052 0.00230139 0)
(0.998217 0.00318586 0)
(0.996674 -0.00746774 0)
(1.00423 0.01439 0)
(1.00968 -0.0291221 0)
(0.978422 -0.0169815 0)
(0.975983 0.00642003 0)
(0.996356 0.0134068 0)
(1.00205 -0.00729327 0)
(0.988783 -0.0017028 0)
(0.988231 -0.00176681 0)
(0.98877 0.00473551 0)
(0.993556 0.0152998 0)
(1.001 0.016771 0)
(1.00486 0.0131601 0)
(1.00369 0.0112139 0)
(1.00554 0.00996146 0)
(1.00908 0.00748973 0)
(1.0068 0.0026648 0)
(1.00178 0.00210263 0)
(1.00078 0.00282093 0)
(0.998867 0.0035092 0)
(0.997129 -0.0073451 0)
(1.00357 0.0138009 0)
(1.00884 -0.0282004 0)
(0.979146 -0.0165998 0)
(0.976413 0.00603373 0)
(0.996187 0.0127872 0)
(1.00234 -0.00683829 0)
(0.989401 -0.00175643 0)
(0.988346 -0.0014529 0)
(0.988613 0.00451131 0)
(0.992795 0.0148787 0)
(1.00005 0.0163519 0)
(1.00381 0.0130159 0)
(1.00342 0.0111805 0)
(1.00516 0.00977494 0)
(1.00884 0.00743268 0)
(1.00663 0.00302673 0)
(1.00199 0.00236828 0)
(1.00102 0.00330006 0)
(0.999503 0.00385044 0)
(0.99745 -0.00721281 0)
(1.00312 0.0132044 0)
(1.008 -0.0272626 0)
(0.979914 -0.0162262 0)
(0.97689 0.00565395 0)
(0.99615 0.0121457 0)
(1.00258 -0.00639536 0)
(0.989976 -0.0017941 0)
(0.988429 -0.00111784 0)
(0.988635 0.00432077 0)
(0.992147 0.0144444 0)
(0.999269 0.0159433 0)
(1.00277 0.0128263 0)
(1.00319 0.0111212 0)
(1.00477 0.00958286 0)
(1.00852 0.0073556 0)
(1.0064 0.00338383 0)
(1.0022 0.00262538 0)
(1.00125 0.00372141 0)
(1.00012 0.0042077 0)
(0.997653 -0.00707192 0)
(1.00284 0.0126001 0)
(1.00714 -0.0263086 0)
(0.980784 -0.0158623 0)
(0.977378 0.0052821 0)
(0.996156 0.0114834 0)
(1.00276 -0.00596209 0)
(0.990483 -0.00181246 0)
(0.988477 -0.000769399 0)
(0.988845 0.00416538 0)
(0.991633 0.013995 0)
(0.998683 0.0155517 0)
(1.00181 0.0125959 0)
(1.00302 0.0110341 0)
(1.00441 0.00939369 0)
(1.00814 0.00725429 0)
(1.00612 0.00373196 0)
(1.00236 0.00288654 0)
(1.00144 0.00407886 0)
(1.00069 0.00456146 0)
(0.997761 -0.00692301 0)
(1.00267 0.0119891 0)
(1.00627 -0.0253415 0)
(0.981768 -0.0155092 0)
(0.977883 0.00491804 0)
(0.99614 0.0108036 0)
(1.00288 -0.00553914 0)
(0.990919 -0.00180889 0)
(0.988496 -0.000417034 0)
(0.989217 0.00404317 0)
(0.991269 0.0135286 0)
(0.998293 0.0151792 0)
(1.00101 0.0123316 0)
(1.00292 0.0109205 0)
(1.00412 0.00921362 0)
(1.00774 0.00713401 0)
(1.00581 0.0040569 0)
(1.00245 0.00315281 0)
(1.00159 0.00437744 0)
(1.00116 0.00488457 0)
(0.997797 -0.00676645 0)
(1.00259 0.0113723 0)
(1.00539 -0.0243651 0)
(0.982826 -0.0151643 0)
(0.97843 0.00456768 0)
(0.996063 0.0101119 0)
(1.00292 -0.00513014 0)
(0.9913 -0.00178369 0)
(0.988502 -7.15967e-05 0)
(0.98971 0.00395316 0)
(0.991067 0.0130437 0)
(0.998071 0.0148224 0)
(1.00042 0.012041 0)
(1.00288 0.0107791 0)
(1.00393 0.00905299 0)
(1.00734 0.00700328 0)
(1.0055 0.00435617 0)
(1.00249 0.00342718 0)
(1.00169 0.00462954 0)
(1.00154 0.00515541 0)
(0.997784 -0.00660273 0)
(1.00257 0.0107501 0)
(1.00455 -0.0233795 0)
(0.983878 -0.0148304 0)
(0.979043 0.00423399 0)
(0.995926 0.00941209 0)
(1.0029 -0.00474011 0)
(0.991653 -0.00173627 0)
(0.98852 0.000259321 0)
(0.990274 0.00389407 0)
(0.99104 0.0125392 0)
(0.997976 0.0144754 0)
(1.00005 0.0117332 0)
(1.00289 0.0106083 0)
(1.00385 0.00891977 0)
(1.00696 0.00687009 0)
(1.0052 0.00462778 0)
(1.00246 0.00371074 0)
(1.00173 0.00485406 0)
(1.00184 0.00536741 0)
(0.997743 -0.00643189 0)
(1.00259 0.0101223 0)
(1.00379 -0.022385 0)
(0.984844 -0.014508 0)
(0.979734 0.00391707 0)
(0.995758 0.00871154 0)
(1.0028 -0.00437316 0)
(0.992008 -0.00166592 0)
(0.988571 0.000573255 0)
(0.990863 0.00386043 0)
(0.991195 0.0120131 0)
(0.99796 0.0141347 0)
(0.999868 0.0114162 0)
(1.00293 0.0104053 0)
(1.00386 0.00881663 0)
(1.00663 0.00674537 0)
(1.00494 0.00486741 0)
(1.0024 0.00399764 0)
(1.00171 0.00507124 0)
(1.00205 0.00552927 0)
(0.997689 -0.00625486 0)
(1.00261 0.00948939 0)
(1.00317 -0.0213807 0)
(0.985665 -0.0141985 0)
(0.98049 0.00361575 0)
(0.995601 0.00801701 0)
(1.00259 -0.00402851 0)
(0.992384 -0.0015767 0)
(0.988671 0.000867624 0)
(0.991438 0.00384711 0)
(0.991529 0.0114671 0)
(0.997987 0.0137951 0)
(0.999843 0.011099 0)
(1.00299 0.0101677 0)
(1.00394 0.00874285 0)
(1.00634 0.00664067 0)
(1.0047 0.00507098 0)
(1.00233 0.00428515 0)
(1.00166 0.00530116 0)
(1.0022 0.00565721 0)
(0.99764 -0.00607223 0)
(1.00262 0.00885143 0)
(1.00273 -0.0203673 0)
(0.986327 -0.0138963 0)
(0.981279 0.00332376 0)
(0.995496 0.00733393 0)
(1.00225 -0.00370883 0)
(0.992784 -0.00147456 0)
(0.98883 0.0011412 0)
(0.991978 0.00385384 0)
(0.992024 0.0109032 0)
(0.99803 0.0134486 0)
(0.999912 0.0107932 0)
(1.00304 0.00989997 0)
(1.00404 0.00869485 0)
(1.0061 0.00657089 0)
(1.00449 0.00523797 0)
(1.00225 0.00456427 0)
(1.00156 0.0055507 0)
(1.00228 0.00578204 0)
(0.997607 -0.00588313 0)
(1.00257 0.00820245 0)
(1.00246 -0.0193441 0)
(0.986859 -0.0135956 0)
(0.982063 0.00303166 0)
(0.995466 0.00667423 0)
(1.00178 -0.00341885 0)
(0.993192 -0.00136792 0)
(0.989048 0.00139377 0)
(0.992474 0.00388067 0)
(0.992646 0.0103246 0)
(0.998075 0.0130866 0)
(1.00002 0.0105086 0)
(1.00306 0.0096028 0)
(1.00411 0.00866051 0)
(1.00587 0.0065514 0)
(1.0043 0.00537952 0)
(1.00218 0.00482041 0)
(1.00145 0.00580773 0)
(1.00232 0.00594247 0)
(0.997604 -0.005686 0)
(1.00245 0.00754092 0)
(1.00234 -0.018314 0)
(0.987313 -0.0132919 0)
(0.982808 0.00273268 0)
(0.995515 0.00604504 0)
(1.0012 -0.00315354 0)
(0.993586 -0.00126538 0)
(0.989316 0.00162303 0)
(0.992925 0.00392066 0)
(0.99335 0.00973949 0)
(0.998119 0.0127075 0)
(1.0001 0.010259 0)
(1.00305 0.00927835 0)
(1.00412 0.0086239 0)
(1.00564 0.00658583 0)
(1.00411 0.00550693 0)
(1.00214 0.00504475 0)
(1.00135 0.00604797 0)
(1.00233 0.0061505 0)
(0.997638 -0.00548249 0)
(1.00225 0.00687175 0)
(1.00231 -0.0172815 0)
(0.987747 -0.0129751 0)
(0.983499 0.00242421 0)
(0.995626 0.0054478 0)
(1.00059 -0.00290833 0)
(0.993944 -0.00117071 0)
(0.989613 0.00182738 0)
(0.993329 0.00396566 0)
(0.994087 0.00915134 0)
(0.998161 0.0123077 0)
(1.00013 0.0100571 0)
(1.00298 0.00894123 0)
(1.00408 0.00856594 0)
(1.00539 0.00666634 0)
(1.00392 0.0056336 0)
(1.00214 0.00524174 0)
(1.00129 0.00625381 0)
(1.00232 0.00638108 0)
(0.997709 -0.00527019 0)
(1.00198 0.00619304 0)
(1.00231 -0.0162525 0)
(0.988206 -0.0126409 0)
(0.984142 0.00210102 0)
(0.995771 0.004887 0)
(0.999991 -0.00267968 0)
(0.994258 -0.00109039 0)
(0.989922 0.00200622 0)
(0.993684 0.00402114 0)
(0.994808 0.00856835 0)
(0.998206 0.0118729 0)
(1.00009 0.00989652 0)
(1.00287 0.00861629 0)
(1.00398 0.00847569 0)
(1.00513 0.00678152 0)
(1.00373 0.00576788 0)
(1.00215 0.00541796 0)
(1.00127 0.0064279 0)
(1.00232 0.00660136 0)
(0.997815 -0.00504858 0)
(1.00167 0.00550603 0)
(1.00227 -0.0152367 0)
(0.988717 -0.0122849 0)
(0.984758 0.00176322 0)
(0.995915 0.00435914 0)
(0.999464 -0.00246124 0)
(0.994529 -0.00102594 0)
(0.990228 0.00215213 0)
(0.99399 0.00408422 0)
(0.995474 0.00800755 0)
(0.998259 0.011406 0)
(0.999981 0.00976157 0)
(1.00272 0.00831557 0)
(1.00386 0.00834704 0)
(1.00487 0.00692433 0)
(1.00354 0.00591451 0)
(1.00219 0.00556134 0)
(1.0013 0.00657569 0)
(1.00234 0.00680071 0)
(0.997945 -0.00481922 0)
(1.00136 0.00481997 0)
(1.00217 -0.0142433 0)
(0.989283 -0.0119034 0)
(0.985376 0.00140994 0)
(0.996029 0.00386033 0)
(0.999028 -0.00225454 0)
(0.994767 -0.000970377 0)
(0.990524 0.00226467 0)
(0.994253 0.00414372 0)
(0.996066 0.00747303 0)
(0.998327 0.0109209 0)
(0.999807 0.00965226 0)
(1.00254 0.00804433 0)
(1.00372 0.00816196 0)
(1.0046 0.00708223 0)
(1.00333 0.00609879 0)
(1.00224 0.00566766 0)
(1.00137 0.00668326 0)
(1.00238 0.0069699 0)
(0.998091 -0.00458381 0)
(1.00107 0.00414415 0)
(1.00198 -0.013277 0)
(0.989892 -0.0115064 0)
(0.986018 0.00105022 0)
(0.9961 0.00339038 0)
(0.998681 -0.00206168 0)
(0.994987 -0.000922078 0)
(0.990807 0.00234719 0)
(0.994481 0.0042059 0)
(0.996579 0.00696594 0)
(0.998417 0.0104064 0)
(0.999589 0.00956144 0)
(1.00234 0.00783193 0)
(1.0036 0.00791824 0)
(1.00435 0.00721336 0)
(1.00311 0.00633392 0)
(1.00227 0.00576347 0)
(1.00148 0.00674473 0)
(1.00243 0.00712307 0)
(0.998242 -0.00434312 0)
(1.00082 0.00347781 0)
(1.00173 -0.0123407 0)
(0.990524 -0.0110919 0)
(0.986695 0.000691854 0)
(0.996128 0.00294635 0)
(0.998405 -0.00188026 0)
(0.995201 -0.000874751 0)
(0.991083 0.00239698 0)
(0.994683 0.00426887 0)
(0.997015 0.00650199 0)
(0.998535 0.00985784 0)
(0.99935 0.00945348 0)
(1.00211 0.00768879 0)
(1.0035 0.00764946 0)
(1.00415 0.00728866 0)
(1.00288 0.00660152 0)
(1.00228 0.00586473 0)
(1.00162 0.00673766 0)
(1.0025 0.00724737 0)
(0.99839 -0.00409821 0)
(1.00062 0.0028328 0)
(1.00143 -0.0114468 0)
(0.991158 -0.0106658 0)
(0.987403 0.000338329 0)
(0.996124 0.00252616 0)
(0.998182 -0.00171242 0)
(0.995415 -0.000830156 0)
(0.991355 0.00241381 0)
(0.994867 0.00432318 0)
(0.997384 0.00608688 0)
(0.99868 0.0092957 0)
(0.999109 0.00931427 0)
(1.00186 0.00759293 0)
(1.0034 0.00737371 0)
(1.004 0.00729511 0)
(1.00265 0.00690557 0)
(1.00223 0.00603192 0)
(1.00176 0.00666886 0)
(1.00259 0.00729123 0)
(0.998531 -0.00385677 0)
(1.00045 0.00221518 0)
(1.0011 -0.010589 0)
(0.991779 -0.0102419 0)
(0.988129 3.51308e-07 0)
(0.996104 0.00212929 0)
(0.997994 -0.00156554 0)
(0.99563 -0.000770346 0)
(0.991632 0.00240666 0)
(0.995037 0.00435527 0)
(0.997696 0.00571481 0)
(0.998854 0.00872202 0)
(0.998882 0.00914351 0)
(1.00157 0.00754277 0)
(1.0033 0.00712237 0)
(1.00391 0.00720388 0)
(1.00243 0.00716873 0)
(1.00212 0.0062902 0)
(1.00188 0.00661315 0)
(1.00271 0.00723724 0)
(0.998663 -0.00360964 0)
(1.00031 0.00162035 0)
(1.00078 -0.00977489 0)
(0.992374 -0.0098069 0)
(0.988856 -0.000333661 0)
(0.996078 0.00177135 0)
(0.997832 -0.00144149 0)
(0.995845 -0.000730445 0)
(0.991912 0.00239735 0)
(0.995191 0.00437881 0)
(0.997962 0.005385 0)
(0.999054 0.00815489 0)
(0.998689 0.00892658 0)
(1.00126 0.007516 0)
(1.00319 0.00691563 0)
(1.00387 0.00707896 0)
(1.00227 0.00735554 0)
(1.00196 0.00658568 0)
(1.00194 0.00662831 0)
(1.00287 0.00707736 0)
(0.998786 -0.00337224 0)
(1.0002 0.00106709 0)
(1.00048 -0.0090061 0)
(0.99294 -0.00937945 0)
(0.989571 -0.000647103 0)
(0.996058 0.00142843 0)
(0.997682 -0.00131562 0)
(0.99606 -0.000678218 0)
(0.992208 0.00233133 0)
(0.995327 0.00439799 0)
(0.998184 0.00509426 0)
(0.999274 0.00758129 0)
(0.998535 0.00868205 0)
(1.00093 0.00750519 0)
(1.00305 0.00673514 0)
(1.00386 0.00689284 0)
(1.00215 0.00750449 0)
(1.00177 0.00691445 0)
(1.00191 0.0067534 0)
(1.00301 0.00691096 0)
(0.998898 -0.00313657 0)
(1.00011 0.000546746 0)
(1.00019 -0.00828055 0)
(0.993474 -0.00895296 0)
(0.990261 -0.000952572 0)
(0.996049 0.0011281 0)
(0.997551 -0.00122193 0)
(0.996261 -0.000630508 0)
(0.99251 0.00227367 0)
(0.995454 0.00437485 0)
(0.998358 0.00486319 0)
(0.99951 0.0070278 0)
(0.998439 0.00836391 0)
(1.00058 0.00752325 0)
(1.00286 0.00660971 0)
(1.00389 0.00665481 0)
(1.0021 0.00750581 0)
(1.00156 0.00724945 0)
(1.00179 0.00694287 0)
(1.00309 0.00682131 0)
(0.999002 -0.00290084 0)
(1.00003 5.84749e-05 0)
(0.999937 -0.00760479 0)
(0.993976 -0.00851636 0)
(0.990928 -0.00125089 0)
(0.996051 0.000854033 0)
(0.997424 -0.00112317 0)
(0.996465 -0.000590643 0)
(0.992826 0.0021887 0)
(0.995567 0.00433928 0)
(0.998495 0.00464412 0)
(0.999734 0.00651648 0)
(0.9984 0.0080195 0)
(1.00025 0.00747021 0)
(1.00263 0.00655155 0)
(1.00391 0.0064033 0)
(1.00214 0.00735337 0)
(1.00139 0.00742989 0)
(1.00159 0.00709631 0)
(1.00308 0.00676057 0)
(0.999097 -0.00268597 0)
(0.999978 -0.000371246 0)
(0.999709 -0.00699286 0)
(0.994444 -0.00806599 0)
(0.991565 -0.00154236 0)
(0.996071 0.000603336 0)
(0.997315 -0.00103822 0)
(0.996645 -0.000549268 0)
(0.993147 0.00206998 0)
(0.995674 0.00432412 0)
(0.998588 0.00446407 0)
(0.999962 0.00599615 0)
(0.998402 0.00765895 0)
(0.999941 0.00741967 0)
(1.00235 0.00647765 0)
(1.00391 0.00612225 0)
(1.00222 0.00710212 0)
(1.00126 0.00738569 0)
(1.00135 0.00721078 0)
(1.00302 0.00676765 0)
(0.999184 -0.00246469 0)
(0.999938 -0.00077666 0)
(0.999508 -0.00643411 0)
(0.994874 -0.00760245 0)
(0.99218 -0.00183244 0)
(0.996108 0.000383454 0)
(0.997206 -0.000952117 0)
(0.996823 -0.000523495 0)
(0.993485 0.00196719 0)
(0.995777 0.00420968 0)
(0.99863 0.00435018 0)
(1.00017 0.00556341 0)
(0.99847 0.0071858 0)
(0.999649 0.00733464 0)
(1.00201 0.00645656 0)
(1.00386 0.00589861 0)
(1.00233 0.00682149 0)
(1.0012 0.0072571 0)
(1.00113 0.00729295 0)
(1.00291 0.00682302 0)
(0.999261 -0.00226382 0)
(0.999915 -0.00112879 0)
(0.999337 -0.00592794 0)
(0.995262 -0.00713315 0)
(0.992769 -0.00210161 0)
(0.996174 0.000169848 0)
(0.997114 -0.000860992 0)
(0.996979 -0.000475945 0)
(0.993808 0.00180508 0)
(0.995884 0.00412687 0)
(0.998658 0.00423115 0)
(1.00033 0.00512166 0)
(0.998558 0.00678105 0)
(0.999421 0.00719381 0)
(1.00166 0.00638508 0)
(1.00376 0.00577394 0)
(1.00245 0.00654754 0)
(1.00118 0.00718204 0)
(1.00093 0.00746958 0)
(1.00277 0.00698974 0)
(0.999331 -0.00207312 0)
(0.999905 -0.00142914 0)
(0.999193 -0.00549676 0)
(0.995616 -0.00664154 0)
(0.99333 -0.00235351 0)
(0.99626 -3.8693e-05 0)
(0.99703 -0.000769364 0)
(0.997122 -0.000436919 0)
(0.994153 0.00165157 0)
(0.995997 0.00401188 0)
(0.998615 0.00411401 0)
(1.00049 0.00477734 0)
(0.998712 0.00634355 0)
(0.999188 0.00695006 0)
(1.00128 0.0063857 0)
(1.00363 0.00566809 0)
(1.00259 0.00623185 0)
(1.0013 0.00709811 0)
(1.0008 0.00752091 0)
(1.00251 0.00715418 0)
(0.999393 -0.00189133 0)
(0.999905 -0.00169269 0)
(0.999082 -0.00511932 0)
(0.995931 -0.00614937 0)
(0.993859 -0.00256889 0)
(0.99638 -0.0002532 0)
(0.996966 -0.000674023 0)
(0.997241 -0.000387319 0)
(0.994476 0.00151054 0)
(0.996113 0.00382058 0)
(0.998584 0.00404713 0)
(1.00059 0.004483 0)
(0.998842 0.00586576 0)
(0.999069 0.00672571 0)
(1.00093 0.00641555 0)
(1.00339 0.00557954 0)
(1.00273 0.005963 0)
(1.00144 0.006892 0)
(1.00069 0.00747037 0)
(1.00233 0.00725578 0)
(0.999448 -0.00173144 0)
(0.999915 -0.00189338 0)
(0.999 -0.00480866 0)
(0.996213 -0.00565863 0)
(0.994357 -0.00273348 0)
(0.996522 -0.000479144 0)
(0.996915 -0.000601569 0)
(0.997349 -0.000308208 0)
(0.994805 0.0013471 0)
(0.996251 0.00363768 0)
(0.9985 0.00396503 0)
(1.00065 0.00420683 0)
(0.999043 0.00548939 0)
(0.998976 0.00649058 0)
(1.00055 0.00633022 0)
(1.00313 0.00563436 0)
(1.00283 0.00582535 0)
(1.00165 0.00667587 0)
(1.00068 0.00753142 0)
(1.00213 0.00737024 0)
(0.999497 -0.00158049 0)
(0.999929 -0.00205666 0)
(0.99895 -0.0045498 0)
(0.99647 -0.00517753 0)
(0.994812 -0.00284528 0)
(0.996694 -0.0007179 0)
(0.9969 -0.000521669 0)
(0.997429 -0.000221247 0)
(0.995106 0.00121045 0)
(0.9964 0.00341977 0)
(0.998434 0.00386969 0)
(1.00068 0.00404232 0)
(0.999209 0.00507708 0)
(0.998952 0.00620319 0)
(1.00027 0.00632084 0)
(1.00285 0.0056843 0)
(1.00287 0.00572883 0)
(1.00191 0.00644665 0)
(1.00073 0.00745151 0)
(1.00188 0.00737922 0)
(0.999541 -0.00145043 0)
(0.999948 -0.00216512 0)
(0.99893 -0.00433694 0)
(0.996702 -0.00472834 0)
(0.995227 -0.00289293 0)
(0.996885 -0.000944879 0)
(0.996908 -0.00049639 0)
(0.997503 -0.000121084 0)
(0.995406 0.00112952 0)
(0.996571 0.00320149 0)
(0.998357 0.00375596 0)
(1.00065 0.00387239 0)
(0.999402 0.00475271 0)
(0.999006 0.00597732 0)
(0.999996 0.00621581 0)
(1.00253 0.00566283 0)
(1.00285 0.00567819 0)
(1.00216 0.00620609 0)
(1.00085 0.00724768 0)
(1.00168 0.00733447 0)
(0.999582 -0.00133468 0)
(0.999964 -0.00222972 0)
(0.998939 -0.00416351 0)
(0.996921 -0.00431299 0)
(0.995597 -0.00288285 0)
(0.99709 -0.00116487 0)
(0.996963 -0.00049146 0)
(0.99757 1.51232e-06 0)
(0.995666 0.00105419 0)
(0.996738 0.00295591 0)
(0.998305 0.00362184 0)
(1.00062 0.0037882 0)
(0.999574 0.00447492 0)
(0.999074 0.00564534 0)
(0.999777 0.00609091 0)
(1.00225 0.00569688 0)
(1.00279 0.00567689 0)
(1.00237 0.00597979 0)
(1.00102 0.00697872 0)
(1.00153 0.00722949 0)
(0.999618 -0.00123704 0)
(0.99998 -0.00225119 0)
(0.998972 -0.00401438 0)
(0.997128 -0.00394653 0)
(0.995925 -0.00282109 0)
(0.997302 -0.00134108 0)
(0.997051 -0.000535225 0)
(0.997639 0.000103206 0)
(0.995912 0.00103282 0)
(0.996926 0.00277358 0)
(0.998282 0.00349267 0)
(1.00054 0.00367238 0)
(0.999706 0.00418929 0)
(0.99921 0.00536139 0)
(0.999638 0.00600733 0)
(1.00195 0.00567361 0)
(1.00264 0.00559532 0)
(1.00251 0.0057496 0)
(1.00123 0.00667903 0)
(1.00147 0.00705351 0)
(0.999652 -0.00115455 0)
(0.999991 -0.00223229 0)
(0.999024 -0.0038898 0)
(0.997334 -0.00363246 0)
(0.996214 -0.0027116 0)
(0.997507 -0.00147416 0)
(0.99718 -0.000612508 0)
(0.997728 0.000190622 0)
(0.996134 0.00105231 0)
(0.997094 0.00259427 0)
(0.998261 0.00330688 0)
(1.00046 0.00355633 0)
(0.999845 0.00401344 0)
(0.999384 0.00510107 0)
(0.999526 0.00582662 0)
(1.00166 0.00557835 0)
(1.00247 0.00553445 0)
(1.00262 0.00561315 0)
(1.00147 0.00641014 0)
(1.00149 0.00680798 0)
(0.999684 -0.00108917 0)
(0.999996 -0.00217901 0)
(0.99909 -0.00377006 0)
(0.997538 -0.00337095 0)
(0.996472 -0.00258034 0)
(0.9977 -0.00155092 0)
(0.997337 -0.000709422 0)
(0.997838 0.000232414 0)
(0.996341 0.00107293 0)
(0.997256 0.00245451 0)
(0.998273 0.00316312 0)
(1.0004 0.0034683 0)
(0.999948 0.00384864 0)
(0.99955 0.00479578 0)
(0.999465 0.00560591 0)
(1.00141 0.00550167 0)
(1.0023 0.00549255 0)
(1.00266 0.00547286 0)
(1.00164 0.0061336 0)
(1.00157 0.00649747 0)
(0.999714 -0.00103562 0)
(0.999995 -0.00210225 0)
(0.999163 -0.00365407 0)
(0.997744 -0.00315453 0)
(0.996703 -0.00242913 0)
(0.997873 -0.00156948 0)
(0.997514 -0.00080802 0)
(0.997978 0.000230397 0)
(0.996545 0.00110317 0)
(0.997407 0.00236347 0)
(0.998285 0.00301886 0)
(1.00033 0.00333521 0)
(1.00003 0.00367559 0)
(0.999739 0.00452677 0)
(0.999471 0.00540223 0)
(1.0012 0.00539631 0)
(1.00209 0.00540237 0)
(1.00266 0.00532001 0)
(1.0018 0.00591203 0)
(1.00168 0.00624436 0)
(0.999743 -0.000994288 0)
(0.999987 -0.0020068 0)
(0.999238 -0.00352772 0)
(0.997954 -0.00298143 0)
(0.996917 -0.00227633 0)
(0.998024 -0.00153363 0)
(0.997696 -0.000892157 0)
(0.998147 0.000173462 0)
(0.996757 0.0011138 0)
(0.997544 0.00228733 0)
(0.998299 0.00288641 0)
(1.00027 0.00322536 0)
(1.0001 0.00354691 0)
(0.999931 0.00428004 0)
(0.999506 0.0051675 0)
(1.00101 0.00524946 0)
(1.00188 0.00530421 0)
(1.00264 0.00518639 0)
(1.00194 0.00569527 0)
(1.00176 0.00601648 0)
(0.99977 -0.000959758 0)
(0.999974 -0.00190491 0)
(0.999307 -0.00338511 0)
(0.998164 -0.00284268 0)
(0.997122 -0.00213381 0)
(0.998152 -0.00145523 0)
(0.997869 -0.000939009 0)
(0.998341 9.31555e-05 0)
(0.996986 0.00108609 0)
(0.997678 0.00222744 0)
(0.998316 0.00278523 0)
(1.0002 0.00310454 0)
(1.00014 0.00341009 0)
(1.00011 0.00402607 0)
(0.999585 0.00491203 0)
(1.00088 0.00509994 0)
(1.00168 0.00521207 0)
(1.00257 0.00506121 0)
(1.00206 0.00544644 0)
(1.00184 0.00577882 0)
(0.999796 -0.000930062 0)
(0.999957 -0.00179965 0)
(0.999368 -0.00322654 0)
(0.998373 -0.00272221 0)
(0.997323 -0.00200688 0)
(0.998262 -0.00134676 0)
(0.998025 -0.000936043 0)
(0.998542 4.49098e-06 0)
(0.997236 0.00100451 0)
(0.997819 0.00215722 0)
(0.998322 0.00269431 0)
(1.00014 0.00298373 0)
(1.00017 0.00328463 0)
(1.00028 0.00381244 0)
(0.999703 0.00466089 0)
(1.00079 0.00492272 0)
(1.00148 0.00509273 0)
(1.00245 0.00494513 0)
(1.00215 0.00522234 0)
(1.00195 0.00552179 0)
(0.99982 -0.000902382 0)
(0.999939 -0.0016968 0)
(0.999418 -0.00304961 0)
(0.998574 -0.00261187 0)
(0.997523 -0.00189955 0)
(0.99836 -0.00122773 0)
(0.998157 -0.000889319 0)
(0.998736 -6.46888e-05 0)
(0.997503 0.000887657 0)
(0.997978 0.00205324 0)
(0.998332 0.00261149 0)
(1.00008 0.00288251 0)
(1.00018 0.00316336 0)
(1.00043 0.00361141 0)
(0.999831 0.0044018 0)
(1.00074 0.00470774 0)
(1.00132 0.00493965 0)
(1.0023 0.00483674 0)
(1.00219 0.00504547 0)
(1.00207 0.0052523 0)
(0.999841 -0.00087334 0)
(0.999921 -0.00159995 0)
(0.999456 -0.00285846 0)
(0.998764 -0.00250071 0)
(0.997725 -0.0018138 0)
(0.998455 -0.00111308 0)
(0.998266 -0.000816356 0)
(0.998909 -9.78863e-05 0)
(0.997773 0.000762563 0)
(0.998161 0.00191546 0)
(0.998353 0.00251778 0)
(1.00001 0.00278505 0)
(1.00018 0.0030486 0)
(1.00056 0.00341652 0)
(0.999971 0.00415501 0)
(1.00074 0.00449686 0)
(1.0012 0.00476804 0)
(1.00216 0.00470087 0)
(1.00216 0.00488442 0)
(1.00215 0.00500883 0)
(0.999861 -0.000841426 0)
(0.999906 -0.00151171 0)
(0.999483 -0.00265693 0)
(0.998936 -0.00238175 0)
(0.997926 -0.00174697 0)
(0.99855 -0.00100902 0)
(0.998357 -0.000732735 0)
(0.999057 -9.62348e-05 0)
(0.998034 0.000650301 0)
(0.998364 0.00175306 0)
(0.998393 0.00241079 0)
(0.999938 0.00268847 0)
(1.00015 0.00294943 0)
(1.00066 0.00324799 0)
(1.00012 0.00390661 0)
(1.00076 0.00427907 0)
(1.00109 0.0045861 0)
(1.00203 0.00452917 0)
(1.00212 0.00471235 0)
(1.00219 0.00479664 0)
(0.999877 -0.000804975 0)