/*--------------------------------*- C++ -*----------------------------------*\
| =========                 |                                                 |
| \\      /  F ield         | OpenFOAM: The Open Source CFD Toolbox           |
|  \\    /   O peration     | Version:  v1912                                 |
|   \\  /    A nd           | Website:  www.openfoam.com                      |
|    \\/     M anipulation  |                                                 |
\*---------------------------------------------------------------------------*/
FoamFile
{
    version     2.0;
    format      ascii;
    class       volScalarField;
    location    "0.55";
    object      p;
}
// * * * * * * * * * * * * * * * * * * * * * * * * * * * * * * * * * * * * * //

dimensions      [0 2 -2 0 0 0 0];


internalField   nonuniform List<scalar> 
9600
(
-1.35883e-11
-5.56872e-05
-0.000139323
0.00131064
-0.00261039
0.000528351
0.00261615
0.00171122
0.0015056
0.00149753
0.00221725
0.00258644
0.00196462
0.00364787
0.00252092
0.00238228
0.00204595
0.00340881
0.00473265
0.0074839
1.06066e-06
-5.59155e-05
-0.00013779
0.00127696
-0.00259871
0.000540571
0.00259293
0.00170886
0.00150351
0.0015028
0.00222639
0.00257027
0.00196988
0.00354371
0.00254125
0.00237377
0.00205459
0.00338138
0.00475308
0.00713166
1.90387e-06
-5.63889e-05
-0.000137213
0.00125042
-0.0025824
0.000550399
0.00256902
0.00170872
0.00150127
0.00151068
0.00223259
0.00254122
0.00197439
0.0034555
0.00257268
0.00236293
0.00206481
0.00334914
0.00474754
0.00675987
2.06105e-06
-5.71059e-05
-0.000136295
0.00122663
-0.00256087
0.00055689
0.00254245
0.00170892
0.00149697
0.00151888
0.00223683
0.00249908
0.00198253
0.00336049
0.00260177
0.00235466
0.00207182
0.00331475
0.00471577
0.00641667
1.57425e-06
-5.7978e-05
-0.000134616
0.00120667
-0.00253111
0.000559876
0.00251112
0.00170903
0.00149017
0.00152681
0.00223961
0.00244884
0.00199571
0.00325996
0.00263222
0.00234565
0.00207783
0.00327629
0.00466519
0.00610326
5.17921e-07
-5.90043e-05
-0.000132098
0.00119073
-0.00249232
0.000557706
0.00247561
0.00170881
0.00148122
0.00153371
0.00224114
0.00239619
0.00201359
0.00315801
0.00266423
0.00233518
0.00208431
0.00323271
0.00459848
0.00581106
-1.00009e-06
-6.01627e-05
-0.000128648
0.00117805
-0.00244558
0.000551278
0.00243732
0.00170776
0.00147088
0.00153917
0.00224201
0.00234426
0.0020352
0.00305596
0.00269565
0.00232503
0.0020876
0.00318629
0.00451608
0.0055332
-2.83268e-06
-6.14195e-05
-0.000124311
0.00116737
-0.00239238
0.000542412
0.00239728
0.00170562
0.00145988
0.00154322
0.00224279
0.00229399
0.00205914
0.00295419
0.00272563
0.00231555
0.00208488
0.00313998
0.00441574
0.00526543
-4.84249e-06
-6.279e-05
-0.000119197
0.00115764
-0.00233408
0.000532442
0.00235603
0.00170233
0.00144867
0.00154598
0.00224389
0.00224522
0.0020839
0.00285347
0.00275335
0.00230695
0.00207514
0.00309466
0.00429598
0.00500622
-6.93712e-06
-6.43318e-05
-0.00011339
0.00114812
-0.00227178
0.000522143
0.00231385
0.00169784
0.00143754
0.00154753
0.00224538
0.0021974
0.00210822
0.00275482
0.00277753
0.00230036
0.00205708
0.00305019
0.00415825
0.00475397
-9.06724e-06
-6.61138e-05
-0.000106933
0.00113834
-0.0022063
0.000511935
0.00227095
0.0016921
0.00142673
0.00154784
0.00224719
0.00215012
0.00213111
0.00265923
0.00279691
0.00229694
0.00202909
0.00300654
0.0040053
0.00450464
-1.12079e-05
-6.81987e-05
-9.98321e-05
0.00112792
-0.00213822
0.000502028
0.00222745
0.00168507
0.00141636
0.00154683
0.00224919
0.00210312
0.00215177
0.00256765
0.00281021
0.00229752
0.00199001
0.00296318
0.00384043
0.00425307
-1.33418e-05
-7.06385e-05
-9.2074e-05
0.00111663
-0.00206797
0.000492515
0.00218351
0.00167667
0.00140655
0.00154441
0.00225118
0.00205628
0.00216945
0.00248098
0.00281601
0.00230259
0.0019393
0.00291853
0.00366777
0.00399517
-1.54507e-05
-7.34736e-05
-8.36346e-05
0.00110441
-0.00199578
0.000483421
0.00213928
0.00166684
0.00139734
0.00154052
0.00225296
0.00200964
0.00218336
0.00240008
0.00281295
0.00231226
0.00187711
0.00286986
0.00349227
0.0037291
-1.75114e-05
-7.67349e-05
-7.44891e-05
0.00109126
-0.00192186
0.000474711
0.00209491
0.00165547
0.00138868
0.00153516
0.00225424
0.00196336
0.00219269
0.00232573
0.00279997
0.00232613
0.00180439
0.00281342
0.00331931
0.00345506
-1.94945e-05
-8.04489e-05
-6.46163e-05
0.00107719
-0.00184636
0.000466267
0.00205051
0.00164244
0.00138047
0.00152832
0.00225467
0.00191777
0.00219654
0.00225857
0.00277635
0.00234319
0.00172303
0.00274511
0.0031537
0.00317478
-2.13636e-05
-8.46423e-05
-5.40039e-05
0.00106228
-0.00176942
0.000457897
0.00200616
0.00162773
0.00137246
0.00152004
0.00225395
0.00187339
0.00219401
0.00219901
0.00274187
0.00236179
0.00163571
0.00266126
0.0029987
0.00289117
-2.30759e-05
-8.93451e-05
-4.26496e-05
0.00104657
-0.00169125
0.000449431
0.00196197
0.00161135
0.00136436
0.00151043
0.00225174
0.00183072
0.00218426
0.00214722
0.00269694
0.00237962
0.00154533
0.0025593
0.00285541
0.00260837
-2.45798e-05
-9.45958e-05
-3.05633e-05
0.00103014
-0.00161207
0.000440766
0.00191796
0.00159338
0.00135582
0.00149958
0.00224765
0.00179016
0.00216674
0.00210297
0.00264245
0.00239403
0.00145464
0.00243787
0.0027232
0.00233157
-2.58179e-05
-0.000100439
-1.77746e-05
0.00101304
-0.00153209
0.000431835
0.00187412
0.00157401
0.00134649
0.00148757
0.00224138
0.00175198
0.00214125
0.00206541
0.00257977
0.00240243
0.00136589
0.00229692
0.00260022
0.00206664
-2.67272e-05
-0.000106924
-4.32946e-06
0.00099534
-0.00145152
0.000422645
0.00183039
0.00155352
0.00133609
0.00147439
0.00223272
0.00171638
0.00210774
0.00203343
0.00251034
0.00240242
0.00128098
0.00213755
0.00248323
0.0018196
-2.72373e-05
-0.000114101
9.71874e-06
0.000977088
-0.0013706
0.000413306
0.00178666
0.00153222
0.00132434
0.00145993
0.00222153
0.0016834
0.00206647
0.00200593
0.00243528
0.00239183
0.00120179
0.00196159
0.00236766
0.00159598
-2.72714e-05
-0.00012202
2.42818e-05
0.000958392
-0.00128959
0.000403941
0.00174274
0.00151045
0.001311
0.00144398
0.00220778
0.00165278
0.00201796
0.00198201
0.00235551
0.00236877
0.00112985
0.00177143
0.00224843
0.0014005
-2.6746e-05
-0.000130722
3.92282e-05
0.000939411
-0.00120876
0.000394738
0.00169839
0.00148854
0.00129592
0.00142617
0.0021916
0.00162424
0.0019626
0.00196077
0.00227212
0.00233165
0.00106612
0.00157037
0.00212057
0.00123602
-2.5576e-05
-0.00014024
5.44109e-05
0.000920316
-0.00112846
0.000385989
0.00165337
0.00146668
0.00127926
0.00140599
0.00217316
0.00159764
0.00190054
0.00194111
0.00218648
0.00227882
0.00101107
0.001363
0.00197921
0.00110241
-2.36749e-05
-0.000150596
6.96392e-05
0.000901337
-0.00104909
0.000377982
0.00160752
0.00144498
0.0012614
0.00138282
0.00215255
0.00157315
0.00183192
0.00192199
0.00210011
0.00220845
0.000964184
0.00115524
0.00182009
0.00099616
-2.096e-05
-0.00016178
8.46616e-05
0.000882738
-0.000971044
0.000370997
0.00156075
0.00142338
0.00124273
0.00135597
0.00212956
0.0015511
0.00175685
0.00190214
0.00201481
0.00211911
0.000923317
0.00095409
0.00164092
0.000910363
-1.73529e-05
-0.000173755
9.91728e-05
0.000864802
-0.000894823
0.000365321
0.00151315
0.00140161
0.001224
0.00132506
0.00210365
0.00153182
0.00167542
0.00187972
0.00193297
0.00201077
0.000884657
0.000766774
0.00144277
0.000834831
-1.27736e-05
-0.000186449
0.000112782
0.000847894
-0.000820896
0.000361169
0.00146499
0.00137906
0.0012063
0.00129015
0.00207379
0.00151575
0.00158799
0.00185235
0.00185694
0.00188512
0.000842801
0.0005995
0.00123113
0.000756851
-7.16086e-06
-0.000199744
0.000125041
0.0008324
-0.000749604
0.000358638
0.00141674
0.00135502
0.00119021
0.00125146
0.00203875
0.00150336
0.00149567
0.00181732
0.0017883
0.00174547
0.000791479
0.000455391
0.00101437
0.000664642
-4.69911e-07
-0.000213454
0.00013543
0.000818623
-0.000681114
0.000357601
0.0013691
0.00132859
0.00117596
0.00120981
0.00199715
0.00149466
0.00140007
0.00177173
0.00172781
0.00159656
0.000724985
0.000333092
0.000802021
0.000552592
7.31861e-06
-0.000227314
0.000143344
0.000806785
-0.000615429
0.000357696
0.00132298
0.0012991
0.0011656
0.00116646
0.00194766
0.00148885
0.00130322
0.0017131
0.001675
0.00144407
0.000639376
0.000228272
0.000603807
0.000422939
1.61904e-05
-0.000240998
0.000148172
0.000797067
-0.000552378
0.000358269
0.00127937
0.0012664
0.00115351
0.00112274
0.00188947
0.00148447
0.00120742
0.00163985
0.00162778
0.00129419
0.000533483
0.000134506
0.00042703
0.00028423
2.61032e-05
-0.000254133
0.000149328
0.000789539
-0.000491589
0.000358389
0.00123917
0.00123077
0.00114019
0.00107995
0.00182226
0.00147962
0.00111503
0.00155148
0.00158286
0.00115285
0.000409437
4.29173e-05
0.000273308
0.00014693
3.69601e-05
-0.000266268
0.000146341
0.000783997
-0.00043245
0.000356947
0.00120289
0.00119288
0.00112455
0.00103907
0.00174641
0.00147209
0.00102825
0.00144868
0.00153635
0.00102467
0.000271999
-5.4551e-05
0.00013835
1.96738e-05
4.86251e-05
-0.00027695
0.000138794
0.000780156
-0.000374146
0.000352998
0.00117057
0.00115404
0.00110503
0.00100027
0.00166319
0.0014595
0.000948584
0.00133283
0.0014841
0.000912675
0.000126524
-0.000162265
1.7026e-05
-9.52438e-05
6.09366e-05
-0.000285786
0.000126455
0.000778488
-0.000315954
0.000346101
0.0011417
0.00111597
0.00108066
0.000963131
0.00157408
0.00143888
0.000876969
0.00120599
0.00142206
0.000818515
-2.14669e-05
-0.000282853
-9.48393e-05
-0.000200184
7.36849e-05
-0.000292363
0.000109514
0.000775293
-0.000257295
0.000336107
0.00111518
0.00108027
0.00105118
0.000926494
0.00148046
0.0014107
0.000813897
0.00107104
0.00134614
0.000741943
-0.000164708
-0.000418966
-0.000200945
-0.000294563
8.65885e-05
-0.000296219
8.84731e-05
0.0007701
-0.000197775
0.000323335
0.00108947
0.00104806
0.00101747
0.000889119
0.00138309
0.00137295
0.000759534
0.000931861
0.00125265
0.000679117
-0.000293739
-0.000570955
-0.000308548
-0.000375174
9.92582e-05
-0.000296796
6.43011e-05
0.000761784
-0.000137417
0.000308756
0.00106294
0.00101991
0.000980831
0.000850127
0.00128242
0.00132448
0.000713515
0.000793301
0.00114001
0.000623159
-0.000400087
-0.000732688
-0.000427779
-0.000442103
0.000111239
-0.000293556
3.77241e-05
0.000748668
-7.6703e-05
0.000293756
0.00103439
0.000995656
0.000942311
0.000808911
0.00117907
0.0012648
0.000674362
0.000660011
0.00101004
0.000566037
-0.000481411
-0.000893449
-0.000565207
-0.000500831
0.00012213
-0.000286158
1.00551e-05
0.000729436
-1.67292e-05
0.000279904
0.00100328
0.000974338
0.000902943
0.000765552
0.00107391
0.00119304
0.00063938
0.000536337
0.000867097
0.000501092
-0.000541263
-0.00104335
-0.000721058
-0.000559659
0.000131621
-0.000274499
-1.73017e-05
0.000703217
4.09037e-05
0.000268129
0.000969586
0.000954879
0.000863415
0.00072076
0.000968132
0.00110827
0.00060491
0.000425739
0.000716641
0.000424362
-0.000584891
-0.00117471
-0.000891946
-0.000628654
0.000139471
-0.000258735
-4.3137e-05
0.000669811
9.44256e-05
0.000258787
0.000933725
0.000936574
0.000823924
0.0006751
0.000861715
0.00101135
0.000565837
0.000328635
0.000565112
0.000334578
-0.000618641
-0.00128178
-0.0010712
-0.000720139
0.000145544
-0.000239404
-6.62991e-05
0.000629803
0.000142044
0.000251948
0.000896323
0.000918838
0.000784444
0.000628547
0.000760005
0.000904049
0.000517188
0.000242456
0.000418586
0.000234294
-0.000649422
-0.0013625
-0.00124624
-0.000843271
0.000149801
-0.000217322
-8.58818e-05
0.000584516
0.000182164
0.000246371
0.000857879
0.000901604
0.000744908
0.000580493
0.000663626
0.00079035
0.00045689
0.000162956
0.000279921
0.000128476
-0.000682151
-0.00142161
-0.00140329
-0.000994154
0.000152291
-0.000193458
-0.000101246
0.000535788
0.000213683
0.000239665
0.000818167
0.000885575
0.000705894
0.000529309
0.000572108
0.000676182
0.000386279
8.47597e-05
0.000149085
2.11189e-05
-0.000716601
-0.00146692
-0.00153599
-0.00115493
0.000153148
-0.000168819
-0.000112054
0.000485538
0.00023599
0.00023013
0.000776314
0.000870905
0.000668676
0.000473732
0.00048455
0.00056577
0.000307859
4.7599e-06
2.34058e-05
-8.69728e-05
-0.000749966
-0.0015015
-0.00164811
-0.00130731
0.000152562
-0.000144343
-0.000118457
0.000435625
0.000249381
0.0002161
0.000730746
0.000856957
0.000635298
0.000414162
0.000398741
0.000460642
0.000226927
-7.6568e-05
-9.98902e-05
-0.000198078
-0.000782978
-0.00152171
-0.00174538
-0.00144514
0.000150755
-0.000120798
-0.00012101
0.000387258
0.000255082
0.000196824
0.000679238
0.000842498
0.000608035
0.000352185
0.000310838
0.000360128
0.000148584
-0.00015781
-0.00022127
-0.00031416
-0.00082127
-0.0015239
-0.00182464
-0.00157472
0.000147935
-9.87029e-05
-0.000120604
0.00034201
0.000254705
0.000171905
0.000619632
0.000825284
0.000588642
0.000290009
0.00021862
0.000262973
7.59784e-05
-0.000235148
-0.000339657
-0.000434321
-0.000871666
-0.00151466
-0.0018739
-0.0016988
0.000144302
-7.82915e-05
-0.000118363
0.000299978
0.000249925
0.000142347
0.000550659
0.000802101
0.000577349
0.000231042
0.000121727
0.000165837
9.63192e-06
-0.000303117
-0.00045374
-0.000557146
-0.0009361
-0.00150753
-0.00188675
-0.00180402
0.000139986
-5.9768e-05
-0.000115204
0.000260969
0.000242446
0.000109785
0.000471864
0.000768986
0.00057268
0.000180241
2.13967e-05
6.42268e-05
-5.24247e-05
-0.000356961
-0.000558529
-0.000681823
-0.00101194
-0.00151459
-0.00187622
-0.0018694
0.000135047
-4.32853e-05
-0.000111867
0.000224225
0.000232654
7.67415e-05
0.000383706
0.000721675
0.000571966
0.000142492
-7.9301e-05
-4.56044e-05
-0.000113663
-0.000395365
-0.000645365
-0.000805736
-0.00109812
-0.00153878
-0.00186273
-0.00188979
0.000129506
-2.84241e-05
-0.000108942
0.000188699
0.000223201
4.55144e-05
0.000288
0.000656844
0.00057052
0.000120516
-0.000175917
-0.000165605
-0.00018022
-0.000420628
-0.000706762
-0.00092142
-0.00119453
-0.00157719
-0.00186238
-0.00188527
0.000123339
-1.52075e-05
-0.000106663
0.000153148
0.000213052
1.84637e-05
0.000188414
0.000572749
0.000561723
0.000114087
-0.000260503
-0.000293795
-0.000260432
-0.000437025
-0.000738118
-0.00101648
-0.00129801
-0.00162925
-0.00187786
-0.00188049
0.000116462
-3.60628e-06
-0.000105105
0.000122315
0.000201222
-2.50049e-06
8.91639e-05
0.000469647
0.000538844
0.000120356
-0.000324842
-0.000425173
-0.00036075
-0.000455327
-0.000740761
-0.00107664
-0.00139956
-0.00169704
-0.00190583
-0.00189202
0.000108659
6.38858e-06
-0.000104071
8.45227e-05
0.000185798
-1.64678e-05
-5.07158e-06
0.000349428
0.000496656
0.00013377
-0.000364569
-0.000550968
-0.000481114
-0.00049092
-0.00072379
-0.0010907
-0.00147918
-0.00177976
-0.00194788
-0.00192007
9.9676e-05
1.4643e-05
-0.000102833
4.49559e-05
0.000164434
-2.3802e-05
-8.91571e-05
0.000215734
0.000431277
0.000146096
-0.000380086
-0.000657631
-0.000616001
-0.000554135
-0.000704982
-0.00106419
-0.0015116
-0.00186405
-0.00201109
-0.00196162
8.93327e-05
2.08239e-05
-0.000100752
3.93132e-06
0.000135395
-2.6792e-05
-0.000158658
7.521e-05
0.000339698
0.000149389
-0.000374306
-0.000735656
-0.000755159
-0.000648694
-0.000704688
-0.00101288
-0.00148567
-0.00191787
-0.0020938
-0.00202216
7.75651e-05
2.44901e-05
-9.76257e-05
-3.71347e-05
9.77458e-05
-2.95151e-05
-0.000211029
-6.29106e-05
0.000222212
0.000135264
-0.000352485
-0.000782465
-0.000879882
-0.000768409
-0.000737621
-0.000961835
-0.00141596
-0.00191003
-0.0021704
-0.00210852
6.44328e-05
2.50728e-05
-9.35315e-05
-7.62078e-05
5.16149e-05
-3.68406e-05
-0.000246528
-0.000189444
8.26647e-05
9.50179e-05
-0.00032304
-0.000799163
-0.000978928
-0.000899296
-0.000808198
-0.000934166
-0.00132624
-0.00184068
-0.00220052
-0.00220582
5.01134e-05
2.19e-05
-8.92775e-05
-0.000111474
-2.00629e-06
-5.31535e-05
-0.000267506
-0.00029666
-7.00426e-05
2.2593e-05
-0.000298206
-0.000787179
-0.00104767
-0.00102195
-0.000907758
-0.000943667
-0.0012474
-0.0017319
-0.00216006
-0.00227499
3.48408e-05
1.4682e-05
-8.61789e-05
-0.000141972
-6.05163e-05
-8.07092e-05
-0.000280263
-0.000380286
-0.000222362
-8.08501e-05
-0.000292355
-0.000753205
-0.00108195
-0.00112661
-0.00102232
-0.000989084
-0.00119659
-0.00161619
-0.00206242
-0.00228016
1.87833e-05
3.31979e-06
-8.58295e-05
-0.000167423
-0.000120307
-0.000119866
-0.000292508
-0.000441151
-0.000361144
-0.000208881
-0.000316931
-0.000713331
-0.00108254
-0.00120305
-0.00113685
-0.00106423
-0.00117846
-0.00151625
-0.00193404
-0.0022169
2.04536e-06
-1.20428e-05
-8.96938e-05
-0.000188347
-0.000177952
-0.000169259
-0.000310282
-0.000482686
-0.000478022
-0.000348745
-0.000374339
-0.000684489
-0.00105798
-0.00124333
-0.00123573
-0.00115753
-0.00119107
-0.00143857
-0.00180345
-0.00210512
-1.53735e-05
-3.08349e-05
-9.86768e-05
-0.000205912
-0.000231005
-0.000226346
-0.000337
-0.000512505
-0.000570255
-0.000485273
-0.000459838
-0.000677376
-0.00102462
-0.00125312
-0.00130296
-0.00125117
-0.00123207
-0.00138572
-0.00168222
-0.00197023
-3.35973e-05
-5.2318e-05
-0.000112978
-0.000221997
-0.000278243
-0.000287338
-0.000373489
-0.000538673
-0.00064027
-0.000607418
-0.000565497
-0.000697955
-0.000992807
-0.00124217
-0.00133731
-0.00132315
-0.00128852
-0.00136032
-0.00157667
-0.00182977
-5.28066e-05
-7.57208e-05
-0.000132311
-0.000238653
-0.000319308
-0.00034835
-0.00041865
-0.000566732
-0.000693029
-0.000709076
-0.000677324
-0.000747421
-0.000971459
-0.00121775
-0.00134833
-0.00136399
-0.00133732
-0.00135741
-0.00149308
-0.00169504
-7.31872e-05
-0.000100408
-0.000156027
-0.000257444
-0.000354904
-0.000406267
-0.000470259
-0.000599364
-0.000735485
-0.000791223
-0.000781237
-0.000818285
-0.000972937
-0.00118509
-0.00134035
-0.00138207
-0.00136275
-0.00135926
-0.00142974
-0.00157386
-9.48926e-05
-0.00012595
-0.00018302
-0.000279254
-0.000386324
-0.000459074
-0.000525412
-0.000637666
-0.000772632
-0.000857876
-0.000871948
-0.00089681
-0.00100187
-0.00115872
-0.00131276
-0.00138289
-0.00136764
-0.00134852
-0.00137452
-0.00146551
-0.000117916
-0.000151978
-0.000211983
-0.000304261
-0.000415147
-0.000505849
-0.000580766
-0.000681612
-0.000807868
-0.000911516
-0.00095059
-0.000971013
-0.00104736
-0.00115525
-0.00127423
-0.0013632
-0.0013596
-0.00132331
-0.00131586
-0.00136234
-0.000142129
-0.000178223
-0.000241596
-0.000331912
-0.000443066
-0.000546774
-0.000633124
-0.000729219
-0.000844539
-0.000954711
-0.00101763
-0.00103888
-0.00109536
-0.00117435
-0.00124427
-0.00132235
-0.00133658
-0.00128959
-0.00125341
-0.00126192
-0.000167123
-0.000204498
-0.000270813
-0.000361225
-0.00047125
-0.000582937
-0.00068035
-0.0007774
-0.000884264
-0.000991451
-0.00107211
-0.00110134
-0.00113704
-0.00120022
-0.00123438
-0.00127288
-0.00129303
-0.0012476
-0.00119193
-0.00117217
-0.000192314
-0.000230542
-0.000298997
-0.000390831
-0.000499884
-0.000615573
-0.00072178
-0.000822835
-0.000925794
-0.00102609
-0.00111404
-0.00115678
-0.00117506
-0.00121835
-0.00123525
-0.00122909
-0.00123265
-0.00119486
-0.00113595
-0.0011034
-0.000216876
-0.000255874
-0.000325758
-0.000419352
-0.000528243
-0.000645815
-0.000758167
-0.000863365
-0.000965694
-0.00106018
-0.00114591
-0.00120097
-0.00121282
-0.00123003
-0.0012352
-0.00119714
-0.00116761
-0.00113412
-0.00108589
-0.00105675
-0.000240078
-0.000279811
-0.000350576
-0.000445792
-0.000555325
-0.000673865
-0.000790227
-0.000899021
-0.00100151
-0.00109248
-0.00117061
-0.00123012
-0.00124628
-0.00124261
-0.00123591
-0.00118585
-0.00112435
-0.00107709
-0.00103345
-0.00101169
-0.000260769
-0.000301467
-0.000373023
-0.000469683
-0.000580583
-0.000699673
-0.000818283
-0.000930139
-0.00103356
-0.00112345
-0.00119457
-0.00124843
-0.00126641
-0.0012477
-0.00122442
-0.00117717
-0.00110825
-0.00105449
-0.00101982
-0.00101216
-0.000278025
-0.000318989
-0.000390345
-0.000487078
-0.000598769
-0.000718184
-0.000837224
-0.000950516
-0.00105439
-0.00114457
-0.00121357
-0.00126054
-0.00128073
-0.00126026
-0.00121827
-0.00116226
-0.0010858
-0.00101596
-0.000973264
-0.000968656
-0.00029347
-0.000335936
-0.000409579
-0.00050821
-0.000621951
-0.000743607
-0.000864244
-0.00097889
-0.00108353
-0.0011735
-0.00124172
-0.00128321
-0.00129868
-0.00127925
-0.00123105
-0.00116952
-0.00109544
-0.00102352
-0.000977381
-0.000973122
0.00987635
0.00465212
-0.00291174
-0.00841406
-0.0097703
-0.00877343
-0.00730185
-0.00612503
-0.0055416
-0.00531841
-0.00517281
-0.00516324
-0.00525331
-0.00521527
-0.00504979
-0.00489777
-0.0047491
-0.00459638
-0.00450175
-0.00441859
-0.00426943
-0.0041042
-0.00400746
-0.00395499
-0.00388058
-0.00379111
-0.00371758
-0.00365812
-0.00359423
-0.00351764
-0.00342448
-0.00331652
-0.00321025
-0.00312588
-0.00307255
-0.00304274
-0.00304893
-0.00310354
-0.00313548
-0.0030962
-0.00303448
-0.00296555
-0.00287702
-0.00280724
-0.00277883
-0.00274397
-0.00267694
-0.00262651
-0.0026099
-0.00257517
-0.00251888
-0.00245952
-0.00238286
-0.00230566
-0.0022358
-0.00214208
-0.00203843
-0.00195698
-0.00186409
-0.00174816
-0.00163743
-0.00153334
-0.00141541
-0.00128642
-0.00115792
-0.00102562
-0.000893229
-0.000754149
-0.000608273
-0.000443814
-0.000273028
-0.000110429
4.0803e-05
0.000190839
0.000354826
0.00052506
0.000710227
0.000896419
0.00108579
0.00127225
0.00145805
0.00164947
0.0018408
0.00204026
0.00224208
0.00244901
0.00266206
0.00287642
0.00309891
0.00332135
0.00355336
0.00378455
0.00402483
0.0042723
0.00451514
0.00478158
0.00505608
0.00531657
0.00562134
0.00596457
0.00923981
0.00454223
-0.00281146
-0.00827406
-0.00968948
-0.0087352
-0.00727757
-0.00610617
-0.00552674
-0.00530666
-0.0051628
-0.0051548
-0.00524679
-0.00521014
-0.00504536
-0.00489391
-0.00474565
-0.00459309
-0.00449873
-0.00441598
-0.00426703
-0.00410182
-0.00400519
-0.00395293
-0.00387867
-0.00378927
-0.00371583
-0.00365646
-0.00359268
-0.0035162
-0.00342313
-0.00331525
-0.00320903
-0.00312471
-0.00307143
-0.00304168
-0.00304789
-0.00310258
-0.00313463
-0.00309539
-0.0030337
-0.00296483
-0.00287634
-0.00280656
-0.00277819
-0.00274341
-0.0026764
-0.00262597
-0.00260941
-0.00257473
-0.00251847
-0.00245915
-0.00238251
-0.00230533
-0.0022355
-0.00214182
-0.00203818
-0.00195675
-0.0018639
-0.00174799
-0.00163727
-0.0015332
-0.00141528
-0.00128631
-0.00115781
-0.00102553
-0.000893147
-0.000754078
-0.000608213
-0.000443763
-0.000272979
-0.000110382
4.08456e-05
0.000190873
0.000354855
0.000525084
0.000710247
0.000896437
0.0010858
0.00127226
0.00145806
0.00164948
0.0018408
0.00204027
0.00224209
0.00244901
0.00266206
0.00287642
0.00309891
0.00332135
0.00355336
0.00378455
0.00402483
0.0042723
0.00451514
0.00478158
0.00505609
0.00531659
0.00562137
0.00596461
0.00863899
0.00442403
-0.00260751
-0.00800133
-0.0095459
-0.00868199
-0.00725365
-0.00608986
-0.00551329
-0.00529512
-0.00515241
-0.00514534
-0.00523866
-0.00520348
-0.0050401
-0.00488995
-0.00474246
-0.00459014
-0.00449605
-0.00441365
-0.00426489
-0.00409976
-0.00400328
-0.00395121
-0.00387706
-0.00378774
-0.00371437
-0.0036551
-0.0035914
-0.00351499
-0.003422
-0.00331416
-0.00320799
-0.00312369
-0.00307046
-0.00304075
-0.00304701
-0.00310182
-0.003134
-0.00309475
-0.00303306
-0.00296423
-0.00287576
-0.00280597
-0.00277766
-0.00274294
-0.00267594
-0.00262552
-0.00260901
-0.00257438
-0.00251812
-0.00245884
-0.00238222
-0.00230505
-0.00223526
-0.00214161
-0.00203797
-0.00195657
-0.00186375
-0.00174784
-0.00163713
-0.00153308
-0.00141518
-0.00128621
-0.00115773
-0.00102545
-0.000893078
-0.00075402
-0.000608166
-0.000443722
-0.000272933
-0.000110338
4.08829e-05
0.0001909
0.000354877
0.000525103
0.000710264
0.000896454
0.00108582
0.00127228
0.00145807
0.00164949
0.00184081
0.00204027
0.00224209
0.00244901
0.00266206
0.00287642
0.00309892
0.00332136
0.00355336
0.00378455
0.00402483
0.0042723
0.00451514
0.00478158
0.00505609
0.00531659
0.00562138
0.00596467
0.00806806
0.00430459
-0.00235097
-0.00765002
-0.00934107
-0.00860233
-0.0072176
-0.00606657
-0.00549478
-0.00528016
-0.00514012
-0.00513363
-0.00522651
-0.00519201
-0.00503086
-0.00488338
-0.00473776
-0.00458623
-0.00449244
-0.00441041
-0.00426214
-0.00409739
-0.00400109
-0.00394913
-0.00387514
-0.00378603
-0.00371284
-0.00365366
-0.00359002
-0.00351367
-0.00342075
-0.00331296
-0.00320681
-0.00312253
-0.00306933
-0.00303968
-0.00304604
-0.00310103
-0.00313333
-0.00309404
-0.00303233
-0.00296356
-0.00287511
-0.00280533
-0.00277707
-0.00274241
-0.00267542
-0.00262501
-0.00260857
-0.00257397
-0.00251772
-0.00245848
-0.00238189
-0.00230472
-0.00223497
-0.00214135
-0.00203771
-0.00195635
-0.00186356
-0.00174765
-0.00163696
-0.00153294
-0.00141506
-0.00128609
-0.00115762
-0.00102536
-0.000892996
-0.000753952
-0.000608111
-0.000443672
-0.000272877
-0.000110283
4.09278e-05
0.000190931
0.000354904
0.000525124
0.000710284
0.000896475
0.00108584
0.00127229
0.00145808
0.0016495
0.00184082
0.00204028
0.0022421
0.00244902
0.00266207
0.00287643
0.00309892
0.00332136
0.00355336
0.00378455
0.00402483
0.0042723
0.00451514
0.00478158
0.00505609
0.00531659
0.0056214
0.00596477
0.00750526
0.00416622
-0.00208821
-0.00727654
-0.00911222
-0.00850972
-0.00717501
-0.00603817
-0.00547123
-0.00526122
-0.00512552
-0.00511936
-0.00520979
-0.00517494
-0.00501668
-0.00487306
-0.00473057
-0.00458065
-0.00448719
-0.00440551
-0.00425829
-0.00409451
-0.00399842
-0.00394634
-0.00387251
-0.00378384
-0.00371104
-0.00365204
-0.00358848
-0.00351221
-0.00341936
-0.00331161
-0.00320545
-0.00312112
-0.00306791
-0.00303835
-0.0030449
-0.00310013
-0.00313254
-0.00309318
-0.00303142
-0.00296273
-0.00287436
-0.00280458
-0.00277632
-0.00274171
-0.00267478
-0.00262442
-0.00260803
-0.00257344
-0.00251721
-0.00245803
-0.00238147
-0.00230429
-0.00223458
-0.00214099
-0.00203738
-0.00195606
-0.00186331
-0.0017474
-0.00163674
-0.00153275
-0.00141489
-0.00128594
-0.00115748
-0.00102523
-0.000892884
-0.000753857
-0.000608034
-0.000443602
-0.0002728
-0.00011021
4.09878e-05
0.000190972
0.00035494
0.000525155
0.000710314
0.000896506
0.00108586
0.00127232
0.0014581
0.00164952
0.00184083
0.00204029
0.0022421
0.00244902
0.00266207
0.00287643
0.00309892
0.00332136
0.00355337
0.00378455
0.00402483
0.0042723
0.00451514
0.00478157
0.00505609
0.00531658
0.0056214
0.0059649
0.006949
0.00399702
-0.00183492
-0.00689473
-0.00886916
-0.00841057
-0.00713056
-0.00600745
-0.0054441
-0.00523909
-0.00510912
-0.00510341
-0.00518993
-0.00515371
-0.00499843
-0.00485925
-0.00472073
-0.00457306
-0.00447986
-0.0043985
-0.00425302
-0.00409101
-0.00399521
-0.00394268
-0.00386895
-0.00378092
-0.00370867
-0.00364997
-0.00358663
-0.00351057
-0.00341792
-0.0033103
-0.00320409
-0.00311953
-0.00306615
-0.00303667
-0.00304349
-0.00309901
-0.00313154
-0.00309209
-0.00303026
-0.00296169
-0.00287349
-0.00280371
-0.00277534
-0.00274075
-0.00267396
-0.0026237
-0.00260733
-0.00257272
-0.00251652
-0.00245743
-0.00238091
-0.00230371
-0.00223402
-0.00214049
-0.00203691
-0.00195564
-0.00186292
-0.00174704
-0.00163642
-0.00153247
-0.00141464
-0.00128571
-0.00115728
-0.00102505
-0.000892721
-0.000753718
-0.000607916
-0.000443496
-0.000272688
-0.000110106
4.10728e-05
0.000191034
0.000354994
0.000525202
0.00071036
0.000896551
0.0010859
0.00127235
0.00145812
0.00164954
0.00184085
0.0020403
0.00224212
0.00244903
0.00266208
0.00287643
0.00309893
0.00332136
0.00355337
0.00378455
0.00402483
0.0042723
0.00451513
0.00478155
0.00505608
0.00531655
0.00562139
0.00596508
0.00640094
0.00379697
-0.00159243
-0.00650435
-0.00861193
-0.00830569
-0.0070857
-0.00597583
-0.00541446
-0.00521436
-0.00509104
-0.00508625
-0.00516848
-0.00513043
-0.00497804
-0.00484336
-0.00470899
-0.00456369
-0.00447051
-0.00438938
-0.00424633
-0.00408684
-0.00399141
-0.00393816
-0.00386449
-0.00377722
-0.00370555
-0.00364715
-0.00358414
-0.00350854
-0.0034164
-0.00330917
-0.00320297
-0.00311801
-0.00306423
-0.00303471
-0.00304177
-0.00309752
-0.00313015
-0.00309063
-0.00302874
-0.00296038
-0.00287251
-0.00280272
-0.00277407
-0.00273944
-0.00267288
-0.00262279
-0.00260639
-0.00257172
-0.00251558
-0.00245663
-0.00238014
-0.0023029
-0.00223322
-0.00213976
-0.00203627
-0.00195504
-0.00186235
-0.00174651
-0.00163596
-0.00153206
-0.00141426
-0.00128537
-0.00115698
-0.00102477
-0.000892479
-0.000753506
-0.000607733
-0.000443329
-0.000272523
-0.000109954
4.11979e-05
0.000191129
0.000355077
0.000525275
0.00071043
0.000896619
0.00108596
0.00127241
0.00145817
0.00164958
0.00184088
0.00204033
0.00224214
0.00244905
0.0026621
0.00287645
0.00309894
0.00332137
0.00355337
0.00378456
0.00402483
0.0042723
0.00451513
0.00478153
0.00505606
0.0053165
0.00562134
0.00596528
0.00586828
0.00357321
-0.00135946
-0.00610611
-0.0083411
-0.00819565
-0.00704123
-0.00594414
-0.00538286
-0.00518713
-0.00507109
-0.00506791
-0.00514602
-0.00510607
-0.00495656
-0.00482639
-0.00469616
-0.0045531
-0.0044596
-0.00437862
-0.00423846
-0.00408206
-0.00398709
-0.00393295
-0.00385934
-0.00377294
-0.00370177
-0.00364347
-0.00358076
-0.00350582
-0.00341456
-0.00330813
-0.00320222
-0.00311686
-0.00306249
-0.0030328
-0.00303995
-0.00309568
-0.00312823
-0.0030886
-0.00302665
-0.00295869
-0.00287144
-0.00280167
-0.00277251
-0.00273772
-0.00267152
-0.00262165
-0.00260513
-0.00257033
-0.00251429
-0.00245555
-0.00237914
-0.00230182
-0.00223209
-0.00213875
-0.00203539
-0.00195418
-0.00186151
-0.00174576
-0.0016353
-0.00153145
-0.00141369
-0.00128486
-0.00115654
-0.00102437
-0.000892126
-0.000753197
-0.000607459
-0.000443076
-0.000272277
-0.00010973
4.13845e-05
0.000191275
0.000355202
0.000525386
0.000710536
0.00089672
0.00108605
0.00127249
0.00145824
0.00164964
0.00184093
0.00204037
0.00224218
0.00244908
0.00266212
0.00287647
0.00309895
0.00332138
0.00355338
0.00378456
0.00402483
0.0042723
0.00451512
0.00478151
0.00505603
0.00531642
0.00562126
0.00596552
0.00535984
0.00333096
-0.00114148
-0.00570506
-0.0080578
-0.00807959
-0.0069966
-0.00591251
-0.00534938
-0.00515723
-0.0050491
-0.0050484
-0.00512273
-0.00508087
-0.00493427
-0.00480866
-0.00468256
-0.00454164
-0.00444764
-0.00436671
-0.00422971
-0.00407678
-0.00398235
-0.0039272
-0.00385371
-0.0037683
-0.00369757
-0.00363913
-0.0035765
-0.00350226
-0.00341217
-0.00330698
-0.00320173
-0.00311615
-0.00306123
-0.00303133
-0.00303841
-0.00309377
-0.00312588
-0.0030859
-0.00302379
-0.00295642
-0.0028702
-0.0028006
-0.00277073
-0.00273566
-0.00266989
-0.00262026
-0.0026035
-0.00256848
-0.00251257
-0.00245413
-0.00237786
-0.00230041
-0.00223059
-0.00213741
-0.00203423
-0.00195304
-0.00186036
-0.00174473
-0.00163439
-0.00153059
-0.00141289
-0.00128416
-0.00115591
-0.0010238
-0.000891626