/*--------------------------------*- C++ -*----------------------------------*\
| =========                 |                                                 |
| \\      /  F ield         | OpenFOAM: The Open Source CFD Toolbox           |
|  \\    /   O peration     | Version:  v1912                                 |
|   \\  /    A nd           | Website:  www.openfoam.com                      |
|    \\/     M anipulation  |                                                 |
\*---------------------------------------------------------------------------*/
FoamFile
{
    version     2.0;
    format      ascii;
    class       volVectorField;
    location    "6.15";
    object      U;
}
// * * * * * * * * * * * * * * * * * * * * * * * * * * * * * * * * * * * * * //

dimensions      [0 1 -1 0 0 0 0];


internalField   nonuniform List<vector> 
9600
(
(0.894895 -0.0135475 0)
(1.0769 0.00823397 0)
(0.961337 0.00182449 0)
(1.04838 0.0320085 0)
(0.950483 -0.00893601 0)
(0.966091 -0.0292694 0)
(0.961003 -0.0321165 0)
(1.0252 -0.0261595 0)
(1.02348 0.00608314 0)
(1.09745 -0.00145113 0)
(1.00917 0.0281495 0)
(1.11252 0.0316766 0)
(1.07478 0.0101663 0)
(1.06731 0.0055007 0)
(1.05717 -0.00224475 0)
(1.05499 -0.0272059 0)
(0.993299 -0.00635799 0)
(1.03682 -0.0485456 0)
(0.882637 -0.00865974 0)
(1.04772 -0.0471754 0)
(0.908481 -0.0134204 0)
(1.07372 0.00786185 0)
(0.973174 0.00201328 0)
(1.04488 0.0320299 0)
(0.973699 -0.00800406 0)
(0.952378 -0.0293479 0)
(0.952958 -0.0330524 0)
(1.00982 -0.0269965 0)
(1.0251 0.00493861 0)
(1.08756 -0.00101509 0)
(1.02132 0.0279824 0)
(1.09176 0.0307096 0)
(1.09296 0.0110811 0)
(1.05654 0.00585973 0)
(1.07208 -0.00194792 0)
(1.03445 -0.0254516 0)
(1.03325 -0.00620534 0)
(0.993656 -0.0450077 0)
(0.970524 -0.00836231 0)
(0.959101 -0.0464395 0)
(0.926478 -0.0133463 0)
(1.06384 0.00738386 0)
(0.994373 0.00224275 0)
(1.04092 0.0320913 0)
(0.990196 -0.00716971 0)
(0.950454 -0.0290152 0)
(0.95071 -0.0335316 0)
(0.993583 -0.0277503 0)
(1.02674 0.00381647 0)
(1.07535 -0.00102674 0)
(1.03634 0.0277317 0)
(1.07993 0.0296402 0)
(1.09101 0.0114377 0)
(1.06926 0.00626883 0)
(1.06244 -0.00136869 0)
(1.04851 -0.0245924 0)
(1.02086 -0.00587648 0)
(1.01326 -0.0426326 0)
(0.976909 -0.0103831 0)
(0.975438 -0.0385844 0)
(0.945553 -0.0133029 0)
(1.04907 0.00686635 0)
(1.01557 0.00239035 0)
(1.03697 0.0321605 0)
(1.00162 -0.00631671 0)
(0.954131 -0.028605 0)
(0.949353 -0.0339808 0)
(0.979491 -0.0286262 0)
(1.02506 0.0026811 0)
(1.06467 -0.00120314 0)
(1.04756 0.0275451 0)
(1.07791 0.0289283 0)
(1.09011 0.0115452 0)
(1.07205 0.00669356 0)
(1.06843 -0.000718915 0)
(1.04317 -0.0236498 0)
(1.02766 -0.00474037 0)
(1.00729 -0.0417292 0)
(0.98298 -0.00818848 0)
(0.969362 -0.0377359 0)
(0.962741 -0.0132635 0)
(1.03388 0.00629152 0)
(1.02841 0.00245854 0)
(1.03216 0.0322769 0)
(1.00912 -0.00549532 0)
(0.9622 -0.0280261 0)
(0.950898 -0.0341904 0)
(0.969872 -0.0294646 0)
(1.01995 0.00146974 0)
(1.05502 -0.00156703 0)
(1.05321 0.0272284 0)
(1.0796 0.028351 0)
(1.09005 0.011639 0)
(1.07313 0.00705938 0)
(1.06932 -4.12293e-05 0)
(1.04439 -0.022299 0)
(1.02735 -0.00473544 0)
(1.01156 -0.0390053 0)
(0.986048 -0.00860556 0)
(0.97442 -0.0344988 0)
(0.976228 -0.0132231 0)
(1.02101 0.00573462 0)
(1.0298 0.00248505 0)
(1.02618 0.0324284 0)
(1.01425 -0.00478851 0)
(0.971037 -0.0274279 0)
(0.955145 -0.0342352 0)
(0.964595 -0.0302208 0)
(1.01342 0.000211485 0)
(1.04528 -0.00209387 0)
(1.05438 0.0266833 0)
(1.08089 0.0277568 0)
(1.08922 0.0117672 0)
(1.07307 0.00742988 0)
(1.06892 0.000743791 0)
(1.04415 -0.0211772 0)
(1.02717 -0.00411671 0)
(1.01184 -0.0371659 0)
(0.9884 -0.00857464 0)
(0.97717 -0.0314932 0)
(0.985536 -0.013172 0)
(1.01058 0.0052866 0)
(1.02187 0.00248938 0)
(1.01994 0.0325043 0)
(1.01889 -0.00419474 0)
(0.979679 -0.0268019 0)
(0.961356 -0.0341116 0)
(0.96276 -0.0308586 0)
(1.00767 -0.00101912 0)
(1.03561 -0.0027404 0)
(1.05326 0.0259106 0)
(1.08114 0.0271609 0)
(1.08748 0.011925 0)
(1.07208 0.00780995 0)
(1.0675 0.00151091 0)
(1.04303 -0.019837 0)
(1.02617 -0.0037801 0)
(1.01254 -0.0349959 0)
(0.990184 -0.00858956 0)
(0.98057 -0.0283977 0)
(0.991113 -0.0130942 0)
(1.002 0.00498349 0)
(1.00947 0.00246364 0)
(1.01545 0.0324141 0)
(1.02401 -0.00372402 0)
(0.987787 -0.026186 0)
(0.968272 -0.0338689 0)
(0.963196 -0.0313753 0)
(1.00405 -0.00216928 0)
(1.02685 -0.00348716 0)
(1.0519 0.0249224 0)
(1.08117 0.0265702 0)
(1.08509 0.0121038 0)
(1.07023 0.00820029 0)
(1.06524 0.00235052 0)
(1.04093 -0.018502 0)
(1.02435 -0.00346989 0)
(1.01242 -0.0328327 0)
(0.99144 -0.0087341 0)
(0.983071 -0.0254076 0)
(0.993883 -0.0129778 0)
(0.99532 0.00481947 0)
(0.997341 0.0023863 0)
(1.01444 0.0321074 0)
(1.02972 -0.00334281 0)
(0.995406 -0.0255604 0)
(0.974956 -0.0335166 0)
(0.96482 -0.031785 0)
(1.00281 -0.00322952 0)
(1.0198 -0.0043024 0)
(1.05128 0.0237254 0)
(1.08135 0.0259932 0)
(1.08212 0.0123371 0)
(1.06734 0.00863413 0)
(1.06192 0.00320339 0)
(1.038 -0.01708 0)
(1.02169 -0.00322756 0)
(1.01154 -0.03065 0)
(0.992245 -0.00896679 0)
(0.984613 -0.0225513 0)
(0.994924 -0.012821 0)
(0.991088 0.00476023 0)
(0.988345 0.0022274 0)
(1.01699 0.0315824 0)
(1.03523 -0.00300939 0)
(1.00234 -0.0249217 0)
(0.980819 -0.0330676 0)
(0.96665 -0.0321251 0)
(1.00313 -0.00421322 0)
(1.01482 -0.00515639 0)
(1.05111 0.0223349 0)
(1.08115 0.0254622 0)
(1.07835 0.0126655 0)
(1.06311 0.00911447 0)
(1.0574 0.00406728 0)
(1.03431 -0.0155838 0)
(1.01851 -0.00305834 0)
(1.00987 -0.0285058 0)
(0.992569 -0.00925883 0)
(0.985269 -0.0198656 0)
(0.995245 -0.0126323 0)
(0.989392 0.00475594 0)
(0.983324 0.00198068 0)
(1.02125 0.0308748 0)
(1.0393 -0.00268801 0)
(1.00816 -0.024263 0)
(0.985654 -0.0325159 0)
(0.968004 -0.0324071 0)
(1.00346 -0.00514826 0)
(1.01141 -0.00603602 0)
(1.05024 0.0207962 0)
(1.07937 0.0250065 0)
(1.07325 0.0131084 0)
(1.05716 0.00965803 0)
(1.05161 0.00492355 0)
(1.03006 -0.0140472 0)
(1.0151 -0.00296063 0)
(1.00772 -0.0264028 0)
(0.992401 -0.00957806 0)
(0.985337 -0.0173714 0)
(0.995595 -0.0124279 0)
(0.989501 0.00477023 0)
(0.981785 0.00166925 0)
(1.02458 0.0300483 0)
(1.04105 -0.00236429 0)
(1.01237 -0.0235943 0)
(0.989527 -0.0318539 0)
(0.968838 -0.0326165 0)
(1.00223 -0.00604249 0)
(1.00809 -0.00692106 0)
(1.04687 0.0191791 0)
(1.07445 0.0246323 0)
(1.06617 0.0136616 0)
(1.04932 0.0102636 0)
(1.04466 0.0057212 0)
(1.02553 -0.0125197 0)
(1.01176 -0.00292056 0)
(1.00545 -0.0243615 0)
(0.991859 -0.00988816 0)
(0.9851 -0.0151124 0)
(0.996338 -0.0122217 0)
(0.99028 0.00478241 0)
(0.982598 0.00133536 0)
(1.02508 0.0291664 0)
(1.0404 -0.00204154 0)
(1.01484 -0.0229405 0)
(0.992567 -0.0310968 0)
(0.969684 -0.0327116 0)
(0.998633 -0.00689707 0)
(1.00337 -0.00776193 0)
(1.03941 0.0175672 0)
(1.0651 0.0243168 0)
(1.05669 0.0142771 0)
(1.0399 0.0108882 0)
(1.03695 0.00639837 0)
(1.02108 -0.0110589 0)
(1.00872 -0.0029369 0)
(1.00334 -0.0223994 0)
(0.99118 -0.0101622 0)
(0.984759 -0.0130964 0)
(0.997461 -0.0120201 0)
(0.990857 0.00478091 0)
(0.984502 0.00102449 0)
(1.02254 0.0282777 0)
(1.038 -0.00174245 0)
(1.01583 -0.0223287 0)
(0.994846 -0.0302802 0)
(0.971068 -0.0326496 0)
(0.993117 -0.00766357 0)
(0.996888 -0.00851166 0)
(1.02764 0.016034 0)
(1.05137 0.0240176 0)
(1.04514 0.0148578 0)
(1.02972 0.0114632 0)
(1.02914 0.00690203 0)
(1.017 -0.0097191 0)
(1.00616 -0.00301125 0)
(1.00157 -0.0205282 0)
(0.990613 -0.0103716 0)
(0.984474 -0.0113167 0)
(0.998725 -0.0118232 0)
(0.990937 0.00476382 0)
(0.986492 0.000767244 0)
(1.01807 0.0274097 0)
(1.03483 -0.00148741 0)
(1.01588 -0.0217727 0)
(0.996427 -0.0294422 0)
(0.973049 -0.032422 0)
(0.986946 -0.00827315 0)
(0.989578 -0.00910704 0)
(1.01326 0.014641 0)
(1.03509 0.0236782 0)
(1.03275 0.0152946 0)
(1.01998 0.0119168 0)
(1.02197 0.00719532 0)
(1.01351 -0.00854138 0)
(1.00419 -0.00312669 0)
(1.00019 -0.0187652 0)
(0.990305 -0.010479 0)
(0.984354 -0.00978252 0)
(0.99986 -0.0116272 0)
(0.990669 0.00473458 0)
(0.98803 0.000576093 0)
(1.0132 0.0265685 0)
(1.03166 -0.00128606 0)
(1.01552 -0.0212769 0)
(0.997428 -0.0286092 0)
(0.975282 -0.0320401 0)
(0.981433 -0.00870552 0)
(0.982814 -0.00949495 0)
(0.999015 0.0134191 0)
(1.01905 0.0232592 0)
(1.02118 0.0155001 0)
(1.01169 0.0121984 0)
(1.01601 0.00728289 0)
(1.0107 -0.00754618 0)
(1.00276 -0.00325129 0)
(0.999192 -0.0171229 0)
(0.990279 -0.0104783 0)
(0.984452 -0.00848876 0)
(1.00069 -0.0114277 0)
(0.990337 0.00469549 0)
(0.989005 0.00045028 0)
(1.00902 0.0257442 0)
(1.02892 -0.00113845 0)
(1.01507 -0.0208322 0)
(0.998012 -0.0277913 0)
(0.977368 -0.0315234 0)
(0.977343 -0.00897018 0)
(0.977555 -0.00967482 0)
(0.987237 0.0123597 0)
(1.00564 0.0227474 0)
(1.01168 0.0154543 0)
(1.0054 0.012294 0)
(1.01149 0.00719647 0)
(1.00855 -0.00672054 0)
(1.00176 -0.0033674 0)
(0.998491 -0.0155954 0)
(0.990478 -0.0103767 0)
(0.98476 -0.00741524 0)
(1.00117 -0.0112215 0)
(0.990153 0.00464702 0)
(0.989554 0.000381129 0)
(1.00596 0.0249216 0)
(1.02669 -0.00103437 0)
(1.01466 -0.0204272 0)
(0.998338 -0.0269816 0)
(0.979087 -0.0309011 0)
(0.974803 -0.00910244 0)
(0.97406 -0.00966993 0)
(0.978945 0.011434 0)
(0.99597 0.0221574 0)
(1.00478 0.0151818 0)
(1.00107 0.0122217 0)
(1.00828 0.00699048 0)
(1.00697 -0.00604011 0)
(1.00103 -0.00346016 0)
(0.997998 -0.0141696 0)
(0.990822 -0.0101927 0)
(0.985231 -0.00652593 0)
(1.00134 -0.0110068 0)
(0.990198 0.00458873 0)
(0.989869 0.000356725 0)
(1.00397 0.0240898 0)
(1.02487 -0.00095973 0)
(1.01432 -0.0200517 0)
(0.998522 -0.0261697 0)
(0.980424 -0.0302047 0)
(0.973532 -0.00913914 0)
(0.972094 -0.00952104 0)
(0.973935 0.0105986 0)
(0.989861 0.0215154 0)
(1.00027 0.0147345 0)
(0.99834 0.0120166 0)
(1.00608 0.00672231 0)
(1.00582 -0.0054837 0)
(1.00046 -0.00350486 0)
(0.997627 -0.0128421 0)
(0.99124 -0.00994373 0)
(0.9858 -0.00577375 0)
(1.00127 -0.010783 0)
(0.990456 0.00451868 0)
(0.990097 0.000367583 0)
(1.00277 0.0232437 0)
(1.02333 -0.000902348 0)
(1.014 -0.0196974 0)
(0.998633 -0.0253498 0)
(0.981469 -0.0294496 0)
(0.973138 -0.00912227 0)
(0.971235 -0.0092638 0)
(0.97138 0.00981148 0)
(0.986438 0.0208385 0)
(0.99758 0.0141871 0)
(0.996738 0.0117061 0)
(1.00453 0.00643562 0)
(1.00498 -0.00502996 0)
(0.999952 -0.00350125 0)
(0.997314 -0.011597 0)
(0.991683 -0.00965386 0)
(0.98641 -0.00513256 0)
(1.00105 -0.0105497 0)
(0.990861 0.00443417 0)
(0.990325 0.000408657 0)
(1.00207 0.0223815 0)
(1.02197 -0.000851792 0)
(1.01364 -0.0193616 0)
(0.998696 -0.0245175 0)
(0.982334 -0.0286499 0)
(0.973282 -0.0090669 0)
(0.971091 -0.00892873 0)
(0.970387 0.00903864 0)
(0.984713 0.0201418 0)
(0.996095 0.0135812 0)
(0.995849 0.0113237 0)
(1.00336 0.00616902 0)
(1.00434 -0.00465359 0)
(0.999463 -0.00346347 0)
(0.997019 -0.0104218 0)
(0.992117 -0.00934014 0)
(0.987019 -0.00459879 0)
(1.00074 -0.010307 0)
(0.99134 0.00433222 0)
(0.990589 0.000477809 0)
(1.00166 0.0215031 0)
(1.02071 -0.00080138 0)
(1.01321 -0.0190419 0)
(0.998715 -0.0236703 0)
(0.983105 -0.02782 0)
(0.973736 -0.00899317 0)
(0.971366 -0.00853698 0)
(0.970281 0.008262 0)
(0.983903 0.0194264 0)
(0.995314 0.0129464 0)
(0.99537 0.0108954 0)
(1.00239 0.00594075 0)
(1.00384 -0.00432599 0)
(0.998984 -0.00340163 0)
(0.996721 -0.00930717 0)
(0.992526 -0.00901078 0)
(0.987608 -0.00417248 0)
(1.00042 -0.0100544 0)
(0.991823 0.00421015 0)
(0.990899 0.00057254 0)
(1.00141 0.0206105 0)
(1.01955 -0.000747992 0)
(1.01267 -0.0187335 0)
(0.998674 -0.0228153 0)
(0.983829 -0.0269625 0)
(0.974367 -0.00892179 0)
(0.971873 -0.00810322 0)
(0.970647 0.00748325 0)
(0.983515 0.0186935 0)
(0.994899 0.0123023 0)
(0.995102 0.0104065 0)
(1.0015 0.00575115 0)
(1.00342 -0.00403371 0)
(0.998525 -0.00332648 0)
(0.996413 -0.00824867 0)
(0.992903 -0.00866162 0)
(0.988167 -0.00385413 0)
(1.00013 -0.00979156 0)
(0.992257 0.00406775 0)
(0.991242 0.00068862 0)
(1.00126 0.019706 0)
(1.01847 -0.000687236 0)
(1.01202 -0.0184303 0)
(0.998555 -0.0219625 0)
(0.984524 -0.026077 0)
(0.975097 -0.00885432 0)
(0.972499 -0.00762655 0)
(0.971271 0.0067041 0)
(0.983288 0.0179401 0)
(0.994646 0.0116615 0)
(0.99493 0.009878 0)
(1.00067 0.00561221 0)
(1.00304 -0.00375484 0)
(0.998113 -0.00325066 0)
(0.996096 -0.0072492 0)
(0.993247 -0.00827777 0)
(0.988705 -0.00364246 0)
(0.999917 -0.00951815 0)
(0.992608 0.00390411 0)
(0.991595 0.00082623 0)
(1.00117 0.0187879 0)
(1.0175 -0.00061559 0)
(1.01128 -0.0181296 0)
(0.998346 -0.0211129 0)
(0.985185 -0.0251707 0)
(0.975881 -0.00879756 0)
(0.973178 -0.00711976 0)
(0.972055 0.0059394 0)
(0.983123 0.0171576 0)
(0.994449 0.0110381 0)
(0.994793 0.00931669 0)
(0.999879 0.00550533 0)
(1.00266 -0.00347607 0)
(0.997776 -0.00318538 0)
(0.99578 -0.00630964 0)
(0.99356 -0.00784904 0)
(0.989234 -0.00353228 0)
(0.999784 -0.00923382 0)
(0.992864 0.00371993 0)
(0.991928 0.000982208 0)
(1.00114 0.0178568 0)
(1.01662 -0.000527071 0)
(1.01049 -0.0178224 0)
(0.998053 -0.0202752 0)
(0.985801 -0.0242496 0)
(0.976687 -0.0087458 0)
(0.973882 -0.00659647 0)
(0.972963 0.00519944 0)
(0.983017 0.0163429 0)
(0.994268 0.0104472 0)
(0.994666 0.008714 0)
(0.999158 0.00539905 0)
(1.00227 -0.00319094 0)
(0.997537 -0.00313375 0)
(0.995475 -0.00544564 0)
(0.993842 -0.00736662 0)
(0.98977 -0.00351163 0)
(0.999729 -0.00893806 0)
(0.993029 0.00351732 0)
(0.992213 0.00115154 0)
(1.00118 0.0169137 0)
(1.01585 -0.000422228 0)
(1.00972 -0.0175021 0)
(0.997697 -0.019455 0)
(0.986357 -0.0233084 0)
(0.977496 -0.00870859 0)
(0.974595 -0.0060577 0)
(0.973977 0.00448978 0)
(0.983007 0.0154896 0)
(0.994098 0.00989492 0)
(0.994547 0.00808997 0)
(0.998523 0.0052988 0)
(1.00187 -0.00288175 0)
(0.997404 -0.00310068 0)
(0.995197 -0.004666 0)
(0.994091 -0.00682575 0)
(0.990322 -0.00356168 0)
(0.999735 -0.00862994 0)
(0.993126 0.00329768 0)
(0.992434 0.00133109 0)
(1.00128 0.0159567 0)
(1.01518 -0.000305074 0)
(1.009 -0.0171597 0)
(0.997319 -0.0186554 0)
(0.986849 -0.0223527 0)
(0.978293 -0.00868271 0)
(0.975316 -0.00552362 0)
(0.975073 0.0038287 0)
(0.983132 0.014594 0)
(0.993949 0.0093732 0)
(0.994444 0.00745978 0)
(0.997982 0.00518203 0)
(1.00144 -0.00254225 0)
(0.997367 -0.00308116 0)
(0.994957 -0.00397881 0)
(0.9943 -0.00623217 0)
(0.990887 -0.00365446 0)
(0.999779 -0.0083103 0)
(0.993186 0.00306524 0)
(0.992592 0.00151468 0)
(1.00142 0.0149876 0)
(1.01458 -0.000175776 0)
(1.00838 -0.0167822 0)
(0.996961 -0.0178835 0)
(0.987281 -0.0213836 0)
(0.97907 -0.00866022 0)
(0.976041 -0.00500719 0)
(0.976215 0.0032167 0)
(0.983403 0.0136539 0)
(0.993826 0.00889811 0)
(0.994362 0.00682692 0)
(0.997528 0.00502853 0)
(1.00099 -0.00217837 0)
(0.997403 -0.00305818 0)
(0.994767 -0.00339319 0)
(0.994459 -0.00559947 0)
(0.991456 -0.00375303 0)
(0.999839 -0.00797841 0)
(0.99324 0.00282189 0)
(0.992702 0.00169869 0)
(1.00158 0.0140069 0)
(1.01402 -4.13218e-05 0)
(1.00784 -0.0163656 0)
(0.996663 -0.0171361 0)
(0.987667 -0.0203991 0)
(0.979827 -0.00864534 0)
(0.976765 -0.00452023 0)
(0.97736 0.00266729 0)
(0.983803 0.0126629 0)
(0.993719 0.00846067 0)
(0.994295 0.00621252 0)
(0.997146 0.00483988 0)
(1.00052 -0.00179575 0)
(0.997482 -0.00301525 0)
(0.99463 -0.00292033 0)
(0.994564 -0.00494324 0)
(0.992011 -0.00382024 0)
(0.999898 -0.00763504 0)
(0.993314 0.00257068 0)
(0.992791 0.00187985 0)
(1.00173 0.0130154 0)
(1.01344 9.27708e-05 0)
(1.00738 -0.0159036 0)
(0.996446 -0.0164134 0)
(0.988028 -0.019405 0)
(0.980567 -0.00863157 0)
(0.977484 -0.00407621 0)
(0.978466 0.00219172 0)
(0.984292 0.0116341 0)
(0.993616 0.00805082 0)
(0.994233 0.005635 0)
(0.996811 0.00460055 0)
(1.00003 -0.00140609 0)
(0.99757 -0.00293468 0)
(0.994551 -0.00255889 0)
(0.994613 -0.00428689 0)
(0.992527 -0.00384067 0)
(0.999944 -0.00728205 0)
(0.993428 0.00231331 0)
(0.992887 0.00205789 0)
(1.00184 0.0120189 0)
(1.01283 0.0002202 0)
(1.00696 -0.0153896 0)
(0.996316 -0.0157206 0)
(0.988383 -0.0184011 0)
(0.981302 -0.00860808 0)
(0.9782 -0.00367881 0)
(0.979511 0.00178111 0)
(0.98483 0.0105841 0)
(0.993502 0.00766215 0)
(0.99416 0.00510515 0)
(0.996507 0.00431619 0)
(0.999536 -0.00103298 0)
(0.997642 -0.00281423 0)
(0.994526 -0.00229039 0)
(0.994612 -0.00365802 0)
(0.992984 -0.00378372 0)
(0.999973 -0.00691865 0)
(0.993587 0.00204838 0)
(0.993013 0.00223139 0)
(1.0019 0.0110263 0)
(1.01215 0.000330453 0)
(1.00654 -0.01482 0)
(0.996261 -0.0150626 0)
(0.988749 -0.0173893 0)
(0.982045 -0.00856961 0)
(0.978918 -0.00334508 0)
(0.980489 0.00143401 0)
(0.98539 0.00952428 0)
(0.993378 0.00726505 0)
(0.994067 0.00464373 0)
(0.996222 0.0040068 0)
(0.999038 -0.000688511 0)
(0.997683 -0.00265339 0)
(0.99455 -0.00211464 0)
(0.994575 -0.00308109 0)
(0.993363 -0.00362647 0)
(0.999983 -0.00654764 0)
(0.993789 0.00177877 0)
(0.993184 0.00239712 0)
(1.00192 0.0100481 0)
(1.01141 0.000417925 0)
(1.00611 -0.0142001 0)
(0.99626 -0.0144349 0)
(0.989136 -0.0163855 0)
(0.982806 -0.00851266 0)
(0.979647 -0.00307766 0)
(0.98141 0.00115252 0)
(0.985956 0.00848011 0)
(0.993253 0.00684805 0)
(0.993956 0.00424198 0)
(0.995955 0.00367842 0)
(0.998547 -0.000379079 0)
(0.997682 -0.00243533 0)
(0.994618 -0.00199438 0)
(0.994527 -0.00259355 0)
(0.993656 -0.00339394 0)
(0.999976 -0.00617121 0)
(0.994027 0.00150586 0)
(0.993404 0.00255348 0)
(1.0019 0.00909367 0)
(1.01063 0.000479567 0)
(1.00564 -0.0135287 0)
(0.996293 -0.0138347 0)
(0.989546 -0.0153997 0)
(0.983592 -0.00842206 0)
(0.980395 -0.00287101 0)
(0.982288 0.000923217 0)
(0.986524 0.00747076 0)
(0.993145 0.0064105 0)
(0.993833 0.00389875 0)
(0.995711 0.00333688 0)
(0.998081 -0.000133765 0)
(0.997644 -0.00217829 0)
(0.994713 -0.00188416 0)
(0.99448 -0.00219432 0)
(0.993862 -0.00309219 0)
(0.999955 -0.00578938 0)
(0.994289 0.0012271 0)
(0.993668 0.00270203 0)
(1.00186 0.008174 0)
(1.00983 0.000510717 0)
(1.00515 -0.0128209 0)
(0.996342 -0.0132542 0)
(0.989977 -0.0144333 0)
(0.984401 -0.00829198 0)
(0.981166 -0.00271978 0)
(0.983135 0.000731759 0)
(0.987097 0.00650078 0)
(0.99307 0.00594499 0)
(0.993706 0.00360952 0)
(0.995491 0.00302306 0)
(0.997652 4.81059e-05 0)
(0.997583 -0.00192081 0)
(0.994832 -0.00179747 0)
(0.994455 -0.00189498 0)
(0.993989 -0.00272763 0)
(0.999923 -0.0054044 0)
(0.994567 0.000944996 0)
(0.993964 0.00283065 0)
(1.00181 0.0073066 0)
(1.00904 0.000513489 0)
(1.00464 -0.0120872 0)
(0.996397 -0.0126846 0)
(0.990422 -0.013504 0)
(0.985227 -0.00813029 0)
(0.981955 -0.00261858 0)
(0.983953 0.00057485 0)
(0.987673 0.00559576 0)
(0.993042 0.00545012 0)
(0.993592 0.00334983 0)
(0.995299 0.0027276 0)
(0.997265 0.000194949 0)
(0.997502 -0.00164048 0)
(0.994962 -0.00169258 0)
(0.994472 -0.00170597 0)
(0.994069 -0.00240353 0)
(0.999887 -0.00501887 0)
(0.994856 0.000666103 0)
(0.994278 0.00293689 0)
(1.00177 0.00648626 0)
(1.00826 0.000478437 0)
(1.00413 -0.011324 0)
(0.996457 -0.012117 0)
(0.990875 -0.0126217 0)
(0.986061 -0.00792887 0)
(0.98276 -0.00256814 0)
(0.984746 0.000437778 0)
(0.988246 0.0047679 0)
(0.993062 0.0049338 0)
(0.993496 0.00312334 0)
(0.995137 0.00243995 0)
(0.996937 0.000283439 0)
(0.997418 -0.00136515 0)
(0.995085 -0.00153834 0)
(0.994511 -0.00155093 0)
(0.994125 -0.00215305 0)
(0.999851 -0.00463361 0)
(0.995154 0.000383255 0)
(0.994596 0.00302558 0)
(1.00171 0.00573828 0)
(1.00751 0.000397419 0)
(1.00362 -0.0105639 0)
(0.996523 -0.0115458 0)
(0.991331 -0.0117852 0)
(0.986895 -0.00768929 0)
(0.983571 -0.00253607 0)
(0.98551 0.00030995 0)
(0.988811 0.00399188 0)
(0.993133 0.00441041 0)
(0.993425 0.00291926 0)
(0.994995 0.00219565 0)
(0.996662 0.000332996 0)
(0.997346 -0.00113202 0)
(0.995211 -0.0013678 0)
(0.994568 -0.00141483 0)
(0.994163 -0.0019495 0)
(0.999815 -0.00425024 0)
(0.995461 0.000112933 0)
(0.994908 0.0030724 0)
(1.00165 0.00505179 0)
(1.0068 0.000306965 0)
(1.00314 -0.00979172 0)
(0.9966 -0.0109787 0)
(0.991787 -0.0109976 0)
(0.987722 -0.0074364 0)
(0.984385 -0.00253943 0)
(0.986237 0.000213914 0)
(0.989364 0.0032877 0)
(0.993253 0.00385582 0)
(0.993384 0.00272512 0)
(0.994875 0.00199151 0)
(0.996436 0.000363076 0)
(0.997289 -0.000908486 0)
(0.995331 -0.00117447 0)
(0.994633 -0.00125764 0)
(0.994196 -0.00177423 0)
(0.999784 -0.00387507 0)
(0.995776 -0.000149686 0)
(0.995205 0.00309906 0)
(1.00159 0.0044406 0)
(1.00614 0.00017801 0)
(1.00267 -0.00902553 0)
(0.996687 -0.010383 0)
(0.992242 -0.0102838 0)
(0.988533 -0.00713396 0)
(0.985205 -0.00257649 0)
(0.986933 0.000101343 0)
(0.989889 0.00269373 0)
(0.993419 0.00330026 0)
(0.993386 0.00248656 0)
(0.99477 0.0018291 0)
(0.996256 0.000390274 0)
(0.997258 -0.000724543 0)
(0.995457 -0.00100583 0)
(0.9947 -0.00111032 0)
(0.994218 -0.00161399 0)
(0.999756 -0.00350666 0)
(0.996103 -0.000395559 0)
(0.995491 0.00307556 0)
(1.00151 0.0038981 0)
(1.00552 4.58549e-05 0)
(1.00224 -0.00829828 0)
(0.996782 -0.00977637 0)
(0.992697 -0.00960694 0)
(0.989329 -0.00685646 0)
(0.986017 -0.00257385 0)
(0.987603 -2.26741e-05 0)
(0.990394 0.00211919 0)
(0.993607 0.00277738 0)
(0.99343 0.00225069 0)
(0.9947 0.00166834 0)
(0.996106 0.000421689 0)
(0.997237 -0.000502052 0)
(0.995579 -0.000774511 0)
(0.994775 -0.000894572 0)
(0.994246 -0.00147875 0)
(0.999732 -0.00314945 0)
(0.996433 -0.000623625 0)
(0.995764 0.00301899 0)
(1.00142 0.00341847 0)
(1.00495 -0.000111837 0)
(1.00183 -0.0075815 0)
(0.996885 -0.00915848 0)
(0.99314 -0.00897137 0)
(0.99011 -0.00654843 0)
(0.986837 -0.0026265 0)
(0.988233 -0.000117732 0)
(0.990873 0.00165128 0)
(0.993846 0.00222702 0)
(0.993513 0.0019608 0)
(0.994649 0.00151455 0)
(0.996019 0.000395491 0)
(0.997262 -0.000490958 0)
(0.995717 -0.000762042 0)
(0.994821 -0.000803962 0)
(0.994195 -0.00129141 0)
(0.999709 -0.00281117 0)
(0.996769 -0.000823313 0)
(0.996032 0.00292273 0)
(1.00131 0.00300917 0)
(1.00442 -0.000258689 0)
(1.00145 -0.00692626 0)
(0.996989 -0.00851576 0)
(0.993585 -0.00838761 0)
(0.990862 -0.00622189 0)
(0.987646 -0.00265271 0)
(0.988865 -0.00024223 0)
(0.991317 0.00122524 0)
(0.994077 0.00174213 0)
(0.993653 0.00165692 0)
(0.994639 0.00129017 0)
(0.995899 0.000217506 0)
(0.997246 -0.000649839 0)
(0.995877 -0.000893338 0)
(0.99497 -0.000810191 0)
(0.994264 -0.00113958 0)
(0.99969 -0.002484 0)
(0.997099 -0.000985638 0)
(0.996293 0.00277496 0)
(1.0012 0.0026519 0)
(1.00394 -0.000389207 0)
(1.0011 -0.00631609 0)
(0.997094 -0.00788845 0)
(0.99401 -0.00778865 0)
(0.9916 -0.00596873 0)
(0.988453 -0.00265415 0)
(0.989457 -0.000362359 0)
(0.991753 0.000874341 0)
(0.994356 0.00125523 0)
(0.993806 0.00129346 0)
(0.994612 0.00100426 0)
(0.995816 2.82319e-05 0)
(0.997287 -0.000810317 0)
(0.996077 -0.00106277 0)
(0.995121 -0.000826049 0)
(0.994342 -0.00090644 0)
(0.999671 -0.00218449 0)
(0.997424 -0.00111144 0)
(0.996558 0.00260625 0)
(1.00108 0.00235165 0)
(1.00349 -0.000526706 0)
(1.00079 -0.0057519 0)
(0.997202 -0.00724235 0)
(0.994422 -0.00726818 0)
(0.9923 -0.00562049 0)
(0.989259 -0.0027089 0)
(0.990067 -0.000478948 0)
(0.992147 0.000555642 0)
(0.994598 0.000814236 0)
(0.994007 0.000962217 0)
(0.994648 0.000868033 0)
(0.995718 7.82911e-05 0)
(0.99727 -0.000764825 0)
(0.996298 -0.000987911 0)
(0.995443 -0.000709739 0)
(0.994599 -0.000710039 0)
(0.999654 -0.00190358 0)
(0.997736 -0.00118836 0)
(0.996818 0.00239163 0)
(1.00096 0.00206607 0)
(1.00307 -0.000605186 0)
(1.00051 -0.00524029 0)
(0.997302 -0.00664273 0)
(0.994824 -0.00670981 0)
(0.992981 -0.00535187 0)
(0.990037 -0.00272062 0)
(0.990647 -0.000600066 0)
(0.992537 0.000269338 0)
(0.994898 0.000437689 0)
(0.994259 0.00059607 0)
(0.994733 0.000639361 0)
(0.995678 4.42491e-05 0)
(0.997315 -0.00072084 0)
(0.996539 -0.00100116 0)
(0.99566 -0.000671214 0)
(0.99467 -0.000554939 0)
(0.999637 -0.00164482 0)
(0.99803 -0.00123471 0)
(0.997076 0.00216754 0)
(1.00085 0.00182481 0)
(1.00269 -0.000676174 0)
(1.00026 -0.0047933 0)
(0.997415 -0.00604211 0)
(0.995197 -0.00619465 0)
(0.993617 -0.00507077 0)
(0.990824 -0.00270744 0)
(0.991239 -0.000742268 0)
(0.992893 4.53855e-05 0)
(0.995134 0.000100338 0)
(0.99452 0.000270094 0)
(0.994881 0.000400827 0)
(0.995661 -7.78938e-05 0)
(0.99729 -0.000795063 0)
(0.99677 -0.00113546 0)
(0.996083 -0.000756068 0)
(0.995027 -0.000434187 0)
(0.999622 -0.00141491 0)
(0.998306 -0.00123773 0)
(0.997331 0.00193418 0)
(1.00074 0.00158164 0)
(1.00233 -0.000704984 0)
(1.00005 -0.00435404 0)
(0.997517 -0.00546875 0)
(0.995559 -0.00572618 0)
(0.994241 -0.00472893 0)
(0.991565 -0.00274278 0)
(0.991802 -0.000866611 0)
(0.993259 -0.00014235 0)
(0.99543 -0.000149372 0)
(0.994822 5.02222e-06 0)
(0.99504 0.000292323 0)
(0.995671 -1.55145e-05 0)
(0.997323 -0.000663491 0)
(0.997015 -0.000990084 0)
(0.996424 -0.000752175 0)
(0.995301 -0.000504309 0)
(0.999608 -0.00120157 0)
(0.99856 -0.00121451 0)
(0.997574 0.00169969 0)
(1.00063 0.00134656 0)
(1.00202 -0.000696298 0)
(0.999868 -0.00395449 0)
(0.997625 -0.00496266 0)
(0.995902 -0.00522514 0)
(0.994803 -0.00446502 0)
(0.9923 -0.00271713 0)
(0.9924 -0.000954043 0)
(0.9936 -0.000297209 0)
(0.995653 -0.000393292 0)
(0.995151 -0.00025597 0)
(0.995319 0.000159014 0)
(0.995739 -4.17129e-05 0)
(0.997317 -0.000594876 0)
(0.997191 -0.00097731 0)
(0.996772 -0.000815319 0)
(0.995706 -0.000584021 0)
(0.999596 -0.00101433 0)
(0.99879 -0.00117051 0)
(0.997809 0.00148231 0)
(1.00054 0.001129 0)
(1.00172 -0.000692184 0)
(0.999712 -0.00359635 0)
(0.997735 -0.00444215 0)
(0.996223 -0.00479369 0)
(0.995355 -0.00415613 0)
(0.993005 -0.00266432 0)
(0.992955 -0.00107904 0)
(0.993937 -0.000461163 0)
(0.995931 -0.000513825 0)
(0.995513 -0.000424327 0)
(0.995574 -4.43093e-05 0)
(0.995824 -0.000108235 0)
(0.997357 -0.000520552 0)
(0.997379 -0.000950638 0)
(0.997081 -0.000828811 0)
(0.996068 -0.000680307 0)
(0.999584 -0.000846302 0)
(0.999 -0.00111104 0)
(0.998027 0.00129062 0)
(1.00045 0.000899828 0)
(1.00146 -0.00067546 0)
(0.999588 -0.00321529 0)
(0.997844 -0.00397549 0)
(0.996527 -0.00436947 0)
(0.995854 -0.003871 0)
(0.993674 -0.0026329 0)
(0.993533 -0.00113752 0)
(0.994297 -0.000541746 0)
(0.996156 -0.00064215 0)
(0.995825 -0.000652361 0)
(0.995909 -0.00021792 0)
(0.996009 -0.000134606 0)
(0.997378 -0.000492329 0)
(0.997512 -0.000948431 0)
(0.997375 -0.000863346 0)
(0.996462 -0.000713537 0)
(0.999574 -0.000694568 0)
(0.999187 -0.00104657 0)
(0.998228 0.00111571 0)
(1.00038 0.000692941 0)
(1.00124 -0.000644398 0)
(0.999486 -0.00289192 0)
(0.997947 -0.00353067 0)
(0.996809 -0.0039713 0)
(0.996331 -0.00359134 0)
(0.99433 -0.00254194 0)
(0.994088 -0.00118485 0)
(0.994626 -0.000661969 0)
(0.99639 -0.000751194 0)
(0.996189 -0.000757041 0)
(0.996261 -0.00036086 0)
(0.996177 -0.000276161 0)
(0.997418 -0.000511545 0)
(0.997666 -0.000887915 0)
(0.997676 -0.000889626 0)
(0.996793 -0.000768131 0)
(0.999564 -0.000560512 0)
(0.999355 -0.000980789 0)
(0.998413 0.000979343 0)
(1.00032 0.000503314 0)
(1.00104 -0.000643927 0)
(0.999416 -0.00258552 0)
(0.998056 -0.00308234 0)
(0.997072 -0.00357595 0)
(0.996768 -0.00332028 0)
(0.994942 -0.00248184 0)
(0.994633 -0.0012397 0)
(0.994979 -0.000717192 0)
(0.996625 -0.000778648 0)
(0.996498 -0.000884745 0)
(0.996594 -0.000586404 0)
(0.996422 -0.000398715 0)
(0.997528 -0.000500938 0)
(0.997783 -0.000843563 0)
(0.997907 -0.000952991 0)
(0.997115 -0.000843761 0)
(0.999555 -0.000439214 0)
(0.999505 -0.000917423 0)
(0.998579 0.000862485 0)
(1.00026 0.000338511 0)
(1.00088 -0.000629443 0)
(0.999379 -0.00230469 0)
(0.998163 -0.0026769 0)
(0.997305 -0.00320706 0)
(0.997168 -0.00306913 0)
(0.995535 -0.00240132 0)
(0.995181 -0.00125487 0)
(0.995325 -0.000760678 0)
(0.996829 -0.00083388 0)
(0.996791 -0.000984414 0)
(0.996964 -0.000721003 0)
(0.996705 -0.000502115 0)
(0.997639 -0.000560477 0)
(0.99788 -0.000846754 0)
(0.998138 -0.000958415 0)
(0.997464 -0.000866542 0)
(0.999547 -0.000329947 0)
(0.999639 -0.000857994 0)
(0.998731 0.000767991 0)
(1.0002 0.000208586 0)
(1.00074 -0.000623047 0)
(0.999371 -0.00207551 0)
(0.998278 -0.00229997 0)
(0.997522 -0.00283541 0)
(0.997533 -0.00280051 0)
(0.996093 -0.00232519 0)
(0.995712 -0.00128952 0)
(0.995671 -0.000815413 0)
(0.997039 -0.000848789 0)
(0.99707 -0.00101544 0)
(0.997308 -0.000846666 0)
(0.99699 -0.000664528 0)
(0.997795 -0.000645894 0)
(0.998016 -0.000832665 0)
(0.998351 -0.000938665 0)
(0.997755 -0.000920274 0)
(0.999539 -0.00023323 0)
(0.99976 -0.00080011 0)
(0.998869 0.000690147 0)
(1.00015 0.000110725 0)
(1.00063 -0.000612758 0)
(0.9994 -0.00187149 0)
(0.998406 -0.00194842 0)
(0.997717 -0.00248543 0)
(0.997851 -0.00254204 0)
(0.996613 -0.00225358 0)
(0.996242 -0.00133001 0)
(0.996033 -0.00084862 0)
(0.997247 -0.000846818 0)
(0.997314 -0.0010424 0)
(0.997625 -0.000954817 0)
(0.997302 -0.000787991 0)
(0.998 -0.000714829 0)
(0.998162 -0.000842406 0)
(0.998526 -0.00094531 0)
(0.99803 -0.000967841 0)
(0.999532 -0.000146106 0)
(0.999867 -0.000743548 0)
(0.998997 0.000619174 0)
(1.00011 5.37757e-05 0)
(1.00054 -0.000580214 0)
(0.999456 -0.00170096 0)
(0.998547 -0.00165098 0)
(0.997898 -0.00216024 0)
(0.998133 -0.00228012 0)
(0.99709 -0.00215329 0)
(0.996762 -0.00137296 0)
(0.996405 -0.000897784 0)
(0.997454 -0.000853096 0)
(0.997538 -0.00104562 0)
(0.997926 -0.00101609 0)
(0.997614 -0.000886208 0)
(0.998218 -0.000808167 0)
(0.998325 -0.000896763 0)
(0.998702 -0.00096113 0)
(0.998286 -0.000989097 0)
(0.999526 -7.1204e-05 0)
(0.999962 -0.000682259 0)
(0.999119 0.000559527 0)
(1.00007 2.49111e-05 0)
(1.00046 -0.000520928 0)
(0.999538 -0.00155565 0)
(0.998709 -0.0013967 0)
(0.998071 -0.00186075 0)
(0.998377 -0.00202046 0)
(0.997518 -0.00204386 0)
(0.99726 -0.00141349 0)
(0.996793 -0.000970473 0)
(0.997679 -0.000863846 0)
(0.997747 -0.00103223 0)
(0.998196 -0.00104853 0)
(0.997909 -0.000977271 0)
(0.998447 -0.000896014 0)
(0.998515 -0.000947469 0)
(0.998891 -0.000987675 0)
(0.998516 -0.0010054 0)
(0.999521 -5.68572e-06 0)
(1.00005 -0.000619932 0)
(0.999235 0.000508264 0)
(1.00004 1.313e-05 0)
(1.00039 -0.000425658 0)
(0.999635 -0.00142679 0)
(0.998887 -0.00119764 0)
(0.998243 -0.00160015 0)
(0.998592 -0.00176711 0)
(0.997896 -0.00191604 0)
(0.997729 -0.00143495 0)
(0.99719 -0.0010435 0)
(0.997924 -0.000892883 0)
(0.997953 -0.00102618 0)
(0.998438 -0.00106107 0)
(0.99819 -0.00103714 0)
(0.998687 -0.000969002 0)
(0.998712 -0.000991447 0)
(0.999084 -0.00103286 0)
(0.998747 -0.00104212 0)
(0.999518 4.95877e-05 0)
(1.00012 -0.00055204 0)
(0.999347 0.00046843 0)
(1.00002 9.47759e-06 0)
(1.00033 -0.000314252 0)
(0.999738 -0.00129908 0)
(0.999085 -0.00104976 0)
(0.998423 -0.0013762 0)
(0.998783 -0.00152916 0)
(0.998224 -0.00176738 0)
(0.998162 -0.00143706 0)