/*--------------------------------*- C++ -*----------------------------------*\
| =========                 |                                                 |
| \\      /  F ield         | OpenFOAM: The Open Source CFD Toolbox           |
|  \\    /   O peration     | Version:  v1912                                 |
|   \\  /    A nd           | Website:  www.openfoam.com                      |
|    \\/     M anipulation  |                                                 |
\*---------------------------------------------------------------------------*/
FoamFile
{
    version     2.0;
    format      ascii;
    class       volVectorField;
    location    "3.85";
    object      U;
}
// * * * * * * * * * * * * * * * * * * * * * * * * * * * * * * * * * * * * * //

dimensions      [0 1 -1 0 0 0 0];


internalField   nonuniform List<vector> 
9600
(
(0.786825 -0.00138488 0)
(1.32701 0.0114967 0)
(0.431446 -0.020817 0)
(1.38345 0.0111259 0)
(0.861263 0.00641369 0)
(1.13573 -0.00916087 0)
(0.681455 0.00861858 0)
(1.33455 0.0149423 0)
(0.576957 0.0175786 0)
(1.31719 0.0343434 0)
(0.740758 0.00400974 0)
(1.2421 0.00907145 0)
(0.811309 0.00201123 0)
(1.22043 0.0157713 0)
(0.804571 0.00944188 0)
(1.14073 0.0165373 0)
(0.830602 0.0034968 0)
(1.12054 0.00403268 0)
(0.859056 0.000252856 0)
(1.1396 0.00403779 0)
(0.791459 -0.00255534 0)
(1.32312 0.0145798 0)
(0.459822 -0.0218737 0)
(1.3757 0.00772224 0)
(0.876907 0.00881605 0)
(1.14678 -0.00679555 0)
(0.688337 0.00617227 0)
(1.33297 0.0163257 0)
(0.582784 0.0174855 0)
(1.30556 0.0330907 0)
(0.778816 0.00459757 0)
(1.22815 0.00854871 0)
(0.851201 0.00188257 0)
(1.19547 0.016127 0)
(0.864733 0.0109396 0)
(1.09132 0.0163116 0)
(0.915902 0.0040891 0)
(1.04442 0.00264311 0)
(0.966483 3.49328e-05 0)
(1.02698 0.00235869 0)
(0.801603 -0.00330888 0)
(1.31476 0.0172023 0)
(0.510591 -0.0227006 0)
(1.35661 0.00474076 0)
(0.905791 0.0102746 0)
(1.1585 -0.00471623 0)
(0.704552 0.00360265 0)
(1.32766 0.0182727 0)
(0.613132 0.0171235 0)
(1.27097 0.0309231 0)
(0.851782 0.00518621 0)
(1.19186 0.00762974 0)
(0.923353 0.00227329 0)
(1.14809 0.0162725 0)
(0.94674 0.01316 0)
(1.03955 0.0153253 0)
(0.975886 0.00517711 0)
(1.00432 0.00150191 0)
(0.997281 0.000578151 0)
(1.0106 0.00229094 0)
(0.817766 -0.00418357 0)
(1.30004 0.0192955 0)
(0.58397 -0.0233929 0)
(1.32278 0.00200453 0)
(0.946041 0.0115938 0)
(1.1637 -0.00240859 0)
(0.734711 0.00154167 0)
(1.31113 0.0198077 0)
(0.679896 0.0173204 0)
(1.21099 0.0280555 0)
(0.936497 0.00591328 0)
(1.14262 0.00669686 0)
(0.990482 0.00300267 0)
(1.1022 0.0160046 0)
(1.00283 0.0150788 0)
(1.01728 0.0149996 0)
(0.996035 0.00586673 0)
(0.996018 0.00116379 0)
(0.997778 0.000347389 0)
(1.00801 0.00203525 0)
(0.840022 -0.00510965 0)
(1.27677 0.0210582 0)
(0.674164 -0.0237923 0)
(1.27255 -0.000718303 0)
(0.993564 0.0126537 0)
(1.15768 4.96046e-05 0)
(0.781979 -0.000179541 0)
(1.27677 0.0206177 0)
(0.77589 0.018456 0)
(1.14212 0.0248097 0)
(1.00441 0.0065284 0)
(1.09903 0.00602515 0)
(1.0287 0.00360526 0)
(1.0719 0.0158273 0)
(1.02816 0.0165864 0)
(1.01549 0.0154572 0)
(1.00245 0.00650663 0)
(0.99554 0.0010972 0)
(0.995995 0.000170176 0)
(1.00268 0.00166542 0)
(0.867298 -0.00602737 0)
(1.2436 0.0223436 0)
(0.768409 -0.0238303 0)
(1.20902 -0.00325565 0)
(1.03944 0.0133507 0)
(1.14007 0.00250771 0)
(0.841905 -0.00156564 0)
(1.22401 0.0206774 0)
(0.87567 0.0201404 0)
(1.08967 0.0219368 0)
(1.04327 0.00685081 0)
(1.06972 0.0057954 0)
(1.03972 0.00405682 0)
(1.05412 0.0158856 0)
(1.03605 0.0177236 0)
(1.02032 0.0161685 0)
(1.0082 0.00725194 0)
(0.997704 0.00123199 0)
(0.9951 0.000149739 0)
(0.998064 0.00139459 0)
(0.896917 -0.00688881 0)
(1.2017 0.0230899 0)
(0.85261 -0.0234718 0)
(1.14097 -0.00552049 0)
(1.07273 0.0136827 0)
(1.11493 0.00475168 0)
(0.902118 -0.0024374 0)
(1.16108 0.020143 0)
(0.954993 0.0217129 0)
(1.06456 0.0199782 0)
(1.05711 0.00703252 0)
(1.05115 0.00599504 0)
(1.03561 0.00445583 0)
(1.0419 0.015914 0)
(1.03666 0.0184408 0)
(1.02587 0.0168023 0)
(1.01498 0.00808434 0)
(1.00206 0.00162919 0)
(0.995403 0.00035657 0)
(0.994882 0.00131457 0)
(0.92507 -0.00763285 0)
(1.15532 0.0233631 0)
(0.918018 -0.0227932 0)
(1.07944 -0.00745888 0)
(1.08594 0.0136746 0)
(1.08828 0.00663807 0)
(0.950167 -0.00274145 0)
(1.10088 0.0192755 0)
(1.00396 0.0226792 0)
(1.05789 0.0189378 0)
(1.05552 0.0073256 0)
(1.03713 0.00644499 0)
(1.02617 0.00479362 0)
(1.03174 0.0157205 0)
(1.0342 0.0187499 0)
(1.02975 0.0172356 0)
(1.02096 0.00894136 0)
(1.007 0.00227926 0)
(0.996952 0.000823997 0)
(0.993168 0.00145529 0)
(0.948293 -0.00820948 0)
(1.11061 0.0232807 0)
(0.963272 -0.0219315 0)
(1.03252 -0.00897435 0)
(1.07876 0.0133788 0)
(1.06468 0.00808597 0)
(0.980799 -0.00256584 0)
(1.05377 0.0183353 0)
(1.02544 0.0229143 0)
(1.05499 0.0185254 0)
(1.04687 0.00783998 0)
(1.02527 0.00696426 0)
(1.01645 0.00504779 0)
(1.0227 0.0153118 0)
(1.02975 0.0187258 0)
(1.0305 0.0174332 0)
(1.02419 0.00974695 0)
(1.01075 0.00310161 0)
(0.999148 0.00149967 0)
(0.99307 0.00183527 0)
(0.964895 -0.00860281 0)
(1.0731 0.0229624 0)
(0.991736 -0.0210092 0)
(1.00256 -0.0100108 0)
(1.05775 0.0128818 0)
(1.04581 0.0090614 0)
(0.996117 -0.00207676 0)
(1.02329 0.0174883 0)
(1.0282 0.0226213 0)
(1.04793 0.0184378 0)
(1.03669 0.00850233 0)
(1.01624 0.00744883 0)
(1.00874 0.00525168 0)
(1.0147 0.0147809 0)
(1.02363 0.0184651 0)
(1.02772 0.0174329 0)
(1.02398 0.0104307 0)
(1.01245 0.00396527 0)
(1.00128 0.00227142 0)
(0.99442 0.00241601 0)
(0.975284 -0.00882579 0)
(1.04565 0.0224968 0)
(1.0081 -0.0201129 0)
(0.987035 -0.0105673 0)
(1.03258 0.0122799 0)
(1.03138 0.0095979 0)
(1.00137 -0.00145507 0)
(1.00692 0.0167988 0)
(1.02164 0.0221173 0)
(1.03697 0.0184611 0)
(1.02814 0.00913469 0)
(1.01086 0.00786739 0)
(1.00383 0.00547233 0)
(1.00802 0.0142378 0)
(1.01653 0.0180918 0)
(1.02225 0.017293 0)
(1.02105 0.0109412 0)
(1.01226 0.00474107 0)
(1.00296 0.00301554 0)
(0.996728 0.00309032 0)
(0.981172 -0.00891181 0)
(1.02791 0.021939 0)
(1.01651 -0.0192859 0)
(0.981297 -0.0107244 0)
(1.01126 0.0116571 0)
(1.0206 0.00978192 0)
(1.00135 -0.000820175 0)
(0.999563 0.0162597 0)
(1.013 0.0216335 0)
(1.02596 0.0184547 0)
(1.02256 0.00960718 0)
(1.00876 0.00822615 0)
(1.00153 0.00576812 0)
(1.00297 0.013788 0)
(1.00965 0.0177153 0)
(1.01576 0.0170524 0)
(1.01687 0.0112489 0)
(1.01103 0.00535736 0)
(1.00416 0.00364396 0)
(0.999429 0.00372304 0)
(0.984486 -0.00890124 0)
(1.01744 0.0213247 0)
(1.02004 -0.0185345 0)
(0.980933 -0.0106033 0)
(0.997377 0.0110812 0)
(1.01273 0.00973279 0)
(0.99913 -0.000233377 0)
(0.996643 0.0158196 0)
(1.00631 0.0212445 0)
(1.01806 0.018352 0)
(1.01999 0.0098897 0)
(1.00881 0.00854484 0)
(1.00107 0.00616951 0)
(0.999706 0.013495 0)
(1.00412 0.0173852 0)
(1.00995 0.0167387 0)
(1.01287 0.0113659 0)
(1.00961 0.00579347 0)
(1.00507 0.00411287 0)
(1.00205 0.004215 0)
(0.986661 -0.00882826 0)
(1.01138 0.0206803 0)
(1.02073 -0.0178467 0)
(0.982855 -0.0103267 0)
(0.990466 0.0105886 0)
(1.00708 0.00957323 0)
(0.996376 0.000294649 0)
(0.995333 0.0154093 0)
(1.0026 0.0209182 0)
(1.01403 0.0181472 0)
(1.0196 0.0100221 0)
(1.00982 0.00885226 0)
(1.00163 0.00667466 0)
(0.998081 0.0133606 0)
(1.00061 0.0171098 0)
(1.0059 0.0163872 0)
(1.00997 0.011328 0)
(1.0086 0.00605197 0)
(1.00587 0.00442475 0)
(1.00429 0.00455202 0)
(0.988478 -0.00871602 0)
(1.00757 0.0200261 0)
(1.01984 -0.0172097 0)
(0.985313 -0.00998492 0)
(0.988168 0.010186 0)
(1.00308 0.00939097 0)
(0.993954 0.000772524 0)
(0.994395 0.0149716 0)
(1.00121 0.0205937 0)
(1.01279 0.0178653 0)
(1.02021 0.0100653 0)
(1.01092 0.00917168 0)
(1.00259 0.00725759 0)
(0.997763 0.0133479 0)
(0.999113 0.0168832 0)
(1.00391 0.0160227 0)
(1.00847 0.0111858 0)
(1.00821 0.00616561 0)
(1.00665 0.00462531 0)
(1.006 0.00477181 0)
(0.990231 -0.00857789 0)
(1.00484 0.0193764 0)
(1.01818 -0.0166124 0)
(0.987485 -0.00963307 0)
(0.988165 0.00986372 0)
(1.00028 0.00922831 0)
(0.992347 0.00121453 0)
(0.99353 0.014483 0)
(1.00099 0.0202301 0)
(1.01276 0.0175382 0)
(1.02077 0.0100681 0)
(1.0116 0.00951052 0)
(1.00356 0.00788158 0)
(0.998328 0.0134085 0)
(0.999197 0.0166829 0)
(1.00369 0.0156532 0)
(1.00824 0.0109998 0)
(1.00846 0.00619368 0)
(1.00745 0.00476225 0)
(1.00718 0.0049048 0)
(0.991943 -0.00842178 0)
(1.00268 0.0187404 0)
(1.01625 -0.0160441 0)
(0.98907 -0.00930168 0)
(0.988951 0.00960322 0)
(0.998365 0.00909245 0)
(0.991763 0.0016344 0)
(0.992838 0.0139516 0)
(1.00107 0.0198176 0)
(1.01279 0.0171945 0)
(1.02068 0.0100554 0)
(1.01162 0.00985903 0)
(1.00434 0.00850772 0)
(0.999382 0.0134937 0)
(1.00026 0.0164807 0)
(1.00471 0.0152805 0)
(1.00895 0.0108159 0)
(1.00924 0.00619625 0)
(1.0083 0.00486979 0)
(1.00797 0.00499172 0)
(0.99352 -0.00825255 0)
(1.00096 0.0181218 0)
(1.01441 -0.0154941 0)
(0.99003 -0.00900088 0)
(0.989795 0.00938471 0)
(0.997074 0.00897205 0)
(0.99214 0.00203899 0)
(0.992495 0.0134022 0)
(1.00106 0.0193691 0)
(1.01235 0.0168583 0)
(1.01976 0.0100346 0)
(1.01098 0.0101992 0)
(1.00483 0.00909816 0)
(1.00065 0.0135642 0)
(1.00178 0.0162557 0)
(1.00639 0.0148992 0)
(1.01021 0.0106574 0)
(1.01039 0.00621595 0)
(1.0092 0.00498111 0)
(1.00854 0.00509331 0)
(0.994838 -0.008073 0)
(0.999674 0.0175189 0)
(1.01289 -0.0149503 0)
(0.990457 -0.00873137 0)
(0.990453 0.00919036 0)
(0.996244 0.0088495 0)
(0.99319 0.00242755 0)
(0.992591 0.0128634 0)
(1.00091 0.0189068 0)
(1.01137 0.0165501 0)
(1.01819 0.0100068 0)
(1.00985 0.0105127 0)
(1.005 0.00962191 0)
(1.00195 0.0135924 0)
(1.00334 0.0159982 0)
(1.00828 0.0144989 0)
(1.01165 0.0105248 0)
(1.0117 0.0062819 0)
(1.0101 0.00512248 0)
(1.00903 0.00524689 0)
(0.995818 -0.00788531 0)
(0.99881 0.0169257 0)
(1.0118 -0.0144007 0)
(0.990506 -0.00848655 0)
(0.990916 0.00900401 0)
(0.995779 0.00871247 0)
(0.994517 0.00279753 0)
(0.993059 0.0123572 0)
(1.00069 0.0184526 0)
(1.01006 0.0162869 0)
(1.01631 0.00997151 0)
(1.00853 0.0107828 0)
(1.00486 0.0100629 0)
(1.00319 0.0135615 0)
(1.00469 0.0157092 0)
(1.01 0.014078 0)
(1.01292 0.0104016 0)
(1.01289 0.00640254 0)
(1.01089 0.00530447 0)
(1.00951 0.00544874 0)
(0.996467 -0.00769068 0)
(0.998312 0.0163331 0)
(1.01108 -0.0138361 0)
(0.990368 -0.00825521 0)
(0.991253 0.00881342 0)
(0.995623 0.00855711 0)
(0.995769 0.00314674 0)
(0.993721 0.0118912 0)
(1.00049 0.0180207 0)
(1.00868 0.0160769 0)
(1.01445 0.00992419 0)
(1.00733 0.0110031 0)
(1.00445 0.0104235 0)
(1.00429 0.0134636 0)
(1.00571 0.0153946 0)
(1.01133 0.0136482 0)
(1.0138 0.0102691 0)
(1.0138 0.00657496 0)
(1.01146 0.00552063 0)
(1.00998 0.00567936 0)
(0.99686 -0.00748933 0)
(0.998072 0.0157322 0)
(1.01061 -0.0132519 0)
(0.99023 -0.00802872 0)
(0.991524 0.00860915 0)
(0.99571 0.00838731 0)
(0.996736 0.003474 0)
(0.994396 0.0114623 0)
(1.00034 0.0176145 0)
(1.00747 0.0159191 0)
(1.01286 0.00986011 0)
(1.00646 0.0111806 0)
(1.00385 0.0107182 0)
(1.00521 0.0132983 0)
(1.00634 0.0150621 0)
(1.01216 0.0132281 0)
(1.01423 0.0101164 0)
(1.01431 0.00679141 0)
(1.01178 0.00576433 0)
(1.01042 0.00591498 0)
(0.997092 -0.00728196 0)
(0.997981 0.0151192 0)
(1.01022 -0.0126478 0)
(0.990239 -0.00780275 0)
(0.991756 0.00838577 0)
(0.99595 0.00821031 0)
(0.997367 0.0037832 0)
(0.994984 0.0110629 0)
(1.00023 0.017226 0)
(1.00658 0.0158078 0)
(1.01162 0.00977876 0)
(1.00597 0.0113272 0)
(1.00318 0.0109655 0)
(1.00598 0.013071 0)
(1.00668 0.0147172 0)
(1.01254 0.0128364 0)
(1.01425 0.00993768 0)
(1.01446 0.00703027 0)
(1.01185 0.00603599 0)
(1.01079 0.00612714 0)
(0.997228 -0.00706894 0)
(0.997972 0.0144932 0)
(1.00978 -0.0120256 0)
(0.99047 -0.00757617 0)
(0.991955 0.00814164 0)
(0.996258 0.00803348 0)
(0.997727 0.00407821 0)
(0.995473 0.0106842 0)
(1.00013 0.0168419 0)
(1.00601 0.0157331 0)
(1.01069 0.00968187 0)
(1.00579 0.011452 0)
(1.00257 0.011187 0)
(1.00662 0.0127916 0)
(1.00685 0.0143652 0)
(1.01256 0.0124858 0)
(1.01399 0.00973058 0)
(1.01431 0.00725968 0)
(1.01173 0.0063377 0)
(1.01106 0.00629539 0)
(0.997297 -0.00685018 0)
(0.998026 0.0138554 0)
(1.00924 -0.0113921 0)
(0.990924 -0.00734908 0)
(0.992123 0.00788015 0)
(0.996573 0.007863 0)
(0.997929 0.00435824 0)
(0.995901 0.0103225 0)
(0.99999 0.0164503 0)
(1.00573 0.0156857 0)
(1.01002 0.00957509 0)
(1.00582 0.0115543 0)
(1.0021 0.0113999 0)
(1.00718 0.0124721 0)
(1.00699 0.0140077 0)
(1.01236 0.0121854 0)
(1.01359 0.0095035 0)
(1.01396 0.00744951 0)
(1.01148 0.00667082 0)
(1.01119 0.00641906 0)
(0.997306 -0.00662706 0)
(0.998147 0.0132102 0)
(1.00861 -0.0107523 0)
(0.991551 -0.00711971 0)
(0.992268 0.00760545 0)
(0.996867 0.00770147 0)
(0.998082 0.0046234 0)
(0.996318 0.00997861 0)
(0.999764 0.0160416 0)
(1.00559 0.0156539 0)
(1.00953 0.00946932 0)
(1.00593 0.0116264 0)
(1.00186 0.0116118 0)
(1.00766 0.0121294 0)
(1.00719 0.0136433 0)
(1.01203 0.0119454 0)
(1.01316 0.00927749 0)
(1.0135 0.00757757 0)
(1.01112 0.00703136 0)
(1.01117 0.00652217 0)
(0.997268 -0.00639964 0)
(0.998327 0.012559 0)
(1.00793 -0.0101083 0)
(0.992275 -0.00688734 0)
(0.992406 0.00731753 0)
(0.997123 0.00755034 0)
(0.99825 0.00487422 0)
(0.99676 0.00965373 0)
(0.999438 0.0156141 0)
(1.00549 0.0156255 0)
(1.0092 0.00937317 0)
(1.00605 0.011661 0)
(1.00184 0.0118201 0)
(1.00805 0.011783 0)
(1.00749 0.0132675 0)
(1.01163 0.0117691 0)
(1.01275 0.00908011 0)
(1.013 0.00763148 0)
(1.01069 0.00740604 0)
(1.011 0.00665239 0)
(0.997202 -0.00616982 0)
(0.998541 0.0119064 0)
(1.00726 -0.00946565 0)
(0.993021 -0.00665129 0)
(0.992555 0.00702037 0)
(0.997329 0.00740535 0)
(0.99845 0.00510957 0)
(0.99724 0.00935677 0)
(0.999033 0.0151714 0)
(1.00534 0.0155876 0)
(1.00899 0.00928852 0)
(1.00617 0.0116516 0)
(1.00204 0.0120222 0)
(1.00835 0.0114514 0)
(1.00787 0.0128752 0)
(1.01122 0.0116469 0)
(1.01234 0.0089357 0)
(1.01251 0.00761514 0)
(1.01023 0.00776465 0)
(1.01069 0.00685331 0)
(0.99714 -0.00593762 0)
(0.998748 0.0112527 0)
(1.00665 -0.00882725 0)
(0.993729 -0.00640755 0)
(0.992731 0.00671078 0)
(0.997476 0.00726817 0)
(0.998659 0.00532459 0)
(0.997758 0.00909599 0)
(0.998601 0.0147194 0)
(1.00509 0.0155274 0)
(1.00888 0.0092156 0)
(1.00627 0.0115907 0)
(1.00238 0.0122123 0)
(1.00856 0.0111548 0)
(1.0083 0.0124682 0)
(1.01081 0.0115674 0)
(1.01194 0.00885851 0)
(1.01207 0.00754576 0)
(1.00977 0.0080675 0)
(1.01029 0.00714283 0)
(0.997109 -0.00570392 0)
(0.998911 0.0105981 0)
(1.00614 -0.00819425 0)
(0.994368 -0.00615602 0)
(0.992941 0.00639024 0)
(0.997558 0.00713795 0)
(0.998836 0.00551978 0)
(0.9983 0.00886653 0)
(0.998212 0.0142643 0)
(1.00476 0.0154392 0)
(1.00885 0.00915807 0)
(1.00637 0.0114756 0)
(1.00279 0.0123761 0)
(1.00869 0.0109039 0)
(1.00873 0.0120511 0)
(1.01044 0.0115202 0)
(1.01153 0.00885631 0)
(1.01169 0.00744769 0)
(1.00936 0.00828147 0)
(1.00984 0.00751461 0)
(0.997127 -0.0054689 0)
(0.999009 0.00994582 0)
(1.00571 -0.00757053 0)
(0.994927 -0.00589495 0)
(0.993185 0.00606526 0)
(0.997579 0.00701023 0)
(0.998951 0.00569542 0)
(0.998843 0.00866042 0)
(0.997932 0.0138125 0)
(1.00439 0.0153185 0)
(1.00885 0.00911361 0)
(1.00649 0.0113129 0)
(1.00319 0.0125166 0)
(1.00875 0.010708 0)
(1.00912 0.0116225 0)
(1.01011 0.01149 0)
(1.0111 0.00892864 0)
(1.01138 0.00734918 0)
(1.00904 0.00838663 0)
(1.00938 0.00792823 0)
(0.997197 -0.00523225 0)
(0.999044 0.00929585 0)
(1.00535 -0.00695846 0)
(0.995416 -0.00562027 0)
(0.993463 0.00573016 0)
(0.997554 0.00688732 0)
(0.998992 0.00584988 0)
(0.99936 0.00847835 0)
(0.997802 0.0133662 0)
(1.00401 0.0151598 0)
(1.00884 0.00907708 0)
(1.00662 0.0111035 0)
(1.00353 0.0126341 0)
(1.00874 0.0105768 0)
(1.00945 0.0111801 0)
(1.00985 0.0114621 0)
(1.01066 0.00907912 0)
(1.01113 0.00728626 0)
(1.00884 0.00838838 0)
(1.00899 0.00831278 0)
(0.997314 -0.00499569 0)
(0.999029 0.0086522 0)
(1.00502 -0.00636128 0)
(0.99585 -0.00533014 0)
(0.993768 0.00539096 0)
(0.997503 0.00676789 0)
(0.998972 0.00598571 0)
(0.999827 0.00830735 0)
(0.997829 0.012921 0)
(1.00366 0.0149748 0)
(1.00879 0.00906175 0)
(1.00678 0.0108482 0)
(1.00377 0.012703 0)
(1.00866 0.0105134 0)
(1.00971 0.0107367 0)
(1.00966 0.0114132 0)
(1.01021 0.0092949 0)
(1.01093 0.0072825 0)
(1.00876 0.00831152 0)
(1.00869 0.00860364 0)
(0.997463 -0.00475839 0)
(0.998986 0.00801558 0)
(1.00471 -0.00578197 0)
(0.996248 -0.00502526 0)
(0.994098 0.00505306 0)
(0.997445 0.00664854 0)
(0.998913 0.00611258 0)
(1.00023 0.00814331 0)
(0.997989 0.0124711 0)
(1.00335 0.0147589 0)
(1.00869 0.00907069 0)
(1.00696 0.0105677 0)
(1.00392 0.0127191 0)
(1.0085 0.0105136 0)
(1.00991 0.0103071 0)
(1.00954 0.0113205 0)
(1.00976 0.0095496 0)
(1.01073 0.00734667 0)
(1.00879 0.0081925 0)
(1.00853 0.00877011 0)
(0.997632 -0.00452172 0)
(0.99893 0.00739071 0)
(1.00439 -0.00522444 0)
(0.996622 -0.00471109 0)
(0.994448 0.00471772 0)
(0.997398 0.00652157 0)
(0.998842 0.00622378 0)
(1.00056 0.00799246 0)
(0.99824 0.0120288 0)
(1.00309 0.0145159 0)
(1.00853 0.00908984 0)
(1.00715 0.0102646 0)
(1.00401 0.0126861 0)
(1.00827 0.0105752 0)
(1.01004 0.00989678 0)
(1.00947 0.0111722 0)
(1.00932 0.00983303 0)
(1.01052 0.00748261 0)
(1.00888 0.0080692 0)
(1.0085 0.00881084 0)
(0.997812 -0.00428644 0)
(0.998874 0.00678192 0)
(1.00405 -0.00468981 0)
(0.996976 -0.00439127 0)
(0.994812 0.00439401 0)
(0.99737 0.00638855 0)
(0.998778 0.00632208 0)
(1.00083 0.00783746 0)
(0.998543 0.0115744 0)
(1.00285 0.0142637 0)
(1.0083 0.00913613 0)
(1.00734 0.0099449 0)
(1.00406 0.0125864 0)
(1.00797 0.0107017 0)
(1.0101 0.00952524 0)
(1.00946 0.0109476 0)
(1.00889 0.0101299 0)
(1.01026 0.00768751 0)
(1.009 0.00797199 0)
(1.00858 0.00876505 0)
(0.997996 -0.00405306 0)
(0.998825 0.00619048 0)
(1.00369 -0.00417873 0)
(0.997311 -0.00406412 0)
(0.995184 0.00408796 0)
(0.997369 0.00622788 0)
(0.998728 0.00641145 0)
(1.00106 0.00770591 0)
(0.998868 0.0111068 0)
(1.00265 0.01397 0)
(1.00802 0.00920193 0)
(1.00753 0.00963692 0)
(1.0041 0.0124064 0)
(1.00761 0.0108691 0)
(1.0101 0.00922591 0)
(1.00952 0.0106345 0)
(1.00851 0.0104083 0)
(1.00994 0.00795281 0)
(1.0091 0.00789302 0)
(1.00874 0.00867243 0)
(0.998177 -0.00382164 0)
(0.998785 0.00561841 0)
(1.00333 -0.00369212 0)
(0.997625 -0.00374323 0)
(0.995557 0.00381603 0)
(0.997392 0.0060592 0)
(0.998696 0.00647455 0)
(1.00125 0.00757806 0)
(0.999194 0.0106514 0)
(1.00246 0.0136542 0)
(1.0077 0.00927158 0)
(1.0077 0.00935099 0)
(1.00415 0.0121571 0)
(1.00721 0.0110389 0)
(1.01002 0.00901942 0)
(1.00963 0.0102495 0)
(1.00818 0.010641 0)
(1.00956 0.0083024 0)
(1.00916 0.00782691 0)
(1.00897 0.00851217 0)
(0.998353 -0.00359316 0)
(0.998754 0.0050645 0)
(1.00297 -0.00322297 0)
(0.997916 -0.00343462 0)
(0.995927 0.00356929 0)
(0.997439 0.00588027 0)
(0.998673 0.0065293 0)
(1.00141 0.00747336 0)
(0.99952 0.0101845 0)
(1.00228 0.0133202 0)
(1.00734 0.00935505 0)
(1.00785 0.00907537 0)
(1.00423 0.0118587 0)
(1.00679 0.011207 0)
(1.00986 0.00891057 0)
(1.00978 0.00979936 0)
(1.00793 0.0107585 0)
(1.00911 0.00875177 0)
(1.00913 0.00785181 0)
(1.00922 0.00830066 0)
(0.998521 -0.00336683 0)
(0.998735 0.00453109 0)
(1.0026 -0.00277581 0)
(0.998182 -0.0031463 0)
(0.996288 0.00335382 0)
(0.997508 0.00569517 0)
(0.998665 0.00653275 0)
(1.00153 0.00738663 0)
(0.999835 0.00975227 0)
(1.00213 0.0129465 0)
(1.00694 0.00944908 0)
(1.00798 0.00883768 0)
(1.00436 0.0114852 0)
(1.00637 0.0113477 0)
(1.0096 0.00891823 0)
(1.00995 0.00935149 0)
(1.0078 0.0107119 0)
(1.00865 0.00920757 0)
(1.00898 0.00799955 0)
(1.00945 0.00809016 0)
(0.99868 -0.00314355 0)
(0.998726 0.00401809 0)
(1.00225 -0.00234559 0)
(0.998422 -0.0028795 0)
(0.996641 0.00315001 0)
(0.99759 0.00552101 0)
(0.998659 0.00652555 0)
(1.00164 0.00728638 0)
(1.00014 0.00932057 0)
(1.002 0.0125581 0)
(1.00653 0.00950927 0)
(1.00806 0.0086571 0)
(1.00453 0.0110802 0)
(1.00598 0.0114007 0)
(1.00926 0.00900166 0)
(1.0101 0.00895843 0)
(1.00777 0.0105546 0)
(1.0082 0.00962376 0)
(1.00872 0.00825959 0)
(1.00961 0.00794655 0)
(0.998829 -0.00292276 0)
(0.998729 0.00352522 0)
(1.0019 -0.0019376 0)
(0.998634 -0.00262423 0)
(0.996981 0.00295903 0)
(0.997691 0.00536623 0)
(0.998662 0.00646934 0)
(1.0017 0.00720614 0)
(1.00043 0.00891001 0)
(1.0019 0.0121406 0)
(1.0061 0.00957242 0)
(1.0081 0.00849028 0)
(1.00473 0.0106582 0)
(1.00563 0.011399 0)
(1.00885 0.00912787 0)
(1.01022 0.00863313 0)
(1.00786 0.0102372 0)
(1.0078 0.00997664 0)
(1.00835 0.00861953 0)
(1.00966 0.00794157 0)
(0.998968 -0.00270612 0)
(0.998742 0.00305402 0)
(1.00156 -0.00155215 0)
(0.998822 -0.00237364 0)
(0.997314 0.00276715 0)
(0.997795 0.00523677 0)
(0.998665 0.00640502 0)
(1.00176 0.00711019 0)
(1.00071 0.00852745 0)
(1.00183 0.0117179 0)
(1.00568 0.00959491 0)
(1.00808 0.00837556 0)
(1.00496 0.0102124 0)
(1.00534 0.0113015 0)
(1.00838 0.00929238 0)
(1.01025 0.00842578 0)
(1.00804 0.00981837 0)
(1.00752 0.0101328 0)
(1.00791 0.00900527 0)
(1.00957 0.0080394 0)
(0.999095 -0.00249107 0)
(0.998768 0.00259944 0)
(1.00125 -0.00119092 0)
(0.998981 -0.00211944 0)
(0.997636 0.00255767 0)
(0.997917 0.0051255 0)
(0.998666 0.00632728 0)
(1.00178 0.00701248 0)
(1.00096 0.00815221 0)
(1.00179 0.0112914 0)
(1.00525 0.00960199 0)
(1.00802 0.00827079 0)
(1.00519 0.00978254 0)
(1.00511 0.0111465 0)
(1.00788 0.00942826 0)
(1.0102 0.00827145 0)
(1.00825 0.00936949 0)
(1.00735 0.0100142 0)
(1.00746 0.00926368 0)
(1.00934 0.00819646 0)
(0.999211 -0.00228166 0)
(0.998805 0.00217124 0)
(1.00094 -0.000866353 0)
(0.999112 -0.0018508 0)
(0.997953 0.00232864 0)
(0.998042 0.00502085 0)
(0.998664 0.00624097 0)
(1.00178 0.00690204 0)
(1.0012 0.00779947 0)
(1.00178 0.0108478 0)
(1.00483 0.00958694 0)
(1.00789 0.00821443 0)
(1.00543 0.00932406 0)
(1.00495 0.0109114 0)
(1.00736 0.00957972 0)
(1.01004 0.00817568 0)
(1.00846 0.00892697 0)
(1.00729 0.00976756 0)
(1.00706 0.00937129 0)
(1.00906 0.00836336 0)
(0.999316 -0.00207552 0)
(0.998855 0.00176294 0)
(1.00066 -0.000571771 0)
(0.99921 -0.00156276 0)
(0.998256 0.00208148 0)
(0.998193 0.00491065 0)
(0.998661 0.00618495 0)
(1.00175 0.00678114 0)
(1.00142 0.00744522 0)
(1.0018 0.0104071 0)
(1.00444 0.00952603 0)
(1.0077 0.00817582 0)
(1.00564 0.00890429 0)
(1.00487 0.0105985 0)
(1.00685 0.00967157 0)
(1.00977 0.008191 0)
(1.00865 0.00853859 0)
(1.00732 0.00951484 0)
(1.00672 0.00952356 0)
(1.00874 0.00862246 0)
(0.99941 -0.00187432 0)
(0.998916 0.0013818 0)
(1.00041 -0.000320651 0)
(0.99928 -0.00125472 0)
(0.99855 0.00184398 0)
(0.998358 0.00477169 0)
(0.998653 0.0061236 0)
(1.00169 0.00668727 0)
(1.00162 0.0071068 0)
(1.00186 0.00996128 0)
(1.00407 0.00944922 0)
(1.00746 0.00813589 0)
(1.00584 0.00850883 0)
(1.00484 0.0102464 0)
(1.00637 0.00970962 0)
(1.00942 0.00829946 0)
(1.00878 0.00820872 0)
(1.00747 0.00922873 0)
(1.00651 0.00961589 0)
(1.00836 0.00894782 0)
(0.999494 -0.00168237 0)
(0.998987 0.0010332 0)
(1.00018 -0.000113736 0)
(0.999319 -0.000931063 0)
(0.998824 0.00161609 0)
(0.998553 0.0046017 0)
(0.998654 0.00609056 0)
(1.0016 0.006598 0)
(1.00179 0.00677429 0)
(1.00194 0.00949777 0)
(1.00373 0.00933626 0)
(1.00717 0.00813876 0)
(1.00599 0.00811324 0)
(1.0049 0.00986817 0)
(1.00597 0.00971858 0)
(1.00899 0.00843036 0)
(1.00883 0.00801254 0)
(1.00769 0.00889379 0)
(1.00641 0.00955271 0)
(1.008 0.00918413 0)
(0.999567 -0.00149473 0)
(0.999067 0.000713244 0)
(0.999991 5.08414e-05 0)
(0.999334 -0.000607023 0)
(0.999078 0.00143544 0)
(0.998769 0.00438506 0)
(0.998663 0.00601924 0)
(1.00148 0.0065509 0)
(1.00193 0.00648034 0)
(1.00206 0.00902696 0)
(1.00343 0.00920093 0)
(1.00682 0.00813756 0)
(1.00611 0.00779697 0)
(1.00501 0.00946819 0)
(1.00561 0.00961872 0)
(1.00852 0.00857915 0)
(1.00878 0.00795474 0)
(1.00793 0.00854851 0)
(1.00646 0.00942989 0)
(1.00769 0.00931895 0)
(0.999632 -0.00132087 0)
(0.999154 0.000436869 0)
(0.999835 0.000167561 0)
(0.999328 -0.000283179 0)
(0.999299 0.00129722 0)
(0.999012 0.00411297 0)
(0.998705 0.0059488 0)
(1.00134 0.00654718 0)
(1.00203 0.00622029 0)
(1.00221 0.00854744 0)
(1.00319 0.00899845 0)
(1.00645 0.00817785 0)
(1.00615 0.00754597 0)
(1.00516 0.0090291 0)
(1.00537 0.00948405 0)
(1.00806 0.00871095 0)
(1.00861 0.00796846 0)
(1.00814 0.00826581 0)
(1.0066 0.00920456 0)
(1.00744 0.00931753 0)
(0.999688 -0.00115837 0)
(0.999246 0.000203156 0)
(0.999715 0.000233449 0)
(0.999308 3.53363e-05 0)
(0.999488 0.00122006 0)
(0.999274 0.00382945 0)
(0.998777 0.00581278 0)
(1.00117 0.0065475 0)
(1.00208 0.00603484 0)
(1.00237 0.00808911 0)
(1.00301 0.00875576 0)
(1.00605 0.00821068 0)
(1.00613 0.0073834 0)
(1.00534 0.00863536 0)
(1.00521 0.00927191 0)
(1.00761 0.00873212 0)
(1.00837 0.00802386 0)
(1.00829 0.00808596 0)
(1.0068 0.00888404 0)
(1.00728 0.00918392 0)
(0.999737 -0.00101036 0)
(0.999338 1.3067e-05 0)
(0.999634 0.000254535 0)
(0.999284 0.000337163 0)
(0.999638 0.00120361 0)
(0.999542 0.00353163 0)
(0.998896 0.00562096 0)
(1.00101 0.00657407 0)
(1.00209 0.00592156 0)
(1.00253 0.00764898 0)
(1.00289 0.00845258 0)
(1.00566 0.00820803 0)
(1.00604 0.00729746 0)
(1.00551 0.00825999 0)
(1.00512 0.00898538 0)
(1.00722 0.00871335 0)
(1.00809 0.00809403 0)
(1.00833 0.00797562 0)
(1.007 0.00854435 0)
(1.00721 0.00895476 0)
(0.99978 -0.000879037 0)
(0.999428 -0.000133184 0)
(0.999589 0.000239323 0)
(0.999261 0.00060364 0)
(0.999749 0.00124057 0)
(0.999811 0.00325952 0)
(0.999063 0.00537059 0)
(1.00087 0.00656875 0)
(1.00204 0.00586079 0)
(1.00268 0.00726413 0)
(1.00285 0.00812043 0)
(1.00531 0.00816759 0)
(1.00588 0.0072547 0)
(1.00565 0.00793275 0)
(1.00511 0.00867278 0)
(1.00689 0.00863459 0)
(1.00777 0.00809021 0)
(1.00828 0.00788158 0)
(1.00716 0.00826573 0)
(1.00725 0.00866942 0)
(0.999818 -0.00076398 0)
(0.999513 -0.000236159 0)
(0.999576 0.000194991 0)
(0.999248 0.000827037 0)
(0.999824 0.0013253 0)
(1.00006 0.00302278 0)
(0.999275 0.00504991 0)
(1.00076 0.00652306 0)
(1.00196 0.00586276 0)
(1.0028 0.00695651 0)
(1.00285 0.00775253 0)
(1.00499 0.00805611 0)
(1.00568 0.00722634 0)
(1.00574 0.0076654 0)
(1.00514 0.00833318 0)
(1.00662 0.00848502 0)
(1.00746 0.00805177 0)
(1.00817 0.0078145 0)
(1.00726 0.0080739 0)
(1.00733 0.00836082 0)
(0.999852 -0.000667504 0)
(0.999589 -0.000298101 0)
(0.999592 0.000136009 0)
(0.999251 0.00100071 0)
(0.999866 0.00143309 0)
(1.00028 0.00284495 0)
(0.999526 0.00470033 0)
(1.00069 0.00642059 0)
(1.00185 0.00587007 0)
(1.00287 0.00670069 0)
(1.00289 0.0073864 0)
(1.00474 0.00789153 0)
(1.00545 0.00719645 0)
(1.00577 0.00746596 0)
(1.0052 0.00800222 0)
(1.00642 0.00828567 0)
(1.00717 0.00797866 0)
(1.00802 0.00771807 0)
(1.00729 0.00790667 0)
(1.00739 0.00809061 0)
(0.999882 -0.000587009 0)
(0.999657 -0.000324406 0)
(0.99963 7.10734e-05 0)
(0.999272 0.00111829 0)
(0.999886 0.00155026 0)
(1.00047 0.00274055 0)
(0.999801 0.00433737 0)
(1.00069 0.00623551 0)
(1.00174 0.0058724 0)
(1.00291 0.00651796 0)
(1.00294 0.00705275 0)
(1.00454 0.00767974 0)
(1.00522 0.00713053 0)
(1.00575 0.00729815 0)
(1.00525 0.00769075 0)
(1.00628 0.00802949 0)
(1.00689 0.00786266 0)
(1.00786 0.00760769 0)
(1.00729 0.00774192 0)
(1.0074 0.00790786 0)
(0.999909 -0.000521711 0)
(0.999714 -0.000321188 0)
(0.999683 8.33822e-06 0)
(0.999314 0.00118696 0)
(0.999895 0.0016624 0)
(1.00061 0.00270495 0)
(1.00008 0.00399575 0)
(1.00074 0.00597759 0)
(1.00163 0.00584857 0)
(1.0029 0.00636621 0)
(1.003 0.0067304 0)
(1.00439 0.00743153 0)
(1.00501 0.0070351 0)
(1.00568 0.00715028 0)
(1.00528 0.00742058 0)
(1.00619 0.00776443 0)
(1.00666 0.00771628 0)
(1.00768 0.00750604 0)
(1.00728 0.00753826 0)
(1.00736 0.00773504 0)
(0.999934 -0.000469846 0)
(0.99976 -0.000295283 0)
(0.999744 -4.41914e-05 0)
(0.999377 0.00121104 0)
(0.999903 0.00175676 0)
(1.0007 0.00272233 0)
(1.00034 0.00371188 0)
(1.00085 0.00566471 0)
(1.00155 0.0057618 0)
(1.00285 0.00623723 0)
(1.00304 0.00644705 0)
(1.00429 0.00715866 0)
(1.00481 0.00690552 0)
(1.00559 0.00700548 0)
(1.00529 0.00717723 0)
(1.00612 0.00750452 0)
(1.00647 0.00751426 0)
(1.00746 0.00738794 0)
(1.00724 0.00732051 0)
(1.00733 0.00751804 0)
(0.999957 -0.000427837 0)
(0.999796 -0.000256138 0)
(0.999807 -8.08994e-05 0)
(0.999458 0.00120234 0)
(0.999919 0.00182628 0)
(1.00076 0.00276064 0)
(1.00057 0.00349906 0)
(1.00099 0.00533336 0)
(1.00152 0.00560755 0)
(1.00279 0.00611133 0)
(1.00306 0.00620339 0)
(1.00422 0.00686611 0)
(1.00465 0.00672575 0)
(1.00548 0.00685802 0)
(1.00528 0.00695242 0)
(1.00606 0.00725438 0)
(1.00632 0.00728004 0)
(1.00726 0.00724172 0)
(1.00716 0.00715596 0)
(1.00733 0.00726684 0)
(0.999978 -0.000393636 0)
(0.999823 -0.000211443 0)
(0.999866 -9.43122e-05 0)
(0.999552 0.00117347 0)
(0.999946 0.00186493 0)
(1.0008 0.00279804 0)
(1.00077 0.00334856 0)
(1.00115 0.00501667 0)
(1.00152 0.00539849 0)
(1.00272 0.00595582 0)
(1.00306 0.00598007 0)
(1.00416 0.00658463 0)
(1.00452 0.00651579 0)
(1.00536 0.0066973 0)
(1.00524 0.00674219 0)
(1.006 0.00700753 0)
(1.0062 0.00704248 0)
(1.00709 0.00704542 0)
(1.00703 0.00701327 0)
(1.00731 0.00702498 0)
(0.999996 -0.00036362 0)
(0.999843 -0.000165624 0)
(0.999919 -8.49602e-05 0)
(0.999654 0.001133 0)
(0.999988 0.00187144 0)
(1.00082 0.0028271 0)
(1.00092 0.00323755 0)
(1.00131 0.00472599 0)
(1.00155 0.00515806 0)
(1.00266 0.0057789 0)
(1.00304 0.00577102 0)
(1.0041 0.00631709 0)
(1.00441 0.00628967 0)
(1.00525 0.0065022 0)
(1.00518 0.00653213 0)
(1.00593 0.00676543 0)
(1.00609 0.00681638 0)
(1.00695 0.00681792 0)
(1.00691 0.00682508 0)
(1.00723 0.00682574 0)
(1.00001 -0.000336668 0)
(0.999859 -0.000122513 0)
(0.999964 -5.55608e-05 0)
(0.999758 0.00108888 0)
(1.00004 0.00184648 0)
(1.00083 0.00283762 0)
(1.00104 0.00315188 0)
(1.00145 0.0044699 0)
(1.00161 0.00490269 0)
(1.00261 0.00557847 0)
(1.00301 0.00556708 0)
(1.00404 0.00605112 0)
(1.00432 0.00605026 0)
(1.00515 0.00628764 0)
(1.00512 0.0063191 0)
(1.00587 0.00653072 0)
(1.00597 0.00659166 0)
(1.0068 0.00659555 0)
(1.0068 0.00657682 0)
(1.00713 0.00662876 0)
(1.00003 -0.000310513 0)
(0.999872 -8.39805e-05 0)
(1 -1.38147e-05 0)
(0.999857 0.00104914 0)
(1.00011 0.00179397 0)
(1.00084 0.00282414 0)
(1.00113 0.00307685 0)
(1.00158 0.00424769 0)
(1.00168 0.00464256 0)
(1.00259 0.00535112 0)
(1.00297 0.00536474 0)
(1.00398 0.0057995 0)
(1.00424 0.00580347 0)
(1.00506 0.0060628 0)
(1.00506 0.00609672 0)
(1.0058 0.00628445 0)
(1.00586 0.00634604 0)
(1.00664 0.00638759 0)
(1.0067 0.0063285 0)
(1.00706 0.00639108 0)
(1.00004 -0.000285375 0)
(0.999884 -4.942e-05 0)
(1.00003 3.20015e-05 0)
(0.999945 0.00101606 0)
(1.00019 0.00172847 0)
(1.00085 0.00278595 0)