/*--------------------------------*- C++ -*----------------------------------*\
| =========                 |                                                 |
| \\      /  F ield         | OpenFOAM: The Open Source CFD Toolbox           |
|  \\    /   O peration     | Version:  v1912                                 |
|   \\  /    A nd           | Website:  www.openfoam.com                      |
|    \\/     M anipulation  |                                                 |
\*---------------------------------------------------------------------------*/
FoamFile
{
    version     2.0;
    format      ascii;
    class       volScalarField;
    location    "2.25";
    object      p;
}
// * * * * * * * * * * * * * * * * * * * * * * * * * * * * * * * * * * * * * //

dimensions      [0 2 -2 0 0 0 0];


internalField   nonuniform List<scalar> 
9600
(
-3.02698e-11
-0.00176022
-0.00470495
-8.73367e-05
0.00277254
0.000921834
0.00297163
0.00307322
0.00212315
0.00506265
0.00303718
0.00427055
0.00605372
0.00680615
0.00718151
0.0089551
0.00902129
0.0105901
0.0119168
0.0173246
-1.27724e-05
-0.00175119
-0.00469198
-8.60362e-05
0.00275478
0.000922251
0.00297458
0.00306952
0.00214743
0.00502563
0.00307038
0.00428832
0.0060396
0.00681517
0.00718568
0.00894499
0.00904032
0.0105739
0.0119439
0.0168696
-2.52714e-05
-0.00174136
-0.0046741
-9.27934e-05
0.00272943
0.000938873
0.00297884
0.00306154
0.00217571
0.00497938
0.00310813
0.00431336
0.00602646
0.006823
0.00718496
0.00894216
0.00906245
0.0105424
0.0119576
0.0163355
-4.00622e-05
-0.00173059
-0.00464809
-9.46512e-05
0.0027048
0.000971317
0.00298535
0.00304796
0.00221144
0.00492421
0.00314792
0.00434714
0.00600709
0.00682431
0.00718394
0.00893692
0.00908376
0.0104956
0.0119573
0.0158433
-5.84935e-05
-0.0017173
-0.00461057
-8.77965e-05
0.00267934
0.00101703
0.00299448
0.00302988
0.00225409
0.00486088
0.00319097
0.004382
0.00598268
0.00682244
0.00718398
0.00892651
0.00910478
0.0104397
0.0119401
0.0153849
-7.97138e-05
-0.00170005
-0.00456155
-7.64006e-05
0.00265282
0.00107258
0.00300666
0.00300898
0.00230063
0.00479233
0.00323678
0.00441542
0.00595659
0.00681589
0.00718581
0.00891118
0.00912499
0.0103761
0.011909
0.0149545
-0.000102313
-0.0016781
-0.00450292
-6.1456e-05
0.00262637
0.00113467
0.00302178
0.0029863
0.0023487
0.00472095
0.00328499
0.00444668
0.00592994
0.00680833
0.00718938
0.00889112
0.00914274
0.010307
0.0118612
0.0145495
-0.000124857
-0.00165163
-0.00443564
-4.08291e-05
0.00259981
0.00119966
0.00303914
0.00296283
0.00239716
0.00464874
0.00333599
0.00447534
0.00590334
0.00679865
0.00719325
0.00886698
0.00915675
0.0102329
0.0117957
0.0141699
-0.00014642
-0.00162144
-0.0043588
-1.2939e-05
0.00257143
0.00126404
0.00305759
0.00293957
0.00244572
0.00457764
0.00339065
0.00450132
0.00587712
0.0067866
0.00719606
0.00883976
0.00916541
0.0101538
0.0117118
0.0138132
-0.000166707
-0.00158843
-0.00427075
2.20311e-05
0.00253933
0.00132481
0.00307597
0.00291749
0.00249452
0.0045095
0.00344999
0.00452492
0.0058505
0.00677233
0.00719675
0.00880979
0.00916703
0.0100705
0.0116101
0.0134747
-0.000185885
-0.00155331
-0.00417073
6.26455e-05
0.00250246
0.00138012
0.00309344
0.00289735
0.00254368
0.00444575
0.00351463
0.00454658
0.00582316
0.00675638
0.00719392
0.00877715
0.00916101
0.0099832
0.0114914
0.0131484
-0.000204331
-0.00151639
-0.00405954
0.000106844
0.00246076
0.00142925
0.00310961
0.00287963
0.00259324
0.00438721
0.0035845
0.00456682
0.00579459
0.00673934
0.00718654
0.00874232
0.00914727
0.00989078
0.0113572
0.0128305
-0.00022239
-0.00147768
-0.00393909
0.000152704
0.00241506
0.00147228
0.00312446
0.00286441
0.00264313
0.00433397
0.00365867
0.00458617
0.00576421
0.00672193
0.00717427
0.00870533
0.00912558
0.0097918
0.0112094
0.0125196
-0.000240284
-0.00143716
-0.00381161
0.00019901
0.00236657
0.0015097
0.00313816
0.00285156
0.00269333
0.00428556
0.00373562
0.00460519
0.00573144
0.00670495
0.00715706
0.0086657
0.00909634
0.00968469
0.0110509
0.012215
-0.000258115
-0.0013948
-0.00367892
0.000245223
0.00231647
0.00154213
0.00315095
0.00284083
0.00274377
0.00424129
0.00381365
0.00462436
0.00569589
0.00668978
0.00713511
0.00862281
0.00906086
0.0095677
0.0108839
0.0119173
-0.000275887
-0.00135062
-0.0035423
0.000291202
0.0022659
0.00157025
0.00316307
0.00283189
0.00279432
0.0042005
0.00389117
0.0046442
0.00565731
0.00667633
0.00710911
0.00857551
0.00902131
0.00943942
0.0107092
0.0116279
-0.000293547
-0.00130464
-0.00340265
0.000337029
0.00221592
0.00159469
0.00317472
0.00282449
0.0028448
0.00416274
0.00396683
0.00466539
0.00561538
0.00666531
0.00708017
0.00852209
0.0089798
0.00929941
0.0105262
0.011349
-0.00031099
-0.00125694
-0.00326055
0.000382895
0.00216749
0.00161597
0.00318604
0.00281842
0.00289486
0.0041279
0.00403951
0.00468855
0.00556954
0.00665673
0.00704974
0.00846059
0.00893778
0.00914851
0.0103335
0.011083
-0.000328071
-0.0012076
-0.00311641
0.000428952
0.00212135
0.0016345
0.00319709
0.00281361
0.00294399
0.00409616
0.0041082
0.00471417
0.00551989
0.00664984
0.00701967
0.00838882
0.00889577
0.00898871
0.0101287
0.0108318
-0.000344623
-0.00115673
-0.00297051
0.000475247
0.00207812
0.00165049
0.00320781
0.00281013
0.00299157
0.00406789
0.00417207
0.00474262
0.00546659
0.00664353
0.00699192
0.00830477
0.00885286
0.00882336
0.00990863
0.0105962
-0.000360443
-0.00110444
-0.00282306
0.000521729
0.00203832
0.00166405
0.00321791
0.00280816
0.00303691
0.00404363
0.00423051
0.00477393
0.00541029
0.00663566
0.00696831
0.00820743
0.00880691
0.00865733
0.00967107
0.010374
-0.000375296
-0.00105088
-0.00267417
0.000568267
0.00200229
0.00167518
0.00322703
0.00280798
0.0030793
0.00402395
0.00428313
0.00480786
0.00535182
0.00662347
0.00695016
0.00809687
0.00875487
0.0084959
0.00941556
0.0101608
-0.000388922
-0.000996194
-0.00252392
0.000614673
0.00197024
0.0016838
0.0032347
0.00280998
0.0031181
0.00400926
0.00432946
0.00484392
0.0052922
0.00660473
0.00693822
0.00797383
0.00869308
0.00834376
0.00914292
0.00994973
-0.000401047
-0.000940561
-0.00237236
0.000660725
0.00194231
0.00168996
0.00324037
0.00281458
0.00315283
0.00399975
0.00437002
0.0048812
0.00523289
0.00657765
0.00693252
0.00784034
0.00861746
0.00820464
0.0088557
0.009733
-0.000411385
-0.000884166
-0.0022196
0.000706198
0.0019186
0.00169388
0.00324353
0.00282212
0.00318316
0.00399538
0.00440478
0.00491854
0.00517574
0.00654094
0.00693223
0.00769954
0.00852378
0.00808054
0.00855937
0.0095025
-0.00041965
-0.000827208
-0.00206577
0.000750946
0.00189917
0.00169586
0.00324372
0.00283284
0.00320891
0.00399591
0.00443406
0.00495459
0.00512225
0.00649378
0.00693604
0.00755504
0.00840851
0.0079714
0.00826154
0.00925109
-0.000425512
-0.00076993
-0.00191103
0.000794913
0.00188405
0.00169636
0.00324042
0.00284697
0.0032301
0.00400094
0.00445835
0.00498765
0.00507349
0.00643556
0.00694217
0.00741076
0.00826938
0.00787518
0.00797082
0.00897355
-0.000428624
-0.000712566
-0.00175562
0.000838079
0.00187319
0.001696
0.00323317
0.00286465
0.00324694
0.00400984
0.00447831
0.00501595
0.00503045
0.00636657
0.00694806
0.00727096
0.00810588
0.00778684
0.00769694
0.00866844
-0.000428685
-0.000655315
-0.00159977
0.000880503
0.00186643
0.00169535
0.00322159
0.00288585
0.00325978
0.00402177
0.00449487
0.00503799
0.00499344
0.00628764
0.00695083
0.00713978
0.00791946
0.00769869
0.0074488
0.00833996
-0.000425351
-0.00059839
-0.00144381
0.000922383
0.00186357
0.00169499
0.00320531
0.00291027
0.00326906
0.00403587
0.00450915
0.00505246
0.00496218
0.00619987
0.00694742
0.00702061
0.00771378
0.00760211
0.00723151
0.00799713
-0.000418212
-0.000542009
-0.0012882
0.000963976
0.00186432
0.00169563
0.00318434
0.00293743
0.00327521
0.0040511
0.0045222
0.0050585
0.004936
0.00610481
0.00693464
0.00691578
0.0074943
0.00748909
0.00704636
0.00765281
-0.0004069
-0.000486319
-0.00113348
0.00100551
0.0018684
0.00169788
0.00315899
0.00296686
0.00327879
0.00406616
0.00453484
0.0050554
0.00491346
0.00600448
0.00690997
0.00682588
0.00726718
0.00735441
0.00689093
0.00732072
-0.000391037
-0.000431366
-0.000980252
0.00104725
0.00187566
0.00170213
0.00312953
0.00299834
0.0032805
0.00407944
0.00454785
0.00504374
0.0048923
0.00590111
0.00687231
0.00674985
0.00703876
0.00719597
0.00675848
0.00701225
-0.000369673
-0.000377136
-0.000829281
0.00108951
0.00188606
0.00170862
0.00309627
0.00303161
0.00328116
0.00408908
0.0045616
0.00502459
0.00487022
0.00579618
0.00682115
0.00668613
0.00681529
0.00701367
0.00664022
0.0067358
-0.000343322
-0.00032352
-0.000681336
0.00113256
0.00189966
0.00171757
0.00305948
0.0030663
0.00328187
0.00409314
0.00457563
0.00500008
0.0048453
0.00569013
0.00675617
0.00663281
0.00660272
0.0068088
0.00652692
0.0064972
-0.000311813
-0.000270336
-0.000537182
0.00117651
0.00191662
0.00172939
0.00301932
0.00310191
0.00328396
0.00409015
0.00458899
0.00497252
0.00481594
0.00558266
0.00667759
0.00658734
0.00640648
0.00658416
0.00640922
0.0063001
-0.000274709
-0.000217304
-0.00039762
0.00122145
0.00193711
0.00174443
0.00297578
0.00313786
0.00328906
0.00407908
0.00460009
0.00494423
0.00478153
0.00547262
0.00658574
0.00654686
0.0062312
0.00634512
0.0062779
0.00614392
-0.000231587
-0.000163959
-0.000263439
0.00126738
0.00196134
0.00176306
0.0029288
0.00317316
0.00329917
0.00405998
0.00460581
0.00491716
0.00474282
0.00535832
0.0064806
0.00650822
0.00607959
0.00609996
0.00612583
0.00602055
-0.000182459
-0.000109803
-0.000135315
0.00131409
0.00198931
0.00178626
0.00287862
0.00320607
0.00331613
0.00403394
0.00460248
0.00489131
0.00470252
0.00523946
0.00636114
0.00646762
0.00595242
0.00585778
0.00595115
0.00591803
-0.00012745
-5.42563e-05
-1.37431e-05
0.00136121
0.00202081
0.00181519
0.00282607
0.00323442
0.00334116
0.00400289
0.00458698
0.00486533
0.00466422
0.005117
0.0062249
0.00642119
0.00584944
0.00562594
0.00575569
0.00582559
-6.65759e-05
3.32583e-06
0.000100862
0.00140836
0.00205551
0.00185062
0.00277245
0.00325573
0.00337453
0.00397003
0.00455739
0.00483706
0.00463035
0.00499331
0.00607026
0.00636429
0.00576877
0.0054099
0.00554389
0.00573525
-8.45627e-09
6.35891e-05
0.000208323
0.00145512
0.00209306
0.00189294
0.00271941
0.00326773
0.00341542
0.00393941
0.00451378
0.00480256
0.00460132
0.00487344
0.00589848
0.00629046
0.00570763
0.00521411
0.0053186
0.00563882
7.17945e-05
0.000127229
0.000308756
0.00150098
0.00213307
0.0019421
0.00266917
0.00326912
0.00346185
0.00391495
0.00445745
0.00475772
0.0045756
0.00476299
0.00571362
0.00619346
0.00566062
0.00504738
0.00508167
0.00552076
0.000148483
0.000194876
0.000402559
0.0015453
0.00217532
0.00199736
0.00262399
0.0032603
0.00351027
0.00389913
0.00439114
0.00470032
0.00455087
0.00466464
0.0055232
0.00607242
0.00561917
0.00492084
0.00484227
0.00532855
0.000229498
0.000267118
0.00049057
0.00158726
0.00221944
0.00205751
0.00258502
0.00324269
0.00355691
0.00389282
0.00431942
0.00462973
0.00452407
0.00457846
0.00533424
0.00592979
0.00557218
0.00482816
0.00461874
0.00508053
0.000314101
0.000344462
0.00057399
0.00162589
0.00226512
0.00212159
0.00255241
0.00321888
0.00359936
0.00389525
0.004247
0.00454692
0.00449191
0.00450379
0.00515062
0.00576545
0.00551049
0.00475755
0.00442719
0.00481033
0.000401675
0.000427319
0.000654246
0.0016602
0.00231257
0.00218938
0.00252592
0.00319063
0.00363694
0.00390482
0.00417704
0.004454
0.00445184
0.00443938
0.00497359
0.00557794
0.00542875
0.00470487
0.00427431
0.00454634
0.000491386
0.000515975
0.000732872
0.00168937
0.00236019
0.00226083
0.00250537
0.00315803
0.00366986
0.00392088
0.00411077
0.00435259
0.00440239
0.00438356
0.00480351
0.0053681
0.0053225
0.0046681
0.0041624
0.00430948
0.000582722
0.000610458
0.000811384
0.00171328
0.00240652
0.00233574
0.00249056
0.00312079
0.00369789
0.00394363
0.00404972
0.00424394
0.00434196
0.00433313
0.00464194
0.00514244
0.00518864
0.0046391
0.00409195
0.00411206
0.00067541
0.000710312
0.000891158
0.00173223
0.00244978
0.00241395
0.00248183
0.00307806
0.00371971
0.00397323
0.00399611
0.00412878
0.00426748
0.00428533
0.00449618
0.0049148
0.00502855
0.00459974
0.00405844
0.00396167
0.000769143
0.000814873
0.000973436
0.00174725
0.00248786
0.00249497
0.00248054
0.00302863
0.00373323
0.00400967
0.0039524
0.00400904
0.00417594
0.00423792
0.00437427
0.00469726
0.0048472
0.00453335
0.00404329
0.00386239
0.000863777
0.000923268
0.00105919
0.00175998
0.00251904
0.00257728
0.00248798
0.00297225
0.00373484
0.00405208
0.00392243
0.00388787
0.00406584
0.00418746
0.00427908
0.00449826
0.00465152
0.00443836
0.00402263
0.0038096
0.000959272
0.00103444
0.00114929
0.0017722
0.0025419
0.00265875
0.00250589
0.0029103
0.00371968
0.00409736
0.00391077
0.00377122
0.00393905
0.00412601
0.00420763
0.00432713
0.00444954
0.00431807
0.00398375
0.00378282
0.00105554
0.00114753
0.0012443
0.00178565
0.00255551
0.00273678
0.00253604
0.00284553
0.00368352
0.00414026
0.00392035
0.00366744
0.00379972
0.00404564
0.00415113
0.00419236
0.00425418
0.0041763
0.00392344
0.00375958
0.00115247
0.00126169
0.00134449
0.00180222
0.0025598
0.00280851
0.00257878
0.00278182
0.00362428
0.00417267
0.003951
0.00358533
0.00365289
0.00394323
0.00409706
0.00409254
0.00408181
0.00402029
0.00384061
0.00372904
0.00124993
0.00137605
0.00145002
0.00182345
0.0025552
0.00287141
0.00263336
0.00272406
0.00354179
0.00418485
0.00399927
0.00353366
0.00350809
0.00381908
0.00403438
0.00401983
0.00394282
0.00386512
0.00373615
0.00367724
0.00134796
0.00148963
0.0015606
0.00185096
0.00254258
0.00292314
0.00269835
0.00267796
0.00343829
0.00416767
0.00405799
0.00351829
0.00337849
0.00367674
0.00395494
0.00396229
0.00383705
0.00372765
0.00362004
0.00360406
0.0014468
0.00160132
0.00167511
0.00188689
0.00252366
0.00296081
0.00277146
0.00264989
0.00331824
0.00411357
0.00411527
0.00353916
0.00327754
0.0035239
0.00385212
0.00390969
0.00375964
0.00361379
0.00350824
0.00350683
0.0015467
0.00171023
0.0017917
0.00193296
0.0025009
0.00298115
0.00284855
0.00264658
0.00319081
0.00401795
0.00415579
0.00359268
0.00321527
0.00337475
0.00372442
0.00385014
0.00370518
0.00352315
0.00341224
0.00340664
0.00164772
0.00181576
0.0019081
0.0019895
0.00247791
0.00298324
0.00292367
0.00267145
0.00307218
0.00388365
0.00416272
0.00366817
0.00319502
0.00324585
0.00357881
0.00376937
0.00366633
0.00345594
0.00333157
0.00332214
0.00174986
0.00191749
0.00202189
0.00205606
0.00245852
0.00296992
0.00298826
0.00272015
0.0029785
0.00372165
0.0041228
0.00374669
0.00321512
0.0031483
0.00342986
0.0036617
0.00362773
0.00341416
0.00326438
0.00325505
0.001853
0.0020153
0.00213051
0.00213162
0.00244624
0.00294427
0.00303649
0.00278488
0.0029186
0.00355455
0.00403612
0.00380628
0.00326903
0.00308756
0.00329324
0.00353509
0.00357075
0.00339234
0.00321564
0.00319888
0.0019568
0.00210939
0.00223184
0.00221403
0.00244444
0.00291016
0.00306697
0.00285417
0.00289152
0.00340287
0.00391158
0.00382882
0.00334026
0.00306572
0.00317912
0.00340225
0.00348878
0.00337359
0.00319035
0.00315124
0.00206059
0.00220004
0.00232504
0.0023006
0.00245539
0.00287211
0.00307975
0.00291901
0.0028918
0.00327872
0.00376839
0.00380927
0.00340737
0.00307926
0.0030964
0.00327657
0.00338843
0.00334012
0.00318444
0.00311916
0.0021636
0.0022877
0.00241019
0.00238803
0.00247932
0.00283513
0.00307655
0.00297403
0.00291136
0.00318656
0.00362543
0.00375253
0.00345445
0.00311497
0.00304787
0.00316991
0.0032806
0.0032842
0.00318252
0.00310886
0.00226495
0.0023729
0.00248785
0.00247315
0.00251482
0.00280358
0.00306032
0.00301614
0.00294137
0.0031245
0.00349576
0.00366896
0.00347498
0.00315819
0.00302894
0.00309059
0.00318015
0.00321098
0.00316674
0.00311421
0.00236383
0.00245592
0.0025588
0.00255339
0.00255959
0.00278047
0.00303491
0.00304382
0.00297455
0.00308818
0.00338833
0.00357291
0.00346759
0.00319928
0.00302999
0.00303688
0.00310034
0.00313405
0.00313276
0.00311924
0.00245943
0.00253692
0.00262406
0.00262682
0.00261061
0.0027676
0.0030049
0.00305733
0.00300599
0.00307064
0.00330466
0.00348061
0.00343742
0.00323053
0.00304563
0.00300086
0.00304082
0.00306809
0.00308774
0.00311244
0.00255096
0.00261565
0.0026847
0.00269287
0.00266434
0.00276509
0.00297442
0.00305778
0.00303326
0.00306703
0.00324091
0.00339872
0.00339467
0.00324764
0.00307591
0.00298566
0.002998
0.00301916
0.00304261
0.00309361
0.00263786
0.00269169
0.00274154
0.00275133
0.00271781
0.00277198
0.00294662
0.00304735
0.00305236
0.00307434
0.00319852
0.00333087
0.00334703
0.00324469
0.00310734
0.00299218
0.00297061
0.00298949
0.00301414
0.0030791
0.00271951
0.00276468
0.00279547
0.00280233
0.00276785
0.0027864
0.00292393
0.00302956
0.00306138
0.0030826
0.00317292
0.00328538
0.00331339
0.00323372
0.00312942
0.00301565
0.0029559
0.00296124
0.00298784
0.00306011
0.00279539
0.00283397
0.00284722
0.0028472
0.00281146
0.00280424
0.00290763
0.00300852
0.00306374
0.00309034
0.00315009
0.00324693
0.00329703
0.00324134
0.00316282
0.00307221
0.00299178
0.00297055
0.00299003
0.00305627
0.00286522
0.00289892
0.00289643
0.00288658
0.00284971
0.00282156
0.00289231
0.00298487
0.00306097
0.00310351
0.00314291
0.00320596
0.00325795
0.00322362
0.00316105
0.0031024
0.00303287
0.00299643
0.00302167
0.00310411
0.00292883
0.00295914
0.00294314
0.00291971
0.00288102
0.00284033
0.00287843
0.00295194
0.00304415
0.00311359
0.00317746
0.00324868
0.00330595
0.00329346
0.00323199
0.00317112
0.00309695
0.00301967
0.00299986
0.00305137
0.00298627
0.00301445
0.00298651
0.00294765
0.00290283
0.00285494
0.00287179
0.0029162
0.00299221
0.00304198
0.00308308
0.00316546
0.00325309
0.00330359
0.00331159
0.00330954
0.00330474
0.00326649
0.00325457
0.00330816
0.00303944
0.00306446
0.0030251
0.00296949
0.00291448
0.00285744
0.00286857
0.00292458
0.00304415
0.00315624
0.00322986
0.00330352
0.00336251
0.00338426
0.00337141
0.0033131
0.00325763
0.0031824
0.00311396
0.00309932
0.00308585
0.00311016
0.003063
0.00299213
0.00292357
0.00283888
0.00278606
0.00275558
0.00277711
0.00281893
0.00291329
0.00312602
0.00338034
0.00359654
0.00379288
0.00391525
0.00402146
0.00414144
0.00426668
0.00437664
0.00312236
0.00314115
0.00309177
0.00301454
0.00295079
0.00289169
0.00288568
0.00291992
0.00302519
0.00314943
0.00323761
0.00333163
0.00344278
0.00347594
0.00350159
0.00350489
0.00346578
0.00340099
0.00332114
0.00327546
0.00315755
0.00317771
0.00311595
0.00301222
0.00291195
0.00279795
0.00271884
0.00269099
0.00276458
0.00294678
0.00314491
0.00331342
0.00352651
0.0037045
0.00384349
0.00401223
0.00419534
0.00437302
0.00450263
0.00456704
0.00317865
0.00320118
0.00315656
0.00307337
0.00300249
0.0029306
0.00288929
0.0028763
0.00289379
0.00293975
0.00304468
0.00317749
0.00340157
0.00366434
0.0038722
0.00404846
0.00418811
0.00428209
0.00432506
0.00429913
0.0230162
0.0155351
0.00664578
3.47225e-05
-0.00204812
-0.0012963
-0.000369912
0.000180813
0.000691675
0.00129868
0.00187543
0.00222072
0.00230724
0.00237075
0.00257555
0.00278023
0.00285034
0.00294706
0.0031458
0.00324807
0.0031893
0.00314612
0.00324337
0.00344593
0.00365077
0.00379751
0.00393895
0.00412926
0.00428729
0.00440859
0.00456936
0.0047527
0.00493922
0.00515741
0.00538408
0.00557944
0.00579592
0.00602719
0.00619474
0.00633312
0.00639384
0.00631432
0.00634557
0.00665013
0.00698868
0.00715036
0.0072319
0.00742163
0.00767998
0.00791495
0.00818038
0.00856932
0.00904115
0.00924944
0.00868155
0.00784703
0.00799672
0.00899488
0.009727
0.0100595
0.0103361
0.0105735
0.0107742
0.0109173
0.0109911
0.0111655
0.0115063
0.0117698
0.0120041
0.0123171
0.0126369
0.0128329
0.013003
0.0132299
0.0135125
0.0137912
0.0141282
0.0145711
0.0149511
0.0152719
0.0155552
0.0159205
0.0162635
0.0166626
0.0170875
0.0174766
0.0178535
0.0182045
0.0186312
0.0190606
0.0194972
0.0199724
0.0203766
0.0208055
0.0212219
0.0216119
0.0220541
0.0224503
0.0226961
0.0229319
0.0219795
0.0153504
0.0067191
0.000194236
-0.00194214
-0.00124335
-0.000339426
0.00019857
0.000703327
0.00130809
0.00188431
0.0022292
0.00231462
0.00237683
0.00258087
0.00278513
0.00285452
0.00295052
0.00314911
0.00325132
0.00319212
0.00314842
0.00324534
0.00344774
0.00365254
0.00379915
0.00394036
0.00413059
0.0042886
0.00440975
0.00457044
0.00475375
0.00494018
0.00515831
0.00538499
0.00558028
0.00579672
0.00602805
0.00619555
0.00633395
0.0063948
0.00631514
0.00634615
0.00665077
0.00698947
0.00715116
0.00723256
0.00742223
0.00768057
0.0079155
0.00818084
0.00856966
0.00904159
0.00925035
0.00868259
0.00784733
0.00799663
0.00899517
0.00972751
0.0100599
0.0103364
0.0105738
0.0107745
0.0109177
0.0109914
0.0111657
0.0115065
0.0117701
0.0120043
0.0123173
0.0126371
0.0128331
0.0130032
0.01323
0.0135127
0.0137914
0.0141284
0.0145713
0.0149512
0.0152721
0.0155554
0.0159206
0.0162636
0.0166627
0.0170877
0.0174767
0.0178536
0.0182046
0.0186313
0.0190607
0.0194973
0.0199725
0.0203767
0.0208056
0.021222
0.0216119
0.0220542
0.0224503
0.0226961
0.0229318
0.0211192
0.0151791
0.006874
0.000486156
-0.00176785
-0.00118192
-0.000308377
0.000223136
0.000721497
0.00132059
0.00189334
0.00223665
0.00232132
0.0023829
0.00258639
0.00279011
0.00285873
0.00295405
0.00315235
0.00325423
0.00319451
0.00315043
0.00324718
0.00344943
0.00365412
0.00380059
0.00394161
0.00413179
0.00428972
0.00441069
0.00457133
0.00475462
0.00494097
0.00515908
0.00538576
0.00558094
0.00579737
0.00602883
0.00619626
0.00633466
0.00639563
0.00631569
0.00634641
0.00665128
0.00699023
0.00715185
0.00723303
0.00742268
0.00768108
0.00791592
0.00818119
0.00856996
0.00904208
0.00925144
0.00868357
0.00784707
0.00799608
0.00899554
0.00972816
0.0100603
0.0103367
0.0105742
0.0107748
0.010918
0.0109917
0.0111659
0.0115068
0.0117704
0.0120045
0.0123175
0.0126373
0.0128333
0.0130034
0.0132302
0.0135129
0.0137915
0.0141285
0.0145714
0.0149514
0.0152722
0.0155555
0.0159208
0.0162637
0.0166628
0.0170878
0.0174768
0.0178537
0.0182047
0.0186314
0.0190608
0.0194974
0.0199726
0.0203768
0.0208056
0.0212221
0.021612
0.0220543
0.0224504
0.0226962
0.0229318
0.020293
0.0149797
0.00705796
0.000844188
-0.00153255
-0.00109289
-0.000256581
0.000266713
0.000753008
0.00134047
0.00190581
0.00224608
0.00233026
0.00239118
0.00259314
0.00279593
0.00286457
0.00295965
0.00315694
0.00325782
0.00319768
0.00315355
0.00325004
0.00345176
0.00365612
0.00380249
0.00394335
0.00413336
0.00429105
0.00441177
0.00457235
0.0047556
0.00494187
0.00515993
0.00538656
0.00558159
0.00579807
0.00602974
0.00619703
0.00633538
0.00639648
0.00631613
0.00634654
0.0066518
0.00699105
0.00715256
0.00723349
0.00742317
0.00768163
0.00791637
0.00818156
0.00857027
0.00904266
0.00925282
0.00868473
0.00784641
0.00799516
0.00899603
0.009729
0.0100607
0.010337
0.0105745
0.0107752
0.0109183
0.0109919
0.011166
0.011507
0.0117706
0.0120046
0.0123177
0.0126376
0.0128336
0.0130035
0.0132303
0.013513
0.0137916
0.0141286
0.0145716
0.0149516
0.0152724
0.0155556
0.0159209
0.0162639
0.0166629
0.0170879
0.017477
0.0178538
0.0182048
0.0186315
0.0190608
0.0194975
0.0199727
0.0203769
0.0208057
0.0212222
0.0216121
0.0220543
0.0224505
0.0226963
0.0229318
0.0194709
0.014747
0.00724741
0.00122208
-0.00127156
-0.000989212
-0.000193762
0.000323985
0.000796956
0.00136844
0.00192242
0.00225815
0.00234295
0.00240382
0.00260245
0.00280271
0.00287192
0.00296751
0.00316312
0.0032623
0.00320224
0.00315883
0.00325491
0.00345526
0.00365885
0.00380529
0.00394609
0.00413568
0.00429286
0.00441323
0.00457367
0.00475684
0.00494296
0.00516088
0.00538736
0.00558221
0.00579887
0.00603087
0.00619795
0.00633615
0.00639733
0.00631653
0.00634664
0.00665236
0.00699185
0.00715324
0.00723397
0.00742373
0.00768226
0.00791688
0.00818203
0.00857065
0.00904329
0.00925445
0.00868608
0.00784546
0.00799398
0.00899668
0.00973003
0.0100612
0.0103374
0.0105749
0.0107756
0.0109187
0.0109921
0.0111661
0.0115073
0.011771
0.0120048
0.0123179
0.0126379
0.0128338
0.0130037
0.0132304
0.0135132
0.0137917
0.0141286
0.0145718
0.0149518
0.0152725
0.0155557
0.015921
0.016264
0.016663
0.017088
0.0174771
0.017854
0.0182049
0.0186316
0.019061
0.0194975
0.0199728
0.020377
0.0208058
0.0212223
0.0216121
0.0220544
0.0224506
0.0226964
0.0229317
0.0186584
0.0144882
0.00743158
0.00160306
-0.000996554
-0.000877593
-0.000128294
0.000386434
0.000847437
0.00140111
0.00194141
0.00227217
0.0023595
0.00242151
0.00261513
0.00281068
0.00288038
0.00297701
0.00317031
0.00326732
0.00320823
0.00316676
0.00326245
0.00346039
0.00366254
0.00380922
0.00395016
0.00413909
0.0042955
0.0044154
0.00457553
0.00475849
0.0049444
0.00516194
0.00538799
0.00558262
0.00579966
0.00603221
0.00619907
0.00633703
0.00639823
0.00631698
0.00634687
0.006653
0.00699257
0.00715383
0.00723445
0.00742432
0.00768291
0.00791743
0.00818265
0.00857113
0.00904395
0.00925629
0.00868764
0.00784433
0.0079926
0.00899747
0.00973118
0.0100616
0.0103378
0.0105754
0.0107761
0.0109192
0.0109923
0.0111662
0.0115076
0.0117713
0.012005
0.0123181
0.0126382
0.0128341
0.0130039
0.0132306
0.0135133
0.0137919
0.0141287
0.014572
0.014952
0.0152727
0.0155558
0.0159211
0.0162641
0.0166631
0.0170882
0.0174772
0.0178541
0.018205
0.0186317
0.0190611
0.0194976
0.0199729
0.0203771
0.0208059
0.0212224
0.0216122
0.0220546
0.0224508
0.0226967
0.0229317
0.0178678
0.0142083
0.00760306
0.00198101
-0.000709545
-0.000758024
-6.18151e-05
0.000450968
0.000901709
0.00143666
0.00196167
0.00228702
0.00237823
0.00244288
0.00263107
0.00282029
0.00288961
0.00298703
0.00317751
0.00327226
0.00321524
0.00317712
0.0032727
0.00346736
0.00366737
0.00381437
0.00395558
0.00414361
0.00429916
0.00441859
0.00457821
0.00476078
0.0049464
0.00516328
0.00538845
0.00558262
0.00580018
0.00603352
0.00620029
0.00633802
0.00639926
0.00631769
0.0063475
0.00665393
0.00699324
0.00715434
0.00723495
0.00742485
0.0076834
0.00791793
0.00818338
0.00857168
0.00904462
0.00925835
0.00868953
0.00784318
0.00799112
0.00899836
0.00973238
0.0100621
0.0103382
0.010576
0.0107767
0.0109197
0.0109926
0.0111664
0.011508
0.0117718
0.0120052
0.0123184
0.0126386
0.0128345
0.0130041
0.0132307
0.0135135
0.013792
0.0141288
0.0145722
0.0149523
0.0152729
0.0155559
0.0159213
0.0162643
0.0166632
0.0170884
0.0174774
0.0178542
0.0182051
0.0186318
0.0190612
0.0194978
0.0199731
0.0203772
0.020806
0.0212225
0.0216124
0.0220547
0.0224511
0.0226971
0.0229317
0.0171067
0.0139084
0.0077559
0.00235204
-0.000410936
-0.000628596
6.40146e-06
0.000516759
0.000958772
0.00147465
0.00198312
0.00230207
0.0023974
0.00246589
0.00264924
0.00283154
0.00289955
0.00299712
0.00318429
0.00327676
0.00322263
0.00318902
0.00328495
0.0034759
0.00367337
0.00382072
0.00396212
0.00414899
0.00430368
0.00442288
0.00458191
0.00476388
0.00494912
0.00516512
0.00538895
0.00558224
0.00580022
0.00603449
0.00620124
0.00633883
0.00640034
0.00631883
0.00634883
0.0066554
0.00699406
0.00715499
0.00723567
0.00742539
0.0076836
0.00791817
0.00818401
0.00857206
0.00904508
0.00926064
0.00869195
0.00784227
0.00798972
0.00899937
0.00973351
0.0100624
0.0103386
0.0105766
0.0107773
0.0109202
0.0109929
0.0111666
0.0115085
0.0117723
0.0120056
0.0123187
0.0126391
0.012835
0.0130044
0.0132309
0.0135138
0.0137922
0.0141289
0.0145725
0.0149526
0.015273
0.015556
0.0159214
0.0162645
0.0166633
0.0170886
0.0174776
0.0178544
0.0182052
0.0186319
0.0190613
0.0194979
0.0199732
0.0203774
0.0208062
0.0212227
0.0216125
0.0220549
0.0224515
0.0226977
0.0229317
0.0163787
0.0135884
0.00788583
0.00271403
-0.000100174
-0.000487096
7.67726e-05
0.00058241
0.00101736
0.00151465
0.00200582
0.00231723
0.00241621
0.00248916
0.00266849
0.00284392
0.00291005
0.00300731
0.00319094
0.00328105
0.00323012
0.00320167
0.00329832
0.00348544
0.00368031
0.00382811
0.00396954
0.00415488
0.00430869
0.00442798
0.0045866
0.00476785
0.00495254
0.00516757
0.00538982
0.00558174
0.00579975
0.00603488
0.00620158
0.00633899
0.00640103
0.00632023
0.00635105
0.00665767
0.00699522
0.00715601
0.00723695
0.0074262
0.00768359
0.00791804
0.0081843
0.0085718
0.00904481
0.00926284
0.00869502
0.00784196
0.00798873
0.00900067
0.00973458
0.0100624
0.0103388
0.0105771
0.010778
0.0109209
0.0109934
0.011167
0.0115091
0.0117728
0.012006
0.0123192
0.0126397
0.0128355
0.0130048
0.0132312
0.0135141
0.0137924
0.0141291
0.0145728
0.0149529
0.0152733
0.0155562
0.0159216
0.0162646
0.0166634
0.0170888
0.0174778
0.0178546
0.0182053
0.0186321
0.0190615
0.019498
0.0199734
0.0203776
0.0208064
0.0212229
0.0216127
0.0220552
0.0224521
0.0226985
0.0229317
0.0156844
0.01325
0.0079925
0.00306652
0.000221314
-0.000333686
0.00014815
0.000646061
0.0010763
0.00155649
0.00203014
0.00233286
0.00243455
0.00251208
0.00268802
0.00285693
0.00292102
0.00301782
0.00319787
0.0032855
0.00323775
0.0032147
0.0033123
0.0034955
0.00368784
0.0038363
0.00397765
0.00416111
0.00431392
0.00443352
0.004592
0.00477255
0.00495653
0.00517053
0.00539117
0.00558139
0.00579893
0.0060347
0.00620117
0.00633814
0.00640077
0.0063214
0.006354
0.00666092
0.00699681
0.00715743
0.00723899
0.0074277
0.0076837
0.00791764
0.00818415
0.0085705
0.00904303
0.00926419
0.00869835
0.0078424
0.00798862
0.00900269
0.0097358
0.0100622
0.0103386
0.0105775
0.0107786
0.0109214
0.0109938
0.0111674
0.0115098
0.0117735
0.0120065
0.0123197
0.0126404
0.0128362
0.0130053
0.0132317
0.0135145
0.0137928
0.0141294
0.0145733
0.0149533
0.0152735
0.0155563
0.0159218
0.0162649
0.0166636
0.017089
0.017478
0.0178547
0.0182054
0.0186323
0.0190617
0.0194982
0.0199736
0.0203778
0.0208066
0.0212232
0.0216129
0.0220556
0.0224528
0.0226995
0.0229319
0.0150239
0.012899
0.00807791
0.00340647
0.000548348
-0.000169759
0.000220617
0.000707345
0.00113512
0.00160016
0.0020565
0.00234951
0.00245267
0.00253442
0.00270738
0.00287027
0.00293255
0.0030289
0.00320533
0.00329028
0.00324558
0.00322804
0.00332674
0.00350588
0.00369564
0.00384504
0.00398633
0.00416765
0.00431927
0.00443926
0.00459779
0.00477778
0.00496095
0.00517384
0.00539292
0.00558126
0.00579782
0.00603398
0.00620009
0.0063363
0.0063992
0.00632167
0.00635722
0.00666517
0.00699887
0.00715904
0.00724163
0.0074301
0.00768427
0.00791716
0.0081836
0.00856801
0.00903916
0.00926371
0.00870102
0.00784307
0.00798959
0.00900604
0.00973765
0.0100619
0.010338
0.0105774
0.0107789
0.0109219
0.0109944
0.011168
0.0115104
0.0117741
0.012007
0.0123202
0.012641
0.012837
0.013006
0.0132322
0.0135151
0.0137933
0.0141299
0.0145739
0.0149539
0.0152738
0.0155565
0.0159221
0.0162651
0.0166638
0.0170892
0.0174782
0.0178549
0.0182055
0.0186324
0.0190619
0.0194984