/*--------------------------------*- C++ -*----------------------------------*\
| =========                 |                                                 |
| \\      /  F ield         | OpenFOAM: The Open Source CFD Toolbox           |
|  \\    /   O peration     | Version:  v1912                                 |
|   \\  /    A nd           | Website:  www.openfoam.com                      |
|    \\/     M anipulation  |                                                 |
\*---------------------------------------------------------------------------*/
FoamFile
{
    version     2.0;
    format      ascii;
    class       surfaceScalarField;
    location    "2.25";
    object      phi;
}
// * * * * * * * * * * * * * * * * * * * * * * * * * * * * * * * * * * * * * //

dimensions      [0 3 -1 0 0 0 0];
oriented        oriented;


internalField   nonuniform List<scalar> 
19000
(
1.12924e-06
-9.45919e-08
1.20912e-06
-1.0852e-06
1.26074e-06
-9.80252e-07
1.2213e-06
2.00568e-06
1.16247e-06
8.25868e-07
1.15723e-06
-7.04544e-07
1.18002e-06
-1.84733e-06
1.18658e-06
-1.64878e-06
1.22986e-06
-2.29627e-07
1.1678e-06
-3.73672e-07
1.22266e-06
1.97193e-07
1.21672e-06
1.92822e-07
1.18425e-06
-2.06411e-07
1.20248e-06
2.46226e-08
1.20362e-06
-2.02613e-07
1.19822e-06
-1.05302e-07
1.21548e-06
-3.52046e-07
1.21907e-06
-2.16195e-07
1.22753e-06
-2.13163e-07
-4.70474e-08
1.1993e-06
1.182e-06
-5.23271e-08
1.26086e-06
-1.16407e-06
1.31625e-06
-1.03564e-06
1.29736e-06
2.02457e-06
1.22934e-06
8.93894e-07
1.21727e-06
-6.92473e-07
1.23239e-06
-1.86245e-06
1.23519e-06
-1.65158e-06
1.28138e-06
-2.75823e-07
1.23147e-06
-3.23756e-07
1.27401e-06
1.54645e-07
1.28818e-06
1.78655e-07
1.24512e-06
-1.63351e-07
1.26906e-06
6.86848e-10
1.26038e-06
-1.93937e-07
1.27018e-06
-1.15106e-07
1.26593e-06
-3.47793e-07
1.29112e-06
-2.41387e-07
1.27507e-06
-1.97108e-07
-5.58682e-08
1.28389e-06
1.23747e-06
-7.01752e-09
1.31088e-06
-1.23748e-06
1.37037e-06
-1.09513e-06
1.37363e-06
2.02131e-06
1.30735e-06
9.60171e-07
1.28311e-06
-6.68238e-07
1.2831e-06
-1.86243e-06
1.2882e-06
-1.65668e-06
1.33406e-06
-3.21686e-07
1.30643e-06
-2.96123e-07
1.33143e-06
1.29645e-07
1.35915e-06
1.50937e-07
1.31265e-06
-1.16853e-07
1.32636e-06
-1.30247e-08
1.3198e-06
-1.8738e-07
1.32709e-06
-1.22395e-07
1.31925e-06
-3.39951e-07
1.33958e-06
-2.61719e-07
1.3331e-06
-1.90624e-07
-5.40074e-08
1.33124e-06
1.29709e-06
3.99914e-08
1.36106e-06
-1.30144e-06
1.42314e-06
-1.15721e-06
1.44305e-06
2.0014e-06
1.38819e-06
1.01503e-06
1.35378e-06
-6.33822e-07
1.33685e-06
-1.84551e-06
1.34563e-06
-1.66547e-06
1.3896e-06
-3.65649e-07
1.38445e-06
-2.90977e-07
1.39817e-06
1.15921e-07
1.4238e-06
1.25315e-07
1.38559e-06
-7.86437e-08
1.38407e-06
-1.15068e-08
1.38051e-06
-1.83822e-07
1.38447e-06
-1.26351e-07
1.37559e-06
-3.31073e-07
1.39013e-06
-2.7626e-07
1.3899e-06
-1.90389e-07
-5.34553e-08
1.38934e-06
1.36314e-06
8.52042e-08
1.41349e-06
-1.35179e-06
1.47694e-06
-1.22066e-06
1.50886e-06
1.96948e-06
1.46977e-06
1.05411e-06
1.42835e-06
-5.92395e-07
1.39686e-06
-1.81402e-06
1.40732e-06
-1.67593e-06
1.44895e-06
-4.07274e-07
1.46042e-06
-3.02452e-07
1.47032e-06
1.06025e-07
1.48617e-06
1.09461e-07
1.45816e-06
-5.06305e-08
1.44811e-06
-1.45599e-09
1.44175e-06
-1.77463e-07
1.44519e-06
-1.29794e-07
1.43494e-06
-3.20821e-07
1.44463e-06
-2.85946e-07
1.44648e-06
-1.92244e-07
-5.67711e-08
1.4498e-06
1.43677e-06
1.24114e-07
1.47012e-06
-1.38515e-06
1.53333e-06
-1.28387e-06
1.57544e-06
1.92737e-06
1.55083e-06
1.07873e-06
1.50601e-06
-5.47582e-07
1.46387e-06
-1.77187e-06
1.47328e-06
-1.68535e-06
1.51221e-06
-4.46197e-07
1.53324e-06
-3.23489e-07
1.54309e-06
9.61797e-08
1.54936e-06
1.0319e-07
1.52777e-06
-2.90463e-08
1.51589e-06
1.04262e-08
1.50522e-06
-1.66793e-07
1.50764e-06
-1.32212e-07
1.4972e-06
-3.10378e-07
1.50241e-06
-2.91155e-07
1.50417e-06
-1.94011e-07
-6.24683e-08
1.50987e-06
1.51719e-06
1.53143e-07
1.53202e-06
-1.39997e-06
1.59201e-06
-1.34386e-06
1.6438e-06
1.87558e-06
1.6299e-06
1.09262e-06
1.58547e-06
-5.03147e-07
1.53657e-06
-1.72297e-06
1.54327e-06
-1.69204e-06
1.57846e-06
-4.81385e-07
1.6032e-06
-3.48232e-07
1.61389e-06
8.54891e-08
1.61336e-06
1.03723e-07
1.5952e-06
-1.08887e-08
1.58472e-06
2.09024e-08
1.57171e-06
-1.53777e-07
1.5725e-06
-1.33001e-07
1.56239e-06
-3.00276e-07
1.56411e-06
-2.92869e-07
1.56462e-06
-1.94526e-07
-6.84175e-08
1.57057e-06
1.60233e-06
1.70942e-07
1.59956e-06
-1.3972e-06
1.65184e-06
-1.39614e-06
1.71183e-06
1.81559e-06
1.70606e-06
1.0984e-06
1.66577e-06
-4.62855e-07
1.61368e-06
-1.67089e-06
1.61679e-06
-1.69515e-06
1.64643e-06
-5.1102e-07
1.67063e-06
-3.72437e-07
1.68195e-06
7.41695e-08
1.67709e-06
1.08586e-07
1.66167e-06
4.52935e-09
1.65403e-06
2.85378e-08
1.64104e-06
-1.40783e-07
1.64072e-06
-1.32683e-07
1.63114e-06
-2.90696e-07
1.6303e-06
-2.92032e-07
1.62951e-06
-1.93733e-07
-7.30234e-08
1.63412e-06
1.69008e-06
1.78438e-07
1.67293e-06
-1.38006e-06
1.71273e-06
-1.43594e-06
1.77759e-06
1.75072e-06
1.77956e-06
1.09642e-06
1.74664e-06
-4.29929e-07
1.69454e-06
-1.61879e-06
1.69332e-06
-1.69393e-06
1.71541e-06
-5.33114e-07
1.73611e-06
-3.93133e-07
1.74745e-06
6.28313e-08
1.74014e-06
1.15888e-07
1.72803e-06
1.66426e-08
1.72413e-06
3.24335e-08
1.71302e-06
-1.29668e-07
1.71258e-06
-1.32243e-07
1.70396e-06
-2.82073e-07
1.70135e-06
-2.89429e-07
1.69971e-06
-1.92086e-07
-7.5671e-08
1.70235e-06
1.77921e-06
1.77951e-07
1.75222e-06
-1.35307e-06
1.77632e-06
-1.46004e-06
1.84181e-06
1.68523e-06
1.85215e-06
1.08608e-06
1.82849e-06
-4.06267e-07
1.7789e-06
-1.56919e-06
1.77255e-06
-1.68759e-06
1.78587e-06
-5.46432e-07
1.80106e-06
-4.08328e-07
1.81154e-06
5.23605e-08
1.80352e-06
1.23907e-07
1.79534e-06
2.48161e-08
1.79559e-06
3.21836e-08
1.7877e-06
-1.2178e-07
1.78804e-06
-1.32582e-07
1.78091e-06
-2.74941e-07
1.77734e-06
-2.85858e-07
1.7753e-06
-1.90042e-07
-7.64839e-08
1.77611e-06
1.86957e-06
1.72125e-07
1.83729e-06
-1.32078e-06
1.84528e-06
-1.46802e-06
1.90782e-06
1.62269e-06
1.92642e-06
1.06748e-06
1.91214e-06
-3.91991e-07
1.86658e-06
-1.52363e-06
1.85456e-06
-1.67557e-06
1.85922e-06
-5.51091e-07
1.86788e-06
-4.16985e-07
1.8765e-06
4.37383e-08
1.8694e-06
1.31014e-07
1.86528e-06
2.8928e-08
1.86934e-06
2.81284e-08
1.86546e-06
-1.17896e-07
1.86715e-06
-1.34274e-07
1.8618e-06
-2.69593e-07
1.858e-06
-2.82058e-07
1.85587e-06
-1.87908e-07
-7.59658e-08
1.85535e-06
1.96177e-06
1.63198e-07
1.92771e-06
-1.28673e-06
1.92174e-06
-1.46205e-06
1.9794e-06
1.56503e-06
2.0048e-06
1.04207e-06
1.99856e-06
-3.85747e-07
1.95745e-06
-1.48252e-06
1.93973e-06
-1.65785e-06
1.93715e-06
-5.48514e-07
1.93926e-06
-4.19095e-07
1.94532e-06
3.76845e-08
1.9404e-06
1.35928e-07
1.93992e-06
2.94083e-08
1.94672e-06
2.13317e-08
1.94696e-06
-1.1814e-07
1.95013e-06
-1.3744e-07
1.94643e-06
-2.65896e-07
1.94292e-06
-2.78546e-07
1.94084e-06
-1.85828e-07
-7.47323e-08
1.93961e-06
2.05664e-06
1.52743e-07
2.02298e-06
-1.25306e-06
2.00642e-06
-1.44548e-06
2.05889e-06
1.51256e-06
2.08889e-06
1.01207e-06
2.08863e-06
-3.85486e-07
2.05148e-06
-1.44537e-06
2.02859e-06
-1.63497e-06
2.02094e-06
-5.40861e-07
2.01744e-06
-4.15602e-07
2.02079e-06
3.4336e-08
2.01876e-06
1.37963e-07
2.0212e-06
2.69667e-08
2.02931e-06
1.32214e-08
2.03315e-06
-1.2198e-07
2.03748e-06
-1.4177e-07
2.03485e-06
-2.63269e-07
2.03185e-06
-2.7554e-07
2.02978e-06
-1.83758e-07
-7.33381e-08
2.02838e-06
2.15502e-06
1.41721e-07
2.12272e-06
-1.22076e-06
2.09881e-06
-1.42157e-06
2.14685e-06
1.46451e-06
2.17942e-06
9.79507e-07
2.18313e-06
-3.89191e-07
2.14887e-06
-1.41111e-06
2.1217e-06
-1.6078e-06
2.1112e-06
-5.30367e-07
2.10371e-06
-4.08109e-07
2.10489e-06
3.31596e-08
2.10578e-06
1.37069e-07
2.11046e-06
2.22855e-08
2.11853e-06
5.15714e-09
2.12495e-06
-1.28404e-07
2.12987e-06
-1.46692e-07
2.12741e-06
-2.60801e-07
2.12482e-06
-2.72953e-07
2.12257e-06
-1.81515e-07
-7.21256e-08
2.12136e-06
2.25753e-06
1.30679e-07
2.22679e-06
-1.19001e-06
2.19797e-06
-1.39275e-06
2.24288e-06
1.4196e-06
2.27668e-06
9.45702e-07
2.28272e-06
-3.95223e-07
2.25004e-06
-1.37843e-06
2.21955e-06
-1.57731e-06
2.20807e-06
-5.18893e-07
2.1984e-06
-3.98434e-07
2.19845e-06
3.31031e-08
2.20187e-06
1.33652e-07
2.20832e-06
1.58362e-08
2.21535e-06
-1.87335e-09
2.22311e-06
-1.36168e-07
2.22799e-06
-1.51572e-07
2.22467e-06
-2.57477e-07
2.22216e-06
-2.70443e-07
2.2195e-06
-1.78859e-07
-7.11221e-08
2.2185e-06
2.36463e-06
1.19923e-07
2.33524e-06
-1.16062e-06
2.30318e-06
-1.36069e-06
2.34638e-06
1.37639e-06
2.38076e-06
9.11326e-07
2.38792e-06
-4.0238e-07
2.35554e-06
-1.34606e-06
2.32257e-06
-1.54434e-06
2.31144e-06
-5.0776e-07
2.30119e-06
-3.88185e-07
2.3014e-06
3.28911e-08
2.30671e-06
1.2834e-07
2.31466e-06
7.88245e-09
2.32018e-06
-7.3865e-09
2.32803e-06
-1.44018e-07
2.33234e-06
-1.55885e-07
2.32726e-06
-2.52394e-07
2.32434e-06
-2.6752e-07
2.32107e-06
-1.75594e-07
-7.00499e-08
2.32e-06
2.4767e-06
1.09619e-07
2.44828e-06
-1.13221e-06
2.41411e-06
-1.32652e-06
2.45697e-06
1.33353e-06
2.49164e-06
8.76655e-07
2.49909e-06
-4.09834e-07
2.46597e-06
-1.31293e-06
2.43113e-06
-1.5095e-06
2.42116e-06
-4.97792e-07
2.41146e-06
-3.78486e-07
2.41301e-06
3.13482e-08
2.41958e-06
1.21771e-07
2.42886e-06
-1.39773e-09
2.43283e-06
-1.13598e-08
2.4397e-06
-1.50887e-07
2.44312e-06
-1.5931e-07
2.43571e-06
-2.44982e-07
2.43184e-06
-2.63647e-07
2.42787e-06
-1.71624e-07
-6.84484e-08
2.42627e-06
2.59407e-06
9.9848e-08
2.56618e-06
-1.10432e-06
2.53069e-06
-1.29102e-06
2.57437e-06
1.28985e-06
2.60922e-06
8.41807e-07
2.61644e-06
-4.17052e-07
2.58188e-06
-1.27837e-06
2.54556e-06
-1.47318e-06
2.5372e-06
-4.89429e-07
2.52861e-06
-3.69902e-07
2.53233e-06
2.76363e-08
2.53961e-06
1.14485e-07
2.54998e-06
-1.17701e-08
2.55271e-06
-1.40878e-08
2.55782e-06
-1.55993e-07
2.56029e-06
-1.61779e-07
2.5504e-06
-2.35098e-07
2.54511e-06
-2.5835e-07
2.5405e-06
-1.67013e-07
-6.5853e-08
2.5379e-06
2.71706e-06
9.06205e-08
2.68929e-06
-1.07656e-06
2.65301e-06
-1.25474e-06
2.69842e-06
1.24444e-06
2.73335e-06
8.06877e-07
2.74003e-06
-4.23732e-07
2.70373e-06
-1.24208e-06
2.66615e-06
-1.4356e-06
2.65956e-06
-4.82836e-07
2.65215e-06
-3.62499e-07
2.65844e-06
2.13534e-08
2.66605e-06
1.06874e-07
2.67717e-06
-2.28888e-08
2.67908e-06
-1.59957e-08
2.68197e-06
-1.58886e-07
2.68363e-06
-1.63441e-07
2.67158e-06
-2.23053e-07
2.66452e-06
-2.51281e-07
2.65947e-06
-1.61969e-07
-6.19813e-08
2.6556e-06
2.84599e-06
8.19007e-08
2.81805e-06
-1.04862e-06
2.78129e-06
-1.21798e-06
2.82896e-06
1.19677e-06
2.86384e-06
7.7199e-07
2.86985e-06
-4.29742e-07
2.83189e-06
-1.20412e-06
2.79314e-06
-1.39685e-06
2.78827e-06
-4.7797e-07
2.78179e-06
-3.56011e-07
2.79063e-06
1.25037e-08
2.79835e-06
9.91618e-08
2.80978e-06
-3.43236e-08
2.8113e-06
-1.75188e-08
2.81182e-06
-1.594e-07
2.81295e-06
-1.64569e-07
2.79939e-06
-2.09493e-07
2.79037e-06
-2.42264e-07
2.7852e-06
-1.568e-07
-5.68241e-08
2.78004e-06
2.98117e-06
7.36289e-08
2.95293e-06
-1.02038e-06
2.9158e-06
-1.18084e-06
2.96589e-06
1.14668e-06
3.00058e-06
7.37291e-07
3.00591e-06
-4.35072e-07
2.96664e-06
-1.16484e-06
2.92674e-06
-1.35695e-06
2.92341e-06
-4.74632e-07
2.9174e-06
-3.50004e-07
2.92852e-06
1.38117e-09
2.93626e-06
9.14255e-08
2.94756e-06
-4.56307e-08
2.9491e-06
-1.90572e-08
2.94729e-06
-1.57586e-07
2.94816e-06
-1.65442e-07
2.9339e-06
-1.95229e-07
2.92293e-06
-2.31297e-07
2.91795e-06
-1.51816e-07
-5.06482e-08
2.91177e-06
3.12289e-06
6.57493e-08
3.09439e-06
-9.91885e-07
3.05684e-06
-1.14329e-06
3.10918e-06
1.09433e-06
3.14357e-06
7.02907e-07
3.14828e-06
-4.39782e-07
3.1082e-06
-1.12476e-06
3.06717e-06
-1.31592e-06
3.06506e-06
-4.72522e-07
3.0591e-06
-3.44045e-07
3.07204e-06
-1.15624e-08
3.07984e-06
8.36266e-08
3.09061e-06
-5.64009e-08
3.09254e-06
-2.09844e-08
3.08859e-06
-1.53637e-07
3.08938e-06
-1.66231e-07
3.07522e-06
-1.81067e-07
3.06246e-06
-2.18537e-07
3.05785e-06
-1.4721e-07
-4.39462e-08
3.05115e-06
3.27143e-06
5.82279e-08
3.24283e-06
-9.63285e-07
3.20473e-06
-1.10519e-06
3.25897e-06
1.0401e-06
3.29297e-06
6.689e-07
3.29714e-06
-4.43944e-07
3.25678e-06
-1.08441e-06
3.21464e-06
-1.27378e-06
3.21343e-06
-4.71315e-07
3.2072e-06
-3.37811e-07
3.22147e-06
-2.58308e-08
3.22942e-06
7.56755e-08
3.2393e-06
-6.62794e-08
3.24194e-06
-2.36289e-08
3.23617e-06
-1.47863e-07
3.23686e-06
-1.6693e-07
3.2235e-06
-1.67702e-07
3.20923e-06
-2.04263e-07
3.20495e-06
-1.42939e-07
-3.7372e-08
3.19838e-06
3.4271e-06
5.10575e-08
3.39858e-06
-9.34765e-07
3.3598e-06
-1.06642e-06
3.41551e-06
9.84392e-07
3.44914e-06
6.35267e-07
3.45278e-06
-4.47584e-07
3.41263e-06
-1.04425e-06
3.36942e-06
-1.23057e-06
3.36882e-06
-4.70712e-07
3.36216e-06
-3.3115e-07
3.37727e-06
-4.09457e-08
3.38547e-06
6.74771e-08
3.39416e-06
-7.49674e-08
3.39777e-06
-2.72408e-08
3.39055e-06
-1.40644e-07
3.391e-06
-1.67376e-07
3.37895e-06
-1.55655e-07
3.36353e-06
-1.88841e-07
3.35936e-06
-1.38768e-07
-3.15998e-08
3.35359e-06
3.59022e-06
4.42507e-08
3.56194e-06
-9.06485e-07
3.52241e-06
-1.02689e-06
3.5792e-06
9.27606e-07
3.61251e-06
6.01951e-07
3.61559e-06
-4.50665e-07
3.57599e-06
-1.00465e-06
3.53183e-06
-1.18641e-06
3.53158e-06
-4.70457e-07
3.52449e-06
-3.24068e-07
3.54003e-06
-5.648e-08
3.54855e-06
5.89517e-08
3.55582e-06
-8.22292e-08
3.56053e-06
-3.19527e-08
3.55228e-06
-1.32394e-07
3.55222e-06
-1.67314e-07
3.54183e-06
-1.45268e-07
3.52565e-06
-1.72667e-07
3.52126e-06
-1.34369e-07
-2.7193e-08
3.51685e-06
3.76113e-06
3.78303e-08
3.73319e-06
-8.78554e-07
3.69293e-06
-9.86627e-07
3.75047e-06
8.70073e-07
3.78354e-06
5.68875e-07
3.78597e-06
-4.53095e-07
3.7472e-06
-9.6588e-07
3.7022e-06
-1.1414e-06
3.70209e-06
-4.70347e-07
3.69469e-06
-3.16673e-07
3.71026e-06
-7.20503e-08
3.7192e-06
5.00183e-08
3.72488e-06
-8.79168e-08
3.73067e-06
-3.77437e-08
3.72182e-06
-1.2354e-07
3.72096e-06
-1.66458e-07
3.7124e-06
-1.36703e-07
3.69593e-06
-1.56198e-07
3.6909e-06
-1.29338e-07
-2.45621e-08
3.68827e-06
3.9402e-06
3.18207e-08
3.91268e-06
-8.51036e-07
3.87177e-06
-9.45719e-07
3.92975e-06
8.12096e-07
3.96267e-06
5.35953e-07
3.96434e-06
-4.54761e-07
3.92659e-06
-9.28138e-07
3.88088e-06
-1.09569e-06
3.88075e-06
-4.70219e-07
3.87319e-06
-3.09111e-07
3.88845e-06
-8.73116e-08
3.89787e-06
4.05998e-08
3.90196e-06
-9.20138e-08
3.90864e-06
-4.44166e-08
3.89962e-06
-1.14523e-07
3.89769e-06
-1.6453e-07
3.89095e-06
-1.29959e-07
3.8747e-06
-1.39952e-07
3.86866e-06
-1.23292e-07
-2.38326e-08
3.86793e-06
4.12783e-06
2.62424e-08
4.10075e-06
-8.23962e-07
4.05935e-06
-9.04311e-07
4.11747e-06
7.53975e-07
4.15031e-06
5.03114e-07
4.1511e-06
-4.55549e-07
4.11453e-06
-8.91576e-07
4.06826e-06
-1.04941e-06
4.06796e-06
-4.69923e-07
4.0604e-06
-3.01551e-07
4.07502e-06
-1.01929e-07
4.08499e-06
3.06275e-08
4.0876e-06
-9.46222e-08
4.09484e-06
-5.16579e-08
4.08609e-06
-1.05774e-07
4.08288e-06
-1.61318e-07
4.0778e-06
-1.24876e-07
4.06233e-06
-1.24481e-07
4.055e-06
-1.15965e-07
-2.47736e-08
4.05594e-06
4.32443e-06
2.11108e-08
4.29782e-06
-7.97344e-07
4.2561e-06
-8.62597e-07
4.31405e-06
6.96029e-07
4.34686e-06
4.703e-07
4.34667e-06
-4.5536e-07
4.3114e-06
-8.56306e-07
4.26476e-06
-1.00276e-06
4.26414e-06
-4.69308e-07
4.25675e-06
-2.94163e-07
4.2704e-06
-1.15578e-07
4.28098e-06
2.00516e-08
4.28229e-06
-9.59382e-08
4.28976e-06
-5.91227e-08
4.28166e-06
-9.76749e-08
4.27703e-06
-1.56691e-07
4.27332e-06
-1.21169e-07
4.25914e-06
-1.10295e-07
4.25045e-06
-1.07282e-07
-2.68521e-08
4.25253e-06
4.53045e-06
1.64346e-08
4.50428e-06
-7.71177e-07
4.46249e-06
-8.20809e-07
4.51993e-06
6.38596e-07
4.55275e-06
4.37475e-07
4.55151e-06
-4.54119e-07
4.5176e-06
-8.22391e-07
4.47081e-06
-9.55982e-07
4.46972e-06
-4.68215e-07
4.46267e-06
-2.87112e-07
4.47506e-06
-1.27963e-07
4.48624e-06
8.87078e-09
4.4865e-06
-9.62022e-08
4.49388e-06
-6.65017e-08
4.48668e-06
-9.04735e-08
4.48066e-06
-1.50673e-07
4.47796e-06
-1.18471e-07
4.46544e-06
-9.77712e-08
4.45563e-06
-9.74754e-08
-2.92878e-08
4.45807e-06
4.74633e-06
1.22174e-08
4.72061e-06
-7.45455e-07
4.67901e-06
-7.79203e-07
4.73557e-06
5.82035e-07
4.76841e-06
4.04629e-07
4.76608e-06
-4.51787e-07
4.73352e-06
-7.8983e-07
4.68691e-06
-9.09371e-07
4.68517e-06
-4.66474e-07
4.67863e-06
-2.80571e-07
4.68947e-06
-1.38811e-07
4.70122e-06
-2.87877e-09
4.7007e-06
-9.56794e-08
4.70769e-06
-7.34864e-08
4.70154e-06
-8.43253e-08
4.69431e-06
-1.43448e-07
4.69217e-06
-1.16331e-07
4.68158e-06
-8.71774e-08
4.67106e-06
-8.696e-08
-3.12959e-08
4.67307e-06
4.97256e-06
8.45498e-09
4.94727e-06
-7.2016e-07
4.90613e-06
-7.38072e-07
4.96145e-06
5.2672e-07
4.9943e-06
3.71781e-07
4.99088e-06
-4.48371e-07
4.9596e-06
-7.58553e-07
4.91352e-06
-8.63284e-07
4.91096e-06
-4.63917e-07
4.9051e-06
-2.7471e-07
4.91418e-06
-1.47894e-07
4.9264e-06
-1.5101e-08
4.92538e-06
-9.46525e-08
4.93169e-06
-7.97996e-08
4.9267e-06
-7.93344e-08
4.91851e-06
-1.35254e-07
4.91646e-06
-1.14281e-07
4.9079e-06
-7.8619e-08
4.89719e-06
-7.6253e-08
-3.22662e-08
4.89816e-06
5.20963e-06
5.13696e-09
5.18474e-06
-6.95265e-07
5.14439e-06
-6.97726e-07
5.19809e-06
4.73023e-07
5.23089e-06
3.38983e-07
5.22643e-06
-4.43913e-07
5.19633e-06
-7.28452e-07
5.15108e-06
-8.18031e-07
5.14759e-06
-4.60431e-07
5.14258e-06
-2.69694e-07
5.14977e-06
-1.55089e-07
5.16226e-06
-2.75943e-08
5.16103e-06
-9.34235e-08
5.16646e-06
-8.52284e-08
5.16267e-06
-7.55377e-08
5.15375e-06
-1.26335e-07
5.15139e-06
-1.11918e-07
5.14479e-06
-7.20234e-08
5.13435e-06
-6.58116e-08
-3.19142e-08
5.134e-06
5.45808e-06
2.24317e-09
5.43354e-06
-6.70727e-07
5.3943e-06
-6.58482e-07
5.44603e-06
4.21294e-07
5.4787e-06
3.06313e-07
5.47324e-06
-4.38458e-07
5.44427e-06
-6.99477e-07
5.40005e-06
-7.73816e-07
5.39557e-06
-4.55946e-07
5.39153e-06
-2.65652e-07
5.39686e-06
-1.60423e-07
5.4093e-06
-4.00341e-08
5.40818e-06
-9.2303e-08
5.41264e-06
-8.96874e-08
5.40989e-06
-7.27877e-08
5.40057e-06
-1.17016e-07
5.39761e-06
-1.08955e-07
5.39271e-06
-6.71304e-08
5.38297e-06
-5.60647e-08
-3.02074e-08
5.38126e-06
5.71846e-06
-2.55694e-10
5.69421e-06
-6.46484e-07
5.65638e-06
-6.20648e-07
5.70584e-06
3.71835e-07
5.73827e-06
2.7388e-07
5.73187e-06
-4.32051e-07
5.70404e-06
-6.71649e-07
5.66097e-06
-7.30745e-07
5.65541e-06
-4.50393e-07
5.65241e-06
-2.62652e-07
5.65607e-06
-1.64079e-07
5.66808e-06
-5.2043e-08
5.66732e-06
-9.15456e-08
5.67076e-06
-9.3124e-08
5.6689e-06
-7.09277e-08
5.65947e-06
-1.07584e-07
5.65571e-06
-1.05202e-07
5.65226e-06
-6.36779e-08
5.64354e-06
-4.73426e-08
-2.7249e-08
5.64058e-06
5.99134e-06
-2.40114e-09
5.9673e-06
-6.2245e-07
5.93117e-06
-5.8451e-07
5.97812e-06
3.24881e-07
6.01019e-06
2.41814e-07
6.00287e-06
-4.24737e-07
5.97625e-06
-6.45031e-07
5.9344e-06
-6.88896e-07
5.92768e-06
-4.4367e-07
5.92573e-06
-2.60697e-07
5.92805e-06
-1.66403e-07
5.9392e-06
-6.31888e-08
5.93899e-06
-9.13413e-08
5.94145e-06
-9.55852e-08
5.94027e-06
-6.97468e-08
5.93103e-06
-9.83415e-08
5.92641e-06
-1.00581e-07
5.924e-06
-6.12661e-08
5.91665e-06
-3.99967e-08
-2.32051e-08
5.91261e-06
6.27733e-06
-4.24595e-09
6.2534e-06
-5.98517e-07
6.21921e-06
-5.50316e-07
6.2635e-06
2.80587e-07
6.29506e-06
2.10258e-07
6.28683e-06
-4.16506e-07
6.26151e-06
-6.1972e-07
6.22097e-06
-6.48353e-07
6.21295e-06
-4.35652e-07
6.21198e-06
-2.5972e-07
6.21343e-06
-1.67854e-07
6.22333e-06
-7.30882e-08
6.22372e-06
-9.17328e-08
6.22541e-06
-9.72722e-08
6.22468e-06
-6.9018e-08
6.21586e-06
-8.95215e-08
6.21039e-06
-9.5111e-08
6.20854e-06
-5.94203e-08
6.20281e-06
-3.42634e-08
-1.84278e-08
6.19803e-06
6.57708e-06
-5.85186e-09
6.55312e-06
-5.74562e-07
6.52107e-06
-5.1827e-07
6.56261e-06
2.39046e-07
6.59354e-06
1.7933e-07
6.58433e-06
-4.07294e-07
6.56042e-06
-5.9581e-07
6.5213e-06
-6.09237e-07
6.51186e-06
-4.2621e-07
6.51173e-06
-2.59583e-07
6.51278e-06
-1.68905e-07
6.52122e-06
-8.15306e-08
6.52205e-06
-9.2562e-08
6.52327e-06
-9.84966e-08
6.52285e-06
-6.85971e-08
6.51456e-06
-8.12289e-08
6.50834e-06
-8.88917e-08
6.50664e-06
-5.77174e-08
6.50249e-06
-3.01171e-08
-1.34938e-08
6.49756e-06
6.89123e-06
-7.28795e-09
6.86712e-06
-5.50454e-07
6.83736e-06
-4.88516e-07
6.87614e-06
2.0027e-07
6.90631e-06
1.49156e-07
6.89606e-06
-3.9704e-07
6.87358e-06
-5.73326e-07
6.83614e-06
-5.71795e-07
6.8251e-06
-4.15177e-07
6.82559e-06
-2.60075e-07
6.82663e-06
-1.69943e-07
6.83365e-06
-8.85495e-08
6.8346e-06
-9.35114e-08
6.83563e-06
-9.9527e-08
6.83551e-06
-6.84783e-08
6.82777e-06
-7.34845e-08
6.821e-06
-8.21261e-08
6.81911e-06
-5.58276e-08
6.81629e-06
-2.72956e-08
-8.97808e-09
6.81178e-06
7.22048e-06
-8.62833e-09
7.19608e-06
-5.26059e-07
7.16868e-06
-4.61114e-07
7.20477e-06
1.64176e-07
7.23407e-06
1.19861e-07
7.22278e-06
-3.85751e-07
7.20161e-06
-5.52159e-07
7.16622e-06
-5.36403e-07
7.1535e-06
-4.02454e-07
7.15422e-06
-2.60801e-07
7.15556e-06
-1.7128e-07
7.16136e-06
-9.43538e-08
7.16211e-06
-9.42587e-08
7.16307e-06
-1.00485e-07
7.16341e-06
-6.88183e-08
7.15633e-06
-6.64007e-08
7.14914e-06
-7.49405e-08
7.1469e-06
-5.35856e-08
7.14498e-06
-2.5374e-08
-5.29463e-09
7.14129e-06
7.56555e-06
-9.94787e-09
7.54074e-06
-5.01255e-07
7.5157e-06
-4.3607e-07
7.54926e-06
1.30618e-07
7.57751e-06
9.16107e-08
7.56534e-06
-3.73582e-07
7.54519e-06
-5.32008e-07
7.51225e-06
-5.03471e-07
7.49787e-06
-3.88067e-07
7.49835e-06
-2.61283e-07
7.50015e-06
-1.73082e-07
7.50508e-06
-9.92827e-08
7.50544e-06
-9.46204e-08
7.50619e-06
-1.01231e-07
7.50724e-06
-6.98717e-08
7.50112e-06
-6.02819e-08
7.4937e-06
-6.75185e-08
7.49095e-06
-5.0834e-08
7.48968e-06
-2.41041e-08
-2.63063e-09
7.48701e-06
7.92718e-06
-1.13211e-08
7.90187e-06
-4.75944e-07
7.87917e-06
-4.13362e-07
7.91036e-06
9.94205e-08
7.93737e-06
6.46039e-08
7.92458e-06
-3.60788e-07
7.90495e-06
-5.12383e-07
7.87484e-06
-4.73359e-07
7.85907e-06
-3.72302e-07
7.85877e-06
-2.60976e-07
7.86106e-06
-1.75377e-07
7.86545e-06
-1.03669e-07
7.86546e-06
-9.46306e-08
7.86575e-06
-1.01524e-07
7.86756e-06
-7.16761e-08
7.86288e-06
-5.56045e-08
7.8559e-06
-6.05427e-08
7.85294e-06
-4.78728e-08
7.85251e-06
-2.36739e-08
-9.98947e-10
7.85088e-06
8.30618e-06
-1.28158e-08
8.2803e-06
-4.50065e-07
8.25986e-06
-3.92921e-07
8.28892e-06
7.03588e-08
8.31445e-06
3.90747e-08
8.30131e-06
-3.47654e-07
8.2817e-06
-4.92767e-07
8.25459e-06
-4.46255e-07
8.23794e-06
-3.55649e-07
8.23634e-06
-2.59375e-07
8.23903e-06
-1.7807e-07
8.24319e-06
-1.07825e-07
8.24296e-06
-9.43996e-08
8.24266e-06
-1.01232e-07
8.24499e-06
-7.40042e-08
8.2421e-06
-5.27081e-08
8.23591e-06
-5.43605e-08
8.23348e-06
-4.54411e-08
8.23417e-06
-2.43581e-08
-5.36325e-10
8.2337e-06
8.70334e-06
-1.44927e-08
8.67692e-06
-4.23642e-07
8.65856e-06
-3.74565e-07
8.68575e-06
4.31676e-08
8.70956e-06
1.52644e-08
8.69636e-06
-3.3445e-07
8.67637e-06
-4.7278e-07
8.65217e-06
-4.22055e-07
8.63529e-06
-3.38766e-07
8.63205e-06
-2.56137e-07
8.63482e-06
-1.80845e-07
8.63901e-06
-1.12011e-07
8.63874e-06
-9.41254e-08
8.63787e-06
-1.00364e-07
8.64025e-06
-7.63851e-08
8.63904e-06
-5.14968e-08
8.63336e-06
-4.86782e-08
8.63014e-06
-4.22294e-08
8.63059e-06
-2.4802e-08
-1.6258e-09
8.63168e-06
9.11952e-06
-1.63977e-08
9.09264e-06
-3.96759e-07
9.07613e-06
-3.58051e-07
9.10171e-06
1.75813e-08
9.12363e-06
-6.64867e-09
9.11053e-06
-3.21356e-07
9.09011e-06
-4.52354e-07
9.06836e-06
-4.00311e-07
9.05186e-06
-3.22261e-07
9.04692e-06
-2.51203e-07
9.04932e-06
-1.83244e-07
9.05367e-06
-1.1636e-07
9.05354e-06
-9.39909e-08
9.05215e-06
-9.89825e-08
9.05411e-06
-7.83445e-08
9.05386e-06
-5.12379e-08
9.04858e-06
-4.34036e-08
9.04451e-06
-3.81581e-08
9.04402e-06
-2.43176e-08
-3.65297e-09
9.04605e-06
9.55562e-06
-1.85558e-08
9.5284e-06
-3.6954e-07
9.51345e-06
-3.43101e-07
9.53764e-06
-6.61254e-09
9.55759e-06
-2.65991e-08
9.54468e-06
-3.08439e-07
9.52402e-06
-4.31694e-07
9.50402e-06
-3.80315e-07
9.48834e-06
-3.06585e-07
9.48197e-06
-2.44827e-07
9.48347e-06
-1.84744e-07
9.48792e-06
-1.20811e-07
9.48805e-06
-9.41224e-08
9.48608e-06
-9.70068e-08
9.48735e-06
-7.96177e-08
9.48731e-06
-5.11994e-08
9.48256e-06
-3.86548e-08
9.47814e-06
-3.37322e-08
9.47685e-06
-2.30326e-08
-5.57429e-09
9.47877e-06
1.00125e-05
-2.09703e-08
9.98528e-06
-3.42268e-07
9.97151e-06
-3.29337e-07
9.9944e-06
-2.95005e-08
1.00125e-05
-4.46583e-08
9.99966e-06
-2.95639e-07
9.97911e-06
-4.11146e-07
9.96023e-06
-3.61436e-07
9.94539e-06
-2.91742e-07
9.93804e-06
-2.3748e-07
9.93826e-06
-1.8496e-07
9.94249e-06
-1.25045e-07
9.94287e-06
-9.44935e-08
9.9403e-06
-9.44409e-08
9.94061e-06
-7.99308e-08
9.94051e-06
-5.11017e-08
9.93645e-06
-3.45856e-08
9.93197e-06
-2.92578e-08
9.93029e-06
-2.13553e-08
-6.90807e-09
9.93163e-06
1.04913e-05
-2.36105e-08
1.04644e-05
-3.15431e-07
1.04513e-05
-3.16206e-07
1.04729e-05
-5.11111e-08
1.04892e-05
-6.09848e-08
1.04765e-05
-2.82851e-07
1.04563e-05
-3.90985e-07
1.04382e-05
-3.43349e-07
1.04239e-05
-2.77422e-07
1.04159e-05
-2.29491e-07
1.04146e-05
-1.83703e-07
1.04182e-05
-1.28555e-07
1.04185e-05
-9.48775e-08
1.04155e-05
-9.13861e-08
1.04147e-05
-7.91581e-08
1.04148e-05
-5.12193e-08
1.04118e-05
-3.1585e-08
1.04076e-05
-2.50115e-08
1.04055e-05
-1.92959e-08
-7.81906e-09
1.04064e-05
1.09928e-05
-2.64145e-08
1.09669e-05
-2.89466e-07
1.09539e-05
-3.03247e-07
1.09742e-05
-7.14114e-08
1.0989e-05
-7.58294e-08
1.09761e-05
-2.69949e-07
1.09564e-05
-3.71271e-07
1.09392e-05
-3.26151e-07
1.09251e-05
-2.63305e-07
1.09164e-05
-2.20769e-07
1.09138e-05
-1.8111e-07
1.09161e-05
-1.30817e-07
1.09162e-05
-9.50172e-08
1.09128e-05
-8.79431e-08
1.09113e-05
-7.76794e-08
1.09119e-05
-5.18907e-08
1.09105e-05
-3.01011e-08
1.0907e-05
-2.15647e-08
1.09045e-05
-1.68119e-08
-8.39375e-09
1.09051e-05
1.15182e-05
-2.92988e-08
1.14935e-05
-2.64726e-07
1.14804e-05
-2.90132e-07
1.14993e-05
-9.02943e-08
1.15129e-05
-8.94798e-08
1.14999e-05
-2.56918e-07
1.14807e-05
-3.52058e-07
1.14646e-05
-3.1002e-07
1.14505e-05
-2.49241e-07
1.14409e-05
-2.11165e-07
1.14372e-05
-1.77426e-07
1.14383e-05
-1.31914e-07
1.14382e-05
-9.48935e-08
1.14345e-05
-8.42527e-08
1.14324e-05
-7.56115e-08
1.14335e-05
-5.2948e-08
1.14334e-05
-2.99864e-08
1.14311e-05
-1.93222e-08
1.14285e-05
-1.41841e-08
-8.32639e-09
1.14284e-05
1.20687e-05
-3.21654e-08
1.20455e-05
-2.41491e-07
1.2032e-05
-2.76678e-07
1.20493e-05
-1.07612e-07
1.2062e-05
-1.02162e-07
1.20489e-05
-2.43863e-07
1.20301e-05
-3.33202e-07
1.20153e-05
-2.95252e-07
1.20015e-05
-2.35376e-07
1.19909e-05
-2.00652e-07
1.19862e-05
-1.72678e-07
1.19865e-05
-1.32211e-07
1.19863e-05
-9.47362e-08
1.19826e-05
-8.05204e-08
1.19797e-05
-7.27048e-08
1.19806e-05
-5.3867e-08
1.19814e-05
-3.08116e-08
1.19804e-05
-1.82793e-08
1.19783e-05
-1.21184e-08
-7.37887e-09
1.19774e-05
1.26453e-05
-3.49087e-08
1.26238e-05
-2.19972e-07
1.261e-05
-2.62854e-07
1.26255e-05
-1.23156e-07
1.26374e-05
-1.14004e-07
1.26245e-05
-2.31019e-07
1.26058e-05
-3.14506e-07
1.25925e-05
-2.81936e-07
1.25793e-05
-2.2219e-07
1.25679e-05
-1.89228e-07
1.2562e-05
-1.66737e-07
1.25616e-05
-1.31804e-07
1.25615e-05
-9.46506e-08
1.2558e-05
-7.70264e-08
1.25543e-05
-6.90285e-08
1.25545e-05
-5.40922e-08
1.2556e-05
-3.22406e-08
1.25558e-05
-1.80963e-08
1.25547e-05
-1.10461e-08
-6.08821e-09
1.25534e-05
1.32495e-05
-3.74304e-08
1.32298e-05
-2.00288e-07
1.32157e-05
-2.48747e-07
1.32292e-05
-1.36713e-07
1.32403e-05
-1.25052e-07
1.32279e-05
-2.18668e-07
1.32093e-05
-2.95849e-07
1.31972e-05
-2.69845e-07
1.31853e-05
-2.10342e-07
1.31731e-05
-1.77003e-07
1.31657e-05
-1.59377e-07
1.31645e-05
-1.30547e-07
1.31645e-05
-9.46843e-08
1.31616e-05
-7.40689e-08
1.31574e-05
-6.48704e-08
1.31566e-05
-5.32742e-08
1.31582e-05
-3.38785e-08
1.31587e-05
-1.85844e-08
1.31584e-05
-1.06955e-08
-5.30551e-09
1.31576e-05
1.38824e-05
-3.96278e-08
1.38646e-05
-1.82508e-07
1.38504e-05
-2.34536e-07
1.38617e-05
-1.48071e-07
1.3872e-05
-1.35279e-07
1.38604e-05
-2.07083e-07
1.38417e-05
-2.77195e-07
1.38305e-05
-2.58581e-07
1.38204e-05
-2.00314e-07
1.38078e-05
-1.64386e-07
1.37989e-05
-1.50483e-07
1.37965e-05
-1.28119e-07
1.37966e-05
-9.48056e-08
1.37944e-05
-7.18166e-08
1.37901e-05
-6.06231e-08
1.37882e-05
-5.14013e-08
1.37895e-05
-3.51166e-08
1.37906e-05
-1.97481e-08
1.37907e-05
-1.07181e-08
-5.2889e-09
1.37906e-05
1.45454e-05
-4.13966e-08
1.45296e-05
-1.66658e-07
1.45154e-05
-2.20368e-07
1.45245e-05
-1.57117e-07
1.45338e-05
-1.44608e-07
1.45232e-05
-1.96486e-07
1.45046e-05
-2.58569e-07
1.44937e-05
-2.47698e-07
1.44856e-05
-1.92243e-07
1.44733e-05
-1.52056e-07
1.4463e-05
-1.40167e-07
1.4459e-05
-1.24198e-07
1.4459e-05
-9.47602e-08
1.44575e-05
-7.03384e-08
1.44536e-05
-5.67185e-08
1.44509e-05
-4.86933e-08
1.44513e-05
-3.5498e-08
1.44528e-05
-2.12983e-08
1.44533e-05
-1.11373e-08
-5.77049e-09
1.44537e-05
1.52401e-05
-4.26206e-08
1.52262e-05
-1.52762e-07
1.52121e-05
-2.06296e-07
1.52188e-05
-1.63768e-07
1.52271e-05
-1.52921e-07
1.52176e-05
-1.87025e-07
1.51992e-05
-2.40155e-07
1.51882e-05
-2.36712e-07
1.5182e-05
-1.85976e-07
1.51708e-05
-1.40844e-07
1.51593e-05
-1.28711e-07
1.51538e-05
-1.18654e-07
1.51531e-05
-9.41058e-08
1.51524e-05
-6.96057e-08
1.51491e-05
-5.34457e-08
1.5146e-05
-4.55465e-08
1.51454e-05
-3.4914e-08
1.51468e-05
-2.26853e-08
1.51476e-05
-1.19984e-08
-6.58515e-09
1.51484e-05
1.59679e-05
-4.3199e-08
1.5956e-05
-1.40808e-07
1.5942e-05
-1.92343e-07
1.5946e-05
-1.67782e-07
1.59532e-05
-1.60111e-07
1.59449e-05
-1.78693e-07
1.5927e-05
-2.22292e-07
1.59155e-05
-2.25184e-07
1.59107e-05
-1.81213e-07
1.59014e-05
-1.31572e-07
1.58893e-05
-1.16607e-07
1.58823e-05
-1.11573e-07
1.58805e-05
-9.23887e-08
1.58803e-05
-6.93651e-08
1.58779e-05
-5.10209e-08
1.58747e-05
-4.23403e-08
1.58733e-05
-3.35093e-08
1.58741e-05
-2.35623e-08
1.58751e-05
-1.29809e-08
-7.6772e-09
1.58762e-05
1.67305e-05
-4.30737e-08
1.67203e-05
-1.30673e-07
1.67066e-05
-1.7861e-07
1.67078e-05
-1.68972e-07
1.67136e-05
-1.65875e-07
1.67062e-05
-1.71326e-07
1.66892e-05
-2.05291e-07
1.66768e-05
-2.12782e-07
1.66731e-05
-1.77553e-07
1.66664e-05
-1.24868e-07
1.66545e-05
-1.04716e-07
1.66461e-05
-1.03154e-07
1.66431e-05
-8.93668e-08
1.66429e-05
-6.91301e-08
1.66414e-05
-4.95461e-08
1.66384e-05
-3.93963e-08
1.66365e-05
-3.15551e-08
1.66368e-05
-2.38347e-08
1.66376e-05
-1.37705e-08
-8.80458e-09
1.66387e-05
1.75295e-05
-4.22454e-08
1.75209e-05
-1.22088e-07
1.75077e-05
-1.65364e-07
1.7506e-05
-1.6727e-07
1.75101e-05
-1.69988e-07
1.75036e-05
-1.64852e-07
1.74876e-05
-1.89206e-07
1.7474e-05
-1.99258e-07
1.74706e-05
-1.74099e-07
1.74668e-05
-1.21123e-07
1.74563e-05
-9.42277e-08
1.74468e-05
-9.3663e-08
1.74426e-05
-8.51049e-08
1.74418e-05
-6.83525e-08
1.74411e-05
-4.88107e-08
1.74388e-05
-3.71675e-08
1.74365e-05
-2.91696e-08
1.74362e-05
-2.36074e-08
1.74368e-05
-1.43144e-08
-9.61935e-09
1.74376e-05
1.83669e-05
-4.07741e-08
1.83595e-05
-1.14723e-07