/*--------------------------------*- C++ -*----------------------------------*\
| =========                 |                                                 |
| \\      /  F ield         | OpenFOAM: The Open Source CFD Toolbox           |
|  \\    /   O peration     | Version:  v1912                                 |
|   \\  /    A nd           | Website:  www.openfoam.com                      |
|    \\/     M anipulation  |                                                 |
\*---------------------------------------------------------------------------*/
FoamFile
{
    version     2.0;
    format      ascii;
    class       volScalarField;
    location    "0.05";
    object      p;
}
// * * * * * * * * * * * * * * * * * * * * * * * * * * * * * * * * * * * * * //

dimensions      [0 2 -2 0 0 0 0];


internalField   nonuniform List<scalar> 
9600
(
5.29595e-11
7.70965e-05
-0.000275824
0.000179501
-0.00135684
0.000335887
-0.00314683
0.000716197
-0.000105517
0.00109484
0.00172978
0.000897148
0.00163478
0.0036455
0.00289865
0.00372111
0.00604984
0.00671473
0.00679007
0.0131315
3.91145e-08
7.69856e-05
-0.000275372
0.000178253
-0.00135357
0.000330645
-0.00313823
0.000713183
-0.000101918
0.00109459
0.00172897
0.000892039
0.00164305
0.00363899
0.00290533
0.00371237
0.00605023
0.00666634
0.00686243
0.0125371
9.07331e-08
7.68607e-05
-0.000274817
0.000176847
-0.00134931
0.00032597
-0.00312394
0.00071303
-9.4021e-05
0.00108453
0.00172799
0.000899176
0.00165528
0.00361807
0.0029196
0.0037051
0.00602437
0.00663937
0.00694371
0.0119414
1.53633e-07
7.67336e-05
-0.000274202
0.000175521
-0.00134422
0.000324951
-0.00310082
0.000724157
-8.48294e-05
0.00106553
0.0017326
0.000917795
0.00166951
0.00358775
0.0029435
0.00369779
0.0059948
0.0066168
0.00700649
0.0114093
2.31166e-07
7.65963e-05
-0.000273489
0.000174188
-0.00133792
0.000327087
-0.00306736
0.000743918
-7.76226e-05
0.00104227
0.00174437
0.000940817
0.00168451
0.00355491
0.00297574
0.00368623
0.00597017
0.00658868
0.00705035
0.0109462
3.25039e-07
7.64483e-05
-0.000272669
0.000172826
-0.00133044
0.000331373
-0.00302481
0.000766665
-7.37109e-05
0.00101825
0.00176164
0.00096401
0.0016997
0.00352311
0.00301204
0.00367168
0.0059491
0.00655249
0.00707533
0.0105092
4.3713e-07
7.62895e-05
-0.000271735
0.000171416
-0.00132193
0.000336964
-0.00297571
0.000789507
-7.20402e-05
0.000994745
0.00178209
0.000985578
0.0017152
0.00349269
0.00304991
0.00365502
0.00592834
0.00651008
0.00707564
0.0101061
5.69619e-07
7.61191e-05
-0.000270678
0.000169934
-0.00131248
0.000343194
-0.00292217
0.000811573
-7.09043e-05
0.000971554
0.00180407
0.00100505
0.00173137
0.0034631
0.00308773
0.00363615
0.00590608
0.00646316
0.00704742
0.00972547
7.24886e-07
7.59364e-05
-0.000269486
0.000168363
-0.00130214
0.000349643
-0.00286543
0.000832595
-6.89664e-05
0.000948046
0.00182685
0.00102247
0.0017484
0.00343377
0.00312431
0.00361555
0.00588039
0.00641325
0.00698982
0.00936212
9.05544e-07
7.57409e-05
-0.000268147
0.00016669
-0.00129087
0.000356084
-0.00280609
0.000852402
-6.54044e-05
0.00092372
0.00185019
0.00103786
0.00176629
0.00340452
0.00315879
0.00359414
0.00584905
0.00636192
0.00690384
0.00901431
1.11447e-06
7.55321e-05
-0.000266648
0.000164907
-0.00127863
0.000362387
-0.00274434
0.000870802
-5.97537e-05
0.000898279
0.00187407
0.00105118
0.00178491
0.00337552
0.00319032
0.00357286
0.00580999
0.00631028
0.00679147
0.00867828
1.35481e-06
7.53096e-05
-0.000264974
0.000163005
-0.00126536
0.000368455
-0.00268021
0.000887553
-5.17191e-05
0.000871558
0.00189851
0.00106245
0.00180391
0.00334719
0.00321797
0.00355261
0.00576173
0.00625837
0.0066556
0.00834959
1.63001e-06
7.50731e-05
-0.000263111
0.000160978
-0.00125098
0.000374202
-0.00261364
0.000902372
-4.10596e-05
0.00084344
0.0019235
0.00107175
0.00182283
0.00332007
0.00324073
0.00353408
0.00570326
0.00620547
0.00650001
0.00802408
1.94386e-06
7.48223e-05
-0.000261042
0.000158817
-0.00123544
0.000379535
-0.0025446
0.000914961
-2.75519e-05
0.000813832
0.00194901
0.00107925
0.00184118
0.00329491
0.00325749
0.00351765
0.00563393
0.00615006
0.00632939
0.00769868
2.30046e-06
7.45573e-05
-0.000258748
0.000156517
-0.00121865
0.000384357
-0.00247301
0.000925013
-1.09834e-05
0.000782666
0.00197494
0.0010852
0.00185827
0.00327246
0.00326722
0.00350372
0.0055539
0.00608925
0.00614869
0.00737199
2.70432e-06
7.42781e-05
-0.000256212
0.000154069
-0.00120055
0.000388564
-0.00239883
0.000932214
8.85365e-06
0.000749893
0.00200119
0.00109
0.00187324
0.00325348
0.00326914
0.00349209
0.00546404
0.00601997
0.00596294
0.00704367
3.16032e-06
7.39853e-05
-0.000253414
0.000151468
-0.00118105
0.000392045
-0.00232201
0.000936255
3.21412e-05
0.000715522
0.00202751
0.00109413
0.00188515
0.00323871
0.0032628
0.00348166
0.00536605
0.00593951
0.00577664
0.0067146
3.67378e-06
7.36795e-05
-0.000250333
0.000148706
-0.00116009
0.000394687
-0.00224252
0.000936842
5.90323e-05
0.000679613
0.00205351
0.00109837
0.00189301
0.00322869
0.00324818
0.00347075
0.00526234
0.00584528
0.00559243
0.00638702
4.25047e-06
7.33618e-05
-0.000246948
0.000145779
-0.0011376
0.000396372
-0.00216032
0.000933693
8.96636e-05
0.000642273
0.00207875
0.00110349
0.00189583
0.00322359
0.00322571
0.00345722
0.0051556
0.00573612
0.00541116
0.00606411
4.89664e-06
7.30338e-05
-0.000243237
0.000142681
-0.00111351
0.000396983
-0.0020754
0.000926561
0.000124113
0.000603702
0.00210281
0.00111029
0.00189246
0.0032233
0.00319634
0.00343839
0.00504836
0.00561271
0.00523235
0.00574917
5.61902e-06
7.26975e-05
-0.000239176
0.00013941
-0.00108775
0.000396406
-0.00198778
0.000915243
0.000162378
0.00056423
0.002125
0.00111967
0.00188201
0.00322719
0.00316165
0.00341145
0.00494241
0.0054771
0.00505369
0.00544586
6.4249e-06
7.23557e-05
-0.000234742
0.000135963
-0.00106027
0.000394532
-0.00189749
0.000899587
0.000204402
0.000524291
0.00214438
0.0011329
0.00186396
0.00323419
0.00312385
0.0033737
0.00483849
0.00533219
0.00487182
0.00515703
7.32211e-06
7.20118e-05
-0.000229912
0.000132343
-0.00103103
0.000391262
-0.00180459
0.000879509
0.000250032
0.000484475
0.00215998
0.00115098
0.00183801
0.00324271
0.00308539
0.00332286
0.00473605
0.00518226
0.00468421
0.00488319
8.31903e-06
7.16702e-05
-0.00022466
0.000128553
-0.000999988
0.000386512
-0.00170917
0.000855024
0.000298953
0.000445538
0.00217075
0.00117494
0.00180414
0.00325064
0.00304884
0.00325773
0.00463341
0.00503241
0.00449025
0.00462229
9.42465e-06
7.13363e-05
-0.000218965
0.0001246
-0.000967119
0.00038022
-0.00161139
0.000826247
0.000350761
0.00040832
0.00217552
0.00120569
0.00176272
0.00325558
0.00301688
0.00317831
0.00452747
0.00488727
0.0042916
0.00436899
1.06486e-05
7.10168e-05
-0.000212801
0.000120496
-0.000932415
0.000372346
-0.00151142
0.000793386
0.000404977
0.00037386
0.00217299
0.00124352
0.00171459
0.003255
0.00299167
0.00308569
0.00441453
0.00474393
0.00409161
0.00411634
1.20009e-05
7.07194e-05
-0.000206148
0.000116258
-0.000895887
0.000362884
-0.00140953
0.000756803
0.000460902
0.000343305
0.00216194
0.00128864
0.00166139
0.00324596
0.00297437
0.0029821
0.00429104
0.00461799
0.00389609
0.00385934
1.34926e-05
7.04538e-05
-0.000198985
0.000111909
-0.000857566
0.000351866
-0.00130602
0.000717009
0.00051765
0.000317825
0.00214141
0.00134071
0.00160517
0.00322536
0.00296546
0.00287103
0.00415325
0.00450168
0.00371319
0.00359712
1.5135e-05
7.02312e-05
-0.000191293
0.000107479
-0.000817504
0.000339367
-0.00120127
0.000674639
0.000574217
0.000298625
0.00211063
0.00139884
0.00154812
0.00319062
0.00296459
0.00275738
0.00399863
0.00439191
0.00355012
0.00333246
1.69402e-05
7.00648e-05
-0.000183055
0.000103006
-0.00077578
0.000325509
-0.00109574
0.000630481
0.000629476
0.000286725
0.00206925
0.00146139
0.00149293
0.00313991
0.0029699
0.00264651
0.00382657
0.00428341
0.00341203
0.00307192
1.89207e-05
6.99699e-05
-0.000174259
9.85359e-05
-0.000732501
0.00031047
-0.000989951
0.000585457
0.000682186
0.000282962
0.00201751
0.00152622
0.00144239
0.003072
0.0029782
0.00254368
0.0036384
0.00416957
0.00330089
0.0028249
2.10897e-05
6.99642e-05
-0.000164896
9.41248e-05
-0.000687802
0.000294477
-0.000884496
0.000540599
0.000731079
0.00028802
0.00195582
0.00159097
0.00139917
0.00296873
0.0029854
0.00245362
0.00343734
0.00404375
0.00321424
0.00260161
2.3461e-05
7.00679e-05
-0.00015496
8.98385e-05
-0.000641848
0.000277817
-0.000780036
0.000496982
0.000774893
0.000302301
0.0018851
0.00165284
0.00136585
0.00286065
0.00298693
0.00237947
0.00322839
0.00390096
0.00314702
0.00241178
2.60486e-05
7.03039e-05
-0.000144451
8.57524e-05
-0.000594833
0.000260821
-0.000677273
0.000455697
0.000812648
0.000325818
0.00180697
0.0017087
0.00134383
0.00273435
0.00297812
0.00232262
0.00301792
0.00373859
0.0030913
0.00226203
2.88674e-05
7.06979e-05
-0.000133373
8.19526e-05
-0.00054698
0.000243869
-0.000576947
0.000417873
0.000843442
0.000358023
0.00172349
0.00175549
0.00133372
0.00257737
0.0029551
0.00228279
0.00281271
0.0035566
0.00303738
0.00215373
3.19322e-05
7.12783e-05
-0.000121738
7.85335e-05
-0.000498535
0.000227373
-0.000479802
0.000384521
0.000866685
0.00039795
0.00163709
0.00179046
0.00133611
0.00244472
0.00291512
0.00225772
0.00261953
0.00335758
0.00297587
0.00208291
3.52583e-05
7.20766e-05
-0.00010956
7.55984e-05
-0.000449769
0.000211765
-0.000386557
0.000356473
0.000882155
0.000444234
0.00155045
0.0018116
0.00134988
0.00231057
0.00285571
0.00224339
0.00244407
0.00314647
0.00289968
0.00204181
3.88614e-05
7.31268e-05
-9.68629e-05
7.32562e-05
-0.000400966
0.000197482
-0.000297885
0.000334446
0.000889952
0.000495071
0.0014662
0.00181776
0.00137253
0.00217906
0.00277635
0.00223437
0.00229023
0.00292965
0.00280506
0.00201928
4.27571e-05
7.44654e-05
-8.36726e-05
7.16196e-05
-0.00035242
0.000184942
-0.000214353
0.000318942
0.000890481
0.000548435
0.00138673
0.00180849
0.0014008
0.00205492
0.00267812
0.00222473
0.00215978
0.0027143
0.0026914
0.00200293
4.69612e-05
7.61314e-05
-7.00224e-05
7.08032e-05
-0.000304428
0.000174535
-0.000136421
0.000310281
0.000884449
0.000602191
0.00131412
0.00178443
0.00143092
0.00194141
0.00256367
0.00220888
0.00205205
0.00250744
0.00256072
0.00198202
5.14894e-05
7.81651e-05
-5.5949e-05
7.0917e-05
-0.000257275
0.00016659
-6.44617e-05
0.000307575
0.000872864
0.000654227
0.00124936
0.00174706
0.0014591
0.00184051
0.00243702
0.00218242
0.00196474
0.00231491
0.00241718
0.00194936
5.63575e-05
8.06083e-05
-4.14933e-05
7.20655e-05
-0.000211236
0.000161366
1.28432e-06
0.000310845
0.000856938
0.000702652
0.00119436
0.00169862
0.00148186
0.00175296
0.00230317
0.00214255
0.00189389
0.00214063
0.00226629
0.00190158
6.15808e-05
8.35032e-05
-2.6699e-05
7.43425e-05
-0.00016656
0.000159047
6.07653e-05
0.000319438
0.000837954
0.000745863
0.00114836
0.00164172
0.00149596
0.00167832
0.00216735
0.00208835
0.00183454
0.0019865
0.0021139
0.00183853
6.71747e-05
8.68914e-05
-1.16112e-05
7.78244e-05
-0.000123462
0.000159707
0.000114096
0.000332484
0.000817214
0.000782659
0.00111085
0.00157884
0.00149976
0.00161531
0.00203456
0.00202063
0.00178159
0.00185277
0.00196533
0.00176246
7.31539e-05
9.08138e-05
3.72486e-06
8.25695e-05
-8.21219e-05
0.000163335
0.000161507
0.000349029
0.000795938
0.00081235
0.00108067
0.00151279
0.00149244
0.00156173
0.0019086
0.00194147
0.00173055
0.00173806
0.00182488
0.00167706
7.9532e-05
9.53066e-05
1.92654e-05
8.86127e-05
-4.26778e-05
0.000169826
0.00020336
0.00036807
0.000775165
0.000834671
0.00105625
0.00144631
0.00147427
0.00151452
0.00179183
0.00185392
0.00167805
0.00163982
0.00169554
0.00158655
8.63221e-05
0.000100405
3.49676e-05
9.59654e-05
-5.21809e-06
0.00017897
0.000240125
0.000388601
0.00075564
0.00084965
0.00103626
0.00138151
0.00144616
0.00147099
0.00168547
0.00176147
0.00162204
0.00155478
0.00157889
0.00149496
9.35366e-05
0.000106137
5.07918e-05
0.000104611
3.02116e-05
0.000190476
0.000272352
0.000409691
0.000737868
0.000857687
0.00101991
0.00131985
0.00140966
0.00142884
0.0015896
0.00166755
0.00156181
0.00147962
0.00147528
0.00140568
0.000101187
0.000112526
6.67025e-05
0.000114505
6.36053e-05
0.000204007
0.0003006
0.00043052
0.000722226
0.000859323
0.00100414
0.00126207
0.0013667
0.0013864
0.00150347
0.00157512
0.00149776
0.00141133
0.001384
0.0013212
0.000109281
0.00011959
8.26673e-05
0.00012558
9.49926e-05
0.000219192
0.0003254
0.000450409
0.000708789
0.000855942
0.000988445
0.00120844
0.00131928
0.00134267
0.00142593
0.00148642
0.00143105
0.00134758
0.0013037
0.0012431
0.000117828
0.000127338
9.86588e-05
0.000137739
0.00012444
0.000235611
0.000347267
0.000468848
0.00069739
0.000848444
0.000972104
0.00115891
0.0012693
0.00129729
0.00135559
0.00140292
0.00136323
0.00128681
0.00123267
0.00117212
0.000126832
0.000135768
0.000114653
0.000150865
0.000152039
0.000252842
0.000366401
0.000485457
0.00068775
0.000837768
0.000954623
0.00111314
0.00121839
0.00125039
0.00129105
0.00132533
0.00129588
0.00122821
0.00116922
0.00110833
0.000136295
0.000144871
0.000130628
0.000164823
0.000177894
0.000270538
0.000383428
0.000499834
0.000679497
0.000824769
0.000935757
0.00107068
0.00116784
0.00120245
0.00123113
0.00125383
0.00123044
0.00117156
0.00111188
0.0010513
0.000146215
0.00015463
0.000146565
0.000179449
0.000202126
0.000288359
0.0003987
0.000512141
0.000672259
0.000810186
0.000915512
0.00103102
0.00111859
0.00115416
0.00117494
0.00118819
0.00116799
0.00111704
0.00105951
0.0010004
0.000156588
0.000165016
0.000162447
0.000194592
0.000224789
0.000305981
0.000412492
0.000522389
0.000665685
0.000794624
0.00089408
0.000993708
0.00107125
0.00110625
0.0011219
0.00112798
0.00110925
0.00106502
0.00101132
0.000954865
0.000167401
0.000175993
0.000178257
0.000210112
0.000245884
0.000323121
0.000424964
0.000530681
0.000659462
0.00077855
0.000871769
0.000958364
0.00102621
0.00105941
0.00107171
0.00107272
0.00105462
0.0010159
0.000966838
0.000914021
0.00017864
0.000187513
0.000193977
0.00022586
0.000265798
0.000339574
0.00043624
0.000537177
0.000653342
0.000762313
0.000848943
0.000924734
0.000983635
0.00101423
0.00102426
0.00102193
0.00100422
0.000970012
0.000925823
0.00087729
0.000190283
0.000199523
0.000209585
0.000241682
0.000284523
0.000355191
0.000446412
0.000542065
0.000647149
0.000746162
0.000825971
0.000892677
0.000943619
0.000971181
0.000979541
0.000975231
0.000958016
0.000927577
0.000888147
0.000844223
0.000202301
0.000211959
0.000225059
0.000257439
0.000302111
0.00036986
0.000455547
0.000545544
0.00064078
0.000730277
0.000803199
0.000862138
0.000906161
0.000930566
0.000937628
0.000932315
0.000915853
0.000888688
0.000853742
0.000814493
0.000214659
0.000224755
0.000240371
0.000273003
0.000318615
0.000383515
0.0004637
0.000547815
0.000634198
0.000714784
0.00078093
0.000833128
0.000871223
0.000892591
0.000898597
0.000892962
0.00087754
0.000853333
0.000822547
0.000787859
0.000227314
0.000237836
0.000255488
0.000288262
0.000334085
0.000396126
0.000470919
0.000549067
0.000627415
0.000699781
0.000759416
0.000805695
0.000838757
0.00085736
0.000862506
0.000857007
0.00084287
0.000821425
0.000794482
0.000764131
0.000240219
0.000251119
0.00027038
0.000303117
0.000348563
0.00040769
0.000477255
0.000549477
0.000620486
0.000685346
0.000738853
0.000779906
0.000808715
0.000824906
0.000829378
0.000824314
0.000811645
0.000792829
0.000769437
0.000743145
0.000253312
0.000264517
0.000284986
0.000317482
0.000362084
0.000418233
0.000482765
0.000549205
0.000613489
0.000671547
0.000719391
0.000755824
0.000781054
0.000795213
0.000799195
0.000794763
0.000783673
0.000767379
0.000747277
0.000724741
0.00026653
0.000277942
0.000298411
0.000331278
0.000374683
0.000427797
0.000487512
0.000548396
0.000606515
0.000658446
0.000701138
0.000733504
0.00075573
0.000768227
0.000771901
0.000768231
0.000758774
0.000744896
0.000727842
0.000708762
0.000279809
0.000291352
0.000312249
0.000344501
0.000386398
0.000436437
0.000491564
0.000547181
0.000599662
0.000646103
0.000684171
0.000712976
0.000732695
0.00074387
0.000747408
0.000744587
0.00073677
0.000725195
0.000710963
0.000695048
0.000293075
0.000304656
0.000325688
0.000357108
0.000397262
0.000444217
0.000494997
0.000545677
0.000593021
0.000634572
0.00066854
0.00069425
0.000711888
0.000722046
0.000725604
0.000723688
0.000717484
0.000708087
0.00069646
0.000683434
0.000306246
0.000317767
0.000338662
0.00036907
0.000407311
0.000451207
0.00049789
0.000543988
0.000586678
0.000623893
0.000654266
0.000677312
0.000693241
0.000702644
0.000706358
0.000705378
0.000700734
0.00069338
0.000684151
0.000673751
0.000319232
0.000330603
0.000351124
0.000380363
0.00041658
0.000457474
0.00050032
0.000542205
0.000580706
0.000614101
0.00064135
0.000662128
0.000676668
0.000685542
0.000689522
0.000689489
0.000686335
0.000680883
0.000673848
0.000665824
0.000331947
0.000343085
0.000363031
0.000390973
0.000425103
0.000463086
0.000502363
0.000540408
0.000575164
0.000605213
0.000629774
0.000648643
0.000662073
0.000670603
0.000674934
0.000675843
0.000674097
0.000670401
0.000665362
0.000659479
0.000344303
0.000355132
0.00037434
0.000400886
0.000432914
0.000468108
0.000504088
0.000538662
0.000570094
0.000597235
0.000619501
0.000636783
0.000649342
0.00065768
0.000662424
0.000664252
0.000663824
0.000661738
0.000658504
0.000654539
0.000356206
0.000366673
0.000385009
0.000410096
0.000440043
0.000472596
0.000505555
0.000537016
0.000565524
0.000590157
0.000610482
0.000626459
0.000638351
0.000646616
0.000651812
0.000654525
0.000655318
0.000654695
0.000653083
0.000650826
0.000367564
0.000377642
0.000394998
0.000418593
0.000446517
0.000476598
0.000506814
0.000535507
0.000561464
0.000583951
0.000602648
0.000617565
0.00062896
0.000637246
0.000642914
0.000646465
0.000648377
0.000649072
0.000648904
0.000648159
0.000378278
0.000387985
0.000404261
0.000426364
0.000452355
0.000480152
0.000507903
0.000534158
0.00055791
0.000578574
0.000595919
0.000609987
0.000621023
0.000629399
0.000635539
0.000639871
0.000642795
0.000644665
0.000645774
0.000646355
0.000388241
0.000397663
0.00041274
0.000433392
0.000457568
0.000483286
0.000508844
0.000532975
0.000554838
0.000573971
0.000590203
0.000603599
0.000614387
0.000622896
0.00062949
0.000634534
0.000638364
0.000641272
0.000643498
0.000645233
0.00039733
0.000406637
0.000420354
0.000439652
0.000462159
0.000486012
0.000509648
0.000531947
0.000552211
0.000570068
0.000585396
0.000598268
0.000608892
0.000617555
0.000624571
0.000630249
0.000634872
0.000638682
0.000641876
0.000644603
0.000405385
0.000412632
0.000426969
0.000445117
0.000466126
0.000488343
0.000510321
0.000531064
0.000549987
0.000566792
0.000581389
0.000593853
0.000604371
0.000613191
0.000620581
0.000626806
0.000632103
0.000636675
0.000640684
0.000644252
0.000412561
0.000419613
0.000432753
0.000449728
0.0004694
0.000490217
0.000510818
0.000530296
0.000548138
0.0005641
0.000578118
0.000590266
0.000600713
0.000609676
0.000617384
0.00062406
0.0006299
0.000635076
0.000639729
0.000643968
0.000418738
0.000425416
0.000437537
0.000453339
0.000471811
0.000491439
0.000510898
0.000529331
0.000546285
0.000561554
0.00057509
0.000586965
0.000597334
0.000606388
0.000614327
0.000621341
0.000627591
0.000633208
0.0006383
0.000642955
0.000423723
0.000430885
0.000441955
0.000456899
0.000474652
0.000493581
0.000512363
0.000530183
0.000546633
0.000561532
0.000574843
0.000586631
0.000597036
0.00060623
0.000614393
0.000621695
0.000628285
0.000634292
0.000639815
0.00064493
0.00042792
0.000434851
0.000443927
0.00045739
0.000474113
0.000492058
0.000509885
0.000526819
0.000542496
0.000556754
0.000569556
0.000580968
0.00059112
0.000600169
0.000608277
0.000615589
0.000622235
0.000628321
0.000633936
0.000639149
0.0153936
0.00904455
0.00055896
-0.00548564
-0.00691913
-0.00636456
-0.00579709
-0.00503927
-0.00453361
-0.00446334
-0.00399969
-0.00315887
-0.00270568
-0.00257161
-0.00222507
-0.0017028
-0.00132157
-0.00110484
-0.000909893
-0.000698605
-0.000508416
-0.000350967
-0.000212046
-8.25706e-05
3.83492e-05
0.000151213
0.000257673
0.00035913
0.000456425
0.000550196
0.000641019
0.000729379
0.000815698
0.000900332
0.0009836
0.00106578
0.00114712
0.00122783
0.00130811
0.00138815
0.0014681
0.00154812
0.00162835
0.00170891
0.0017899
0.00187145
0.00195365
0.0020366
0.00212038
0.00220509
0.00229079
0.00237757
0.0024655
0.00255464
0.00264505
0.00273681
0.00282996
0.00292457
0.00302069
0.00311837
0.00321767
0.00331863
0.00342131
0.00352574
0.00363199
0.00374009
0.0038501
0.00396205
0.00407598
0.00419196
0.00431001
0.00443018
0.00455252
0.00467707
0.00480387
0.00493298
0.00506443
0.00519827
0.00533455
0.00547331
0.00561461
0.00575848
0.00590499
0.00605418
0.00620612
0.00636082
0.00651844
0.00667881
0.00684251
0.00700852
0.00717923
0.00735023
0.00752991
0.00770528
0.00789554
0.00808118
0.00827721
0.00849534
0.00867644
0.00890942
0.0146294
0.00892496
0.0006567
-0.00534822
-0.00683193
-0.00632007
-0.00577225
-0.00502305
-0.00452286
-0.00445855
-0.00399873
-0.003158
-0.00270457
-0.00257138
-0.00222557
-0.00170288
-0.00132155
-0.00110491
-0.000909974
-0.000698629
-0.000508416
-0.00035097
-0.000212051
-8.25717e-05
3.83502e-05
0.000151215
0.000257674
0.000359132
0.000456427
0.000550198
0.000641021
0.00072938
0.0008157
0.000900333
0.000983602
0.00106578
0.00114712
0.00122783
0.00130811
0.00138815
0.0014681
0.00154812
0.00162835
0.00170891
0.0017899
0.00187145
0.00195365
0.0020366
0.00212038
0.00220509
0.00229079
0.00237757
0.0024655
0.00255464
0.00264505
0.00273681
0.00282996
0.00292457
0.00302069
0.00311837
0.00321767
0.00331863
0.00342131
0.00352574
0.00363199
0.00374009
0.0038501
0.00396205
0.00407598
0.00419196
0.00431001
0.00443018
0.00455252
0.00467707
0.00480387
0.00493298
0.00506443
0.00519827
0.00533455
0.00547331
0.00561461
0.00575848
0.00590499
0.00605418
0.00620612
0.00636082
0.00651844
0.00667881
0.00684251
0.00700852
0.00717923
0.00735023
0.00752991
0.00770528
0.00789554
0.00808118
0.00827721
0.00849534
0.00867646
0.00890944
0.0139037
0.00881495
0.000874035
-0.00507726
-0.00668648
-0.00626395
-0.00574206
-0.004998
-0.00450149
-0.00444228
-0.00398837
-0.00315266
-0.00270222
-0.00257006
-0.00222424
-0.00170211
-0.0013214
-0.00110502
-0.000910012
-0.000698588
-0.00050839
-0.000350966
-0.000212044
-8.25572e-05
3.83654e-05
0.000151228
0.000257685
0.000359142
0.000456437
0.000550206
0.000641028
0.000729387
0.000815706
0.000900339
0.000983607
0.00106579
0.00114712
0.00122783
0.00130811
0.00138815
0.0014681
0.00154812
0.00162835
0.00170891
0.0017899
0.00187145
0.00195365
0.0020366
0.00212038
0.00220509
0.0022908
0.00237758
0.0024655
0.00255464
0.00264505
0.00273681
0.00282996
0.00292457
0.00302069
0.00311837
0.00321767
0.00331863
0.00342131
0.00352574
0.00363199
0.00374009
0.0038501
0.00396205
0.00407598
0.00419196
0.00431001
0.00443018
0.00455252
0.00467707
0.00480387
0.00493298
0.00506443
0.00519827
0.00533455
0.00547331
0.00561461
0.00575848
0.00590499
0.00605418
0.00620612
0.00636082
0.00651844
0.00667881
0.00684251
0.00700852
0.00717923
0.00735023
0.00752991
0.00770528
0.00789554
0.00808118
0.00827721
0.00849535
0.00867648
0.00890946
0.0132345
0.00871532
0.0011374
-0.0047456
-0.00649356
-0.0061855
-0.00569237
-0.00495394
-0.00446179
-0.00440691
-0.00396282
-0.00313983
-0.00269665
-0.00256535
-0.00221967
-0.00169962
-0.00132091
-0.00110505
-0.000909906
-0.000698443
-0.00050835
-0.000350978
-0.00021204
-8.25358e-05
3.83895e-05
0.000151249
0.000257706
0.000359162
0.000456454
0.000550222
0.000641039
0.0007294
0.000815717
0.000900349
0.000983615
0.00106579
0.00114713
0.00122784
0.00130812
0.00138816
0.00146811
0.00154813
0.00162836
0.00170891
0.00178991
0.00187145
0.00195365
0.0020366
0.00212039
0.00220509
0.0022908
0.00237758
0.0024655
0.00255464
0.00264505
0.00273681
0.00282996
0.00292457
0.00302069
0.00311837
0.00321767
0.00331863
0.00342131
0.00352574
0.00363199
0.0037401
0.0038501
0.00396205
0.00407598
0.00419196
0.00431001
0.00443018
0.00455252
0.00467707
0.00480387
0.00493298
0.00506443
0.00519827
0.00533455
0.00547331
0.00561461
0.00575848
0.00590499
0.00605418
0.00620612
0.00636082
0.00651844
0.00667881
0.00684251
0.00700852
0.00717923
0.00735023
0.00752991
0.00770528
0.00789554
0.00808118
0.00827721
0.00849534
0.00867651
0.00890949
0.0125846
0.00858623
0.0013994
-0.00439595
-0.00628269
-0.00609696
-0.00563228
-0.00489685
-0.00440697
-0.00435384
-0.00392202
-0.00311883
-0.00268697
-0.00255652
-0.00221118
-0.00169485
-0.00131954
-0.00110467
-0.000909463
-0.000698105
-0.000508257
-0.000350987
-0.000212034
-8.25052e-05
3.84238e-05
0.000151281
0.000257737
0.000359191
0.000456482
0.000550247
0.000641061
0.000729419
0.000815735
0.000900364
0.000983629
0.00106581
0.00114714
0.00122785
0.00130813
0.00138816
0.00146811
0.00154813
0.00162836
0.00170892
0.00178991
0.00187145
0.00195365
0.0020366
0.00212039
0.00220509
0.0022908
0.00237758
0.0024655
0.00255464
0.00264506
0.00273681
0.00282996
0.00292457
0.00302069
0.00311837
0.00321767
0.00331863
0.00342131
0.00352574
0.00363199
0.0037401
0.0038501
0.00396205
0.00407598
0.00419196
0.00431001
0.00443018
0.00455252
0.00467707
0.00480387
0.00493298
0.00506443
0.00519827
0.00533455
0.00547331
0.00561461
0.00575848
0.00590499
0.00605418
0.00620612
0.00636082
0.00651844
0.00667881
0.00684251
0.00700851
0.00717923
0.00735023
0.00752991
0.00770528
0.00789554
0.00808117
0.00827721
0.00849533
0.00867654
0.00890954
0.0119376
0.00842076
0.0016561
-0.00403554
-0.00606005
-0.00600389
-0.00557006
-0.00483482
-0.00434456
-0.00429142
-0.00387272
-0.00309261
-0.00267417
-0.00254451
-0.00219963
-0.00168812
-0.00131724
-0.00110378
-0.000908619
-0.000697513
-0.000508051
-0.000350952
-0.000212001
-8.24541e-05
3.84755e-05
0.000151329
0.000257783
0.000359235
0.000456522
0.000550282
0.000641093
0.000729447
0.00081576
0.000900387
0.000983649
0.00106582
0.00114715
0.00122786
0.00130814
0.00138817
0.00146812
0.00154814
0.00162837
0.00170892
0.00178992
0.00187146
0.00195366
0.00203661
0.00212039
0.0022051
0.0022908
0.00237758
0.00246551
0.00255464
0.00264506
0.00273681
0.00282996
0.00292457
0.00302069
0.00311837
0.00321767
0.00331863
0.00342131
0.00352575
0.00363199
0.0037401
0.0038501
0.00396205
0.00407598
0.00419196
0.00431001
0.00443018
0.00455252
0.00467707
0.00480387
0.00493298
0.00506443
0.00519827
0.00533455
0.00547331
0.00561461
0.00575848
0.00590499
0.00605418
0.00620612
0.00636082
0.00651844
0.00667881
0.00684251
0.00700851
0.00717923
0.00735023
0.00752991
0.00770527
0.00789553
0.00808116
0.0082772
0.00849532
0.00867657
0.00890959
0.011302
0.00823117
0.00190713
-0.00366841
-0.00582643
-0.00590634
-0.00550771
-0.00477089
-0.00427802
-0.00422423
-0.0038192
-0.00306356
-0.00265957
-0.00253079
-0.00218639
-0.00168014
-0.00131422
-0.00110242
-0.000907428
-0.000696684
-0.000507712
-0.000350848
-0.000211924
-8.23702e-05
3.85542e-05
0.0001514
0.000257849
0.000359296
0.000456577
0.000550331
0.000641136
0.000729486
0.000815794
0.000900417
0.000983675
0.00106585
0.00114717
0.00122788
0.00130816
0.00138819
0.00146814
0.00154815
0.00162838
0.00170893
0.00178992
0.00187147
0.00195366
0.00203661
0.0021204
0.0022051
0.0022908
0.00237758
0.00246551
0.00255464
0.00264506
0.00273681
0.00282997
0.00292458
0.00302069
0.00311837
0.00321767
0.00331863
0.00342131
0.00352575
0.00363199
0.0037401
0.0038501
0.00396205
0.00407598
0.00419196
0.00431001
0.00443018
0.00455252
0.00467707
0.00480387
0.00493298
0.00506443
0.00519827
0.00533455
0.00547331
0.00561461
0.00575848
0.00590499
0.00605418
0.00620612
0.00636082
0.00651844
0.00667881
0.00684251
0.00700851
0.00717923
0.00735023
0.00752991
0.00770527
0.00789553
0.00808115
0.0082772
0.00849531
0.00867661
0.00890965
0.010687
0.00801831
0.00214484
-0.00329764
-0.00558047
-0.00580289
-0.00544535
-0.00470634
-0.00420879
-0.00415387
-0.00376288
-0.00303253
-0.00264378
-0.00251614
-0.00217216
-0.00167132
-0.00131065
-0.00110073
-0.000905985
-0.000695664
-0.000507243
-0.00035066
-0.000211791
-8.22431e-05
3.86672e-05
0.0001515
0.000257939
0.000359378
0.00045665
0.000550396
0.000641192
0.000729535
0.000815837
0.000900455
0.000983709
0.00106588
0.0011472
0.0012279
0.00130818
0.00138821
0.00146815
0.00154817
0.00162839
0.00170894
0.00178993
0.00187147
0.00195367
0.00203662
0.0021204
0.00220511
0.00229081
0.00237759
0.00246551
0.00255465
0.00264506
0.00273681
0.00282997
0.00292458
0.00302069
0.00311838
0.00321767
0.00331863
0.00342131
0.00352575
0.00363199
0.0037401
0.0038501
0.00396205
0.00407599
0.00419196
0.00431001
0.00443018
0.00455252
0.00467707
0.00480387
0.00493298
0.00506443
0.00519827
0.00533455
0.00547331
0.00561461
0.00575848
0.00590499
0.00605418
0.00620612
0.00636082
0.00651844
0.00667881
0.00684251
0.00700851
0.00717922
0.00735023
0.00752991
0.00770527
0.00789553
0.00808113
0.00827719
0.00849529
0.00867665
0.00890972
0.010096
0.00777918
0.00236415
-0.00292413
-0.005321
-0.00569246
-0.00538299
-0.0046419
-0.00413749
-0.0040806
-0.0037039
-0.00299963
-0.00262696
-0.00250078
-0.00215715
-0.00166176
-0.00130658
-0.00109874
-0.000904331
-0.000694471
-0.000506646
-0.000350384
-0.000211595
-8.20667e-05
3.88203e-05
0.000151632
0.000258056
0.000359483
0.000456743
0.000550477
0.000641263
0.000729597
0.000815892
0.000900503
0.00098375
0.00106591
0.00114723
0.00122793
0.0013082
0.00138823
0.00146817
0.00154818
0.0016284
0.00170895
0.00178994
0.00187148
0.00195368
0.00203662
0.00212041
0.00220511
0.00229081
0.00237759
0.00246551
0.00255465
0.00264506
0.00273682
0.00282997
0.00292458
0.0030207
0.00311838
0.00321767
0.00331863
0.00342131
0.00352575
0.00363199
0.0037401
0.0038501
0.00396205
0.00407599
0.00419196
0.00431001
0.00443018
0.00455252
0.00467707
0.00480387
0.00493298
0.00506443
0.00519827
0.00533455
0.00547331
0.00561461
0.00575848
0.00590499
0.00605418
0.00620612
0.00636082
0.00651844
0.00667881
0.00684251
0.00700851
0.00717922
0.00735023
0.00752991
0.00770526
0.00789553
0.00808112
0.00827717
0.00849527
0.00867669
0.00890979
0.00953199
0.00751525
0.00256127
-0.00255039
-0.00504778
-0.00557364
-0.0053202
-0.00457806
-0.00406441
-0.00400432
-0.00364209
-0.00296476
-0.00260909
-0.00248473
-0.00214138
-0.00165146
-0.001302
-0.00109644
-0.000902466
-0.000693102
-0.000505913
-0.000350012
-0.000211328
-8.18341e-05
3.9019e-05
0.000151801
0.000258205
0.000359614
0.000456857
0.000550577
0.000641351
0.000729673
0.000815958
0.000900561
0.000983801
0.00106596