/*--------------------------------*- C++ -*----------------------------------*\
| =========                 |                                                 |
| \\      /  F ield         | OpenFOAM: The Open Source CFD Toolbox           |
|  \\    /   O peration     | Version:  v1912                                 |
|   \\  /    A nd           | Website:  www.openfoam.com                      |
|    \\/     M anipulation  |                                                 |
\*---------------------------------------------------------------------------*/
FoamFile
{
    version     2.0;
    format      ascii;
    class       volScalarField;
    location    "1.45";
    object      p;
}
// * * * * * * * * * * * * * * * * * * * * * * * * * * * * * * * * * * * * * //

dimensions      [0 2 -2 0 0 0 0];


internalField   nonuniform List<scalar> 
9600
(
-4.26953e-12
0.00112805
0.00132973
0.000232774
-0.000818299
0.00277113
0.00494242
0.00638184
0.00670733
0.00705846
0.0064056
0.00976352
0.0100566
0.0127359
0.0146921
0.0166762
0.0200843
0.0226586
0.0273524
0.0328915
-1.72241e-06
0.00112361
0.00133405
0.000256325
-0.000837813
0.00275978
0.00493935
0.00638107
0.00671475
0.00706538
0.00640577
0.00975846
0.0100697
0.0127361
0.0146868
0.0166684
0.0201049
0.0226089
0.0274837
0.0323113
-2.71353e-06
0.00112345
0.00133956
0.000273775
-0.00085949
0.00274795
0.00493044
0.00639732
0.00672912
0.00706286
0.00641845
0.00974898
0.0100867
0.0127314
0.0146777
0.0166648
0.0200989
0.0225608
0.0274738
0.0316227
-1.55045e-06
0.00112952
0.00134402
0.000286504
-0.000865112
0.00275463
0.00492193
0.00642793
0.00675051
0.00705692
0.00644965
0.00973405
0.0101055
0.0127245
0.0146674
0.0166578
0.0200962
0.0225055
0.0274166
0.0310646
1.87554e-06
0.00114097
0.00134641
0.000296841
-0.00085459
0.0027764
0.00491484
0.00647056
0.00677788
0.00704973
0.00649597
0.00971759
0.0101267
0.012715
0.0146565
0.0166461
0.0200965
0.0224402
0.0273334
0.0305293
7.19657e-06
0.00115733
0.00134685
0.000308047
-0.000829062
0.00280647
0.00491201
0.00652144
0.00681035
0.00704286
0.0065525
0.00970377
0.0101494
0.0127021
0.0146458
0.0166309
0.0200948
0.0223713
0.0272129
0.0300123
1.37859e-05
0.00117852
0.00134653
0.000322988
-0.000791737
0.00284344
0.00491573
0.00657689
0.00684701
0.00703613
0.00661479
0.00969341
0.0101725
0.012686
0.0146366
0.0166117
0.0200902
0.0222969
0.0270513
0.029515
2.10129e-05
0.00120483
0.00134732
0.000343496
-0.000745289
0.00288708
0.00492418
0.00663312
0.00688681
0.00702937
0.00668027
0.00968585
0.0101958
0.0126666
0.0146284
0.0165881
0.0200804
0.0222166
0.0268492
0.0290353
2.85108e-05
0.00123665
0.00135077
0.000370368
-0.000691075
0.00293541
0.00493319
0.00668693
0.00692834
0.00702258
0.00674821
0.0096804
0.0102198
0.0126439
0.0146204
0.01656
0.0200622
0.0221302
0.0266076
0.0285694
3.62555e-05
0.00127402
0.00135748
0.000403626
-0.00063005
0.00298616
0.00493776
0.00673543
0.00697022
0.00701585
0.00681891
0.0096772
0.0102461
0.012619
0.0146118
0.0165277
0.0200321
0.0220376
0.0263283
0.0281127
4.44825e-05
0.00131635
0.00136706
0.000442776
-0.000559429
0.00303797
0.00493404
0.00677638
0.00701147
0.00700907
0.00689298
0.00967692
0.0102767
0.0125937
0.0146021
0.0164915
0.0199875
0.0219383
0.0260142
0.0276606
5.35144e-05
0.00136259
0.00137873
0.00048706
-0.000476833
0.00309013
0.00492026
0.00680868
0.00705174
0.00700211
0.00697062
0.00968025
0.0103134
0.0125702
0.0145908
0.0164519
0.019927
0.0218317
0.0256686
0.0272083
6.36157e-05
0.00141159
0.00139191
0.0005356
-0.000381582
0.00314226
0.00489701
0.00683239
0.00709132
0.00699489
0.00705135
0.0096875
0.0103568
0.0125496
0.0145777
0.0164093
0.0198496
0.0217172
0.0252959
0.0267536
7.49469e-05
0.0014624
0.00140639
0.000587614
-0.00027475
0.00319401
0.00486673
0.00684833
0.00713085
0.0069875
0.00713424
0.00969867
0.0104062
0.0125322
0.0145622
0.0163642
0.0197555
0.0215938
0.0249003
0.0262863
8.76024e-05
0.00151436
0.00142227
0.000642541
-0.000158545
0.00324495
0.00483254
0.00685757
0.00717104
0.00698013
0.00721818
0.00971354
0.0104599
0.0125172
0.0145436
0.0163166
0.0196453
0.0214598
0.0244863
0.0258087
0.000101654
0.00156704
0.00143974
0.000699946
-3.53666e-05
0.00329474
0.00479735
0.0068611
0.0072124
0.00697301
0.0073021
0.00973172
0.0105155
0.0125041
0.014521
0.0162661
0.0195201
0.0213136
0.0240579
0.0253202
0.000117171
0.00162014
0.00145906
0.000759501
9.27562e-05
0.00334307
0.00476349
0.0068597
0.00725523
0.00696642
0.00738488
0.00975315
0.010571
0.0124919
0.014494
0.0162117
0.019381
0.0211541
0.0236189
0.0248205
0.000134238
0.00167343
0.00148052
0.000821034
0.000224352
0.00338959
0.0047326
0.00685397
0.00729951
0.00696069
0.00746538
0.00977796
0.0106248
0.0124795
0.0144623
0.0161521
0.0192285
0.0209804
0.0231728
0.02431
0.00015296
0.00172675
0.00150437
0.00088443
0.000358486
0.00343402
0.00470579
0.00684436
0.00734499
0.00695627
0.0075426
0.00980622
0.0106757
0.0124662
0.0144258
0.0160859
0.0190629
0.0207924
0.0227224
0.0237893
0.000173468
0.00177993
0.00153084
0.000949567
0.000494606
0.00347607
0.00468368
0.00683123
0.00739123
0.00695366
0.00761563
0.00983803
0.0107231
0.0124505
0.0143848
0.0160122
0.0188843
0.0205905
0.0222701
0.0232593
0.000195917
0.0018328
0.0015602
0.00101637
0.000632388
0.00351549
0.00466656
0.00681484
0.00743768
0.0069534
0.00768346
0.00987338
0.0107669
0.0124312
0.0143393
0.0159305
0.0186924
0.0203748
0.0218181
0.0227213
0.000220484
0.00188518
0.00159264
0.00108477
0.00077164
0.00355206
0.00465442
0.00679554
0.00748366
0.00695614
0.00774523
0.00991208
0.0108073
0.0124069
0.0142891
0.0158408
0.0184866
0.0201456
0.0213689
0.0221764
0.000247357
0.00193689
0.00162837
0.00115473
0.000912229
0.00358562
0.0046471
0.00677379
0.00752845
0.00696246
0.00780035
0.00995373
0.010845
0.0123762
0.0142338
0.0157435
0.0182666
0.019903
0.0209251
0.0216259
0.000276736
0.0019877
0.00166757
0.0012262
0.00105404
0.00361617
0.00464436
0.00675012
0.00757133
0.00697284
0.00784842
0.0099975
0.0108807
0.0123381
0.0141724
0.0156395
0.0180323
0.0196462
0.0204892
0.0210715
0.000308841
0.00203741
0.00171037
0.00129914
0.00119695
0.00364381
0.00464581
0.00672517
0.00761166
0.00698766
0.0078892
0.0100421
0.0109153
0.0122921
0.0141034
0.0155296
0.0177843
0.0193741
0.0200634
0.0205152
0.000343896
0.0020858
0.00175691
0.00137345
0.00134071
0.00366879
0.00465097
0.00669964
0.00764889
0.00700716
0.0079226
0.0100862
0.0109496
0.0122379
0.0140253
0.0154146
0.0175241
0.0190852
0.0196498
0.0199608
0.000382139
0.00213265
0.00180737
0.00144915
0.00148502
0.00369145
0.00465931
0.00667424
0.00768251
0.0070314
0.00794886
0.0101281
0.0109842
0.0121753
0.0139363
0.0152952
0.0172536
0.0187779
0.0192492
0.0194143
0.000423793
0.00217775
0.00186185
0.00152631
0.00162949
0.00371227
0.00467017
0.00664966
0.00771221
0.00706021
0.00796836
0.0101662
0.0110194
0.0121047
0.0138348
0.0151715
0.0169755
0.0184511
0.0188604
0.0188829
0.00046907
0.00222095
0.00192037
0.00160499
0.00177373
0.00373185
0.00468293
0.00662647
0.00773775
0.00709317
0.00798168
0.0101985
0.0110551
0.0120271
0.0137192
0.0150433
0.0166936
0.0181049
0.0184794
0.0183742
0.000518226
0.00226211
0.00198288
0.00168527
0.00191729
0.00375091
0.00469705
0.00660512
0.007759
0.00712969
0.00798952
0.0102234
0.0110908
0.0119435
0.0135886
0.0149097
0.0164114
0.0177407
0.0181004
0.0178942
0.000571506
0.00230113
0.00204931
0.00176729
0.00205956
0.00377024
0.00471199
0.0065859
0.00777616
0.00716904
0.00799248
0.0102393
0.0111253
0.0118552
0.0134419
0.0147693
0.016132
0.0173617
0.0177166
0.017444
0.000629124
0.00233799
0.00211949
0.0018512
0.0022
0.00379067
0.00472732
0.0065689
0.00778955
0.00721033
0.00799108
0.0102451
0.0111575
0.0117631
0.0132791
0.0146202
0.015858
0.0169728
0.0173223
0.0170186
0.000691268
0.00237272
0.0021932
0.00193719
0.00233805
0.00381303
0.00474273
0.00655402
0.00779952
0.00725264
0.00798567
0.01024
0.0111859
0.01167
0.0131002
0.0144607
0.0155912
0.0165784
0.016916
0.0166114
0.000758142
0.00240542
0.00227016
0.00202547
0.00247317
0.00383804
0.00475803
0.00654104
0.00780647
0.00729521
0.00797645
0.0102232
0.0112092
0.0115769
0.0129056
0.014289
0.0153328
0.016183
0.0164981
0.0162165
0.000829939
0.00243624
0.00234999
0.00211611
0.00260502
0.00386636
0.00477297
0.00652964
0.00781092
0.00733744
0.0079633
0.0101942
0.011226
0.0114842
0.0126962
0.0141024
0.0150835
0.0157916
0.016068
0.0158283
0.000906773
0.00246544
0.00243236
0.00220922
0.00273325
0.00389858
0.00478736
0.00651941
0.00781337
0.00737887
0.00794588
0.0101522
0.0112352
0.0113927
0.0124729
0.0138983
0.0148435
0.0154107
0.0156261
0.0154389
0.000988752
0.00249332
0.00251687
0.00230493
0.00285749
0.00393516
0.00480121
0.00650982
0.0078143
0.00741923
0.00792406
0.0100967
0.0112356
0.0113036
0.0122371
0.0136745
0.0146113
0.0150466
0.015176
0.0150393
0.00107599
0.00252022
0.00260315
0.00240325
0.00297739
0.00397668
0.0048146
0.00649996
0.00781435
0.00745857
0.00789792
0.0100267
0.0112257
0.0112182
0.0119905
0.013428
0.0143836
0.0147046
0.0147247
0.0146216
0.00116855
0.00254651
0.00269086
0.00250424
0.00309258
0.00402352
0.00482774
0.00648867
0.00781373
0.0074972
0.00786753
0.00994132
0.0112039
0.0111382
0.0117357
0.0131558
0.0141555
0.0143887
0.0142815
0.0141825
0.00126646
0.00257309
0.00277972
0.00260803
0.00320254
0.00407597
0.00484133
0.00647452
0.00781209
0.00753566
0.00783327
0.00984006
0.0111679
0.0110648
0.0114771
0.0128559
0.0139198
0.0141002
0.0138566
0.0137244
0.00136977
0.0025993
0.00286956
0.00271492
0.00330643
0.00413409
0.00485661
0.00645602
0.00780841
0.00757472
0.00779639
0.00972268
0.0111148
0.0109981
0.0112209
0.0125287
0.0136674
0.0138369
0.0134607
0.0132553
0.00147862
0.00262561
0.00296
0.00282545
0.0034035
0.00419735
0.00487578
0.00643238
0.00780099
0.00761491
0.00775857
0.00958958
0.0110412
0.0109366
0.010974
0.0121777
0.0133886
0.0135923
0.0131037
0.0127882
0.001593
0.00265265
0.00305035
0.00294033
0.00349337
0.00426505
0.00490111
0.00640377
0.0077875
0.00765587
0.00772177
0.00944211
0.0109439
0.0108771
0.0107489
0.0118098
0.0130755
0.0133552
0.0127911
0.0123396
0.00171281
0.00268113
0.00313948
0.00306057
0.00357625
0.00433368
0.0049348
0.00637129
0.00776531
0.00769641
0.00768839
0.00928233
0.01082
0.0108153
0.010547
0.0114344
0.0127245
0.0131105
0.0125197
0.0119294
0.00183787
0.0027121
0.00322578
0.00318711
0.00365336
0.00439924
0.00497777
0.00633753
0.00773209
0.00773455
0.00766096
0.00911306
0.0106679
0.010746
0.0103703
0.011063
0.0123375
0.0128436
0.0122801
0.0115736
0.00196784
0.00274691
0.00330729
0.00332021
0.00372764
0.00445707
0.00502893
0.00630589
0.00768638
0.00776743
0.00764176
0.00893829
0.0104868
0.010663
0.0102181
0.0107078
0.0119212
0.0125435
0.012058
0.0112751
0.00210228
0.00278691
0.00338242
0.00345897
0.00380318
0.00450456
0.00508583
0.00627972
0.00762814
0.00779086
0.0076318
0.00876311
0.0102778
0.0105601
0.0100873
0.0103783
0.0114854
0.0122052
0.0118368
0.0110255
0.0022407
0.00283341
0.00345019
0.00360136
0.00388432
0.00454183
0.00514335
0.00626136
0.00755916
0.00779978
0.00762929
0.00859324
0.0100449
0.0104322
0.00997088
0.0100798
0.0110428
0.0118289
0.0116037
0.0108125
0.00238234
0.00288763
0.00351029
0.00374419
0.00397464
0.00457008
0.00519552
0.00625139
0.00748346
0.00779093
0.00762992
0.00843312
0.00979544
0.0102764
0.00986049
0.00981979
0.0106069
0.0114194
0.0113495
0.0106211
0.00252628
0.00295062
0.00356348
0.00388329
0.00407622
0.00459225
0.00523658
0.00624794
0.00740797
0.00776542
0.00762724
0.00828373
0.00953707
0.0100924
0.00974686
0.00958724
0.0101908
0.0109852
0.0110666
0.0104373
0.00267159
0.0030231
0.00361145
0.00401398
0.00418903
0.00461383
0.00526202
0.00624719
0.00733873
0.00772672
0.00761669
0.00814386
0.00927558
0.00988263
0.00962239
0.00938268
0.00980608
0.0105381
0.0107492
0.0102497
0.0028173
0.00310542
0.00365694
0.00413213
0.00431069
0.00464211
0.00527183
0.00624144
0.00727638
0.00768119
0.00759729
0.00801145
0.00901494
0.00965056
0.00948245
0.00919891
0.00945886
0.0100929
0.0103965
0.0100469
0.00296255
0.0031976
0.00370288
0.00423502
0.00443702
0.00468296
0.00526793
0.00622229
0.0072186
0.00763438
0.00757046
0.00788546
0.00875816
0.00939959
0.0093239
0.00902886
0.00914918
0.00966589
0.0100169
0.00981605
0.00310651
0.0032994
0.00375192
0.00432167
0.00456164
0.00473959
0.00525795
0.00618478
0.00715787
0.00758808
0.00754048
0.00776635
0.00850752
0.00913365
0.00914449
0.00886545
0.00887475
0.00926932
0.00962498
0.00954884
0.00324847
0.00341024
0.00380666
0.00439228
0.00467749
0.0048111
0.00525288
0.00612926
0.00708405
0.00754105
0.00751111
0.00765622
0.00826598
0.00885685
0.00894306
0.00870231
0.00863104
0.00890743
0.00923822
0.00925128
0.00338787
0.00352899
0.00386909
0.00444808
0.00477971
0.0048947
0.00526039
0.00606057
0.00698989
0.00748692
0.00748373
0.0075583
0.00803817
0.00857396
0.00871935
0.00853287
0.00841139
0.00857895
0.0088691
0.00894009
0.00352421
0.00365368
0.00394062
0.00449208
0.00486551
0.00498389
0.00528314
0.00599044
0.006875
0.00741492
0.00745613
0.00747441
0.00782936
0.00829234
0.0084749
0.00835022
0.00820947
0.00828306
0.00852088
0.00863026
0.0036573
0.00378136
0.00402194
0.00452939
0.00493368
0.00507066
0.00531936
0.00592995
0.0067439
0.00731629
0.00742016
0.00740466
0.0076439
0.00802052
0.00821481
0.0081489
0.0080173
0.00801946
0.00819465
0.00832762
0.00378718
0.0039088
0.0041124
0.00456592
0.00498454
0.00514883
0.00536517
0.00588445
0.00660918
0.00719049
0.00736371
0.00734474
0.00748426
0.00776666
0.00794859
0.00792839
0.00782318
0.00778294
0.00789386
0.0080322
0.00391401
0.00403375
0.00421038
0.00460576
0.00502029
0.00521481
0.00541365
0.00585318
0.00648332
0.00704261
0.00727724
0.00728374
0.00735024
0.00753747
0.00768618
0.00769306
0.00761961
0.0075641
0.00762157
0.00774827
0.00403804
0.00415501
0.00431295
0.00465138
0.00504517
0.00526643
0.00545929
0.00583358
0.00637245
0.00688631
0.00716103
0.00720794
0.00723574
0.00733747
0.00743664
0.00745105
0.00740377
0.0073513
0.00737436
0.00748167
0.00415956
0.00427203
0.00441649
0.00470348
0.00506437
0.00530324
0.00549807
0.00582058
0.00627682
0.00673384
0.00702097
0.00710865
0.00712715
0.00716629
0.00720897
0.00721129
0.00718111
0.00713799
0.00714374
0.00723423
0.00427858
0.00438466
0.00451791
0.00476098
0.00508231
0.00532628
0.00552676
0.00580973
0.00619501
0.00659145
0.00686919
0.00698727
0.00701162
0.0070159
0.00700878
0.00698281
0.00695711
0.00692426
0.00692156
0.00700161
0.00439479
0.00449287
0.00461537
0.0048222
0.00510147
0.00533864
0.0055437
0.00579734
0.0061239
0.00646173
0.00671591
0.00684868
0.00688444
0.00687282
0.00683403
0.00677504
0.00673801
0.00671329
0.00670586
0.00677824
0.00450781
0.00459681
0.00470793
0.00488471
0.00512286
0.00534397
0.00554907
0.00578045
0.00605928
0.00634434
0.00656812
0.00670067
0.00674661
0.00673031
0.00667519
0.00659081
0.00653094
0.00650477
0.00649871
0.00656295
0.00461699
0.00469673
0.00479543
0.0049459
0.00514622
0.00534526
0.0055439
0.00575737
0.00599789
0.00623697
0.00642957
0.00655187
0.00660052
0.00658611
0.00652484
0.00642701
0.00634356
0.00630842
0.00630323
0.00635967
0.0047218
0.00479249
0.00487786
0.00500399
0.00517038
0.00534458
0.00553029
0.00572711
0.00593744
0.00613739
0.0063
0.00640868
0.00645231
0.00643956
0.00637999
0.00627747
0.00617659
0.00612525
0.00611959
0.0061716
0.00482179
0.00488374
0.00495525
0.00505804
0.00519389
0.00534254
0.00551082
0.00569031
0.00587568
0.00604414
0.00617882
0.00627212
0.00630956
0.00629413
0.00623831
0.00613874
0.00602764
0.00595922
0.00594875
0.00599953
0.00491647
0.00497009
0.00502762
0.00510774
0.00521549
0.00533875
0.00548688
0.00564817
0.00581142
0.00595531
0.00606661
0.00614214
0.0061735
0.00615557
0.00610147
0.00600957
0.00589592
0.00581281
0.00579143
0.0058424
0.00500552
0.00505101
0.00509473
0.00515287
0.00523432
0.00533293
0.00545931
0.00560111
0.00574402
0.00586884
0.00596337
0.0060223
0.00604504
0.00602574
0.00597159
0.00588778
0.00578152
0.00569128
0.00565769
0.00570248
0.00508867
0.00512635
0.00515638
0.00519309
0.00524935
0.00532407
0.00542884
0.00555095
0.00567344
0.0057816
0.00586455
0.00591299
0.00593032
0.00591077
0.00585492
0.00577202
0.00567512
0.00558978
0.00555068
0.00558979
0.00516545
0.00519586
0.00521269
0.00522846
0.00526038
0.00531127
0.00539372
0.00549748
0.00560242
0.00569572
0.0057657
0.00580501
0.00582434
0.00581408
0.00576943
0.00568945
0.00558852
0.00549745
0.00544801
0.00548044
0.00523594
0.00525904
0.00526331
0.00525871
0.00526713
0.00529552
0.00535411
0.00543639
0.00552701
0.00561328
0.00567609
0.00570164
0.00571365
0.00570886
0.00568767
0.0056445
0.00557299
0.00549942
0.00545151
0.00546921
0.00530004
0.00531613
0.00530782
0.00528343
0.00526829
0.0052754
0.00531306
0.00536969
0.00543756
0.00552147
0.00559762
0.00563771
0.00565818
0.0056378
0.00558388
0.0055267
0.0054647
0.0054115
0.00538421
0.00541189
0.00535877
0.00536748
0.00534581
0.00530258
0.00526417
0.00524871
0.00526789
0.00530408
0.00533712
0.00537953
0.00543044
0.00548454
0.00558152
0.00568862
0.00573954
0.00574475
0.00570252
0.00564319
0.0056004
0.00560127
0.00541189
0.00541243
0.00537795
0.00531709
0.00525674
0.00521541
0.00520987
0.00524218
0.00529437
0.00536107
0.00541102
0.00540169
0.00538029
0.00536153
0.00535898
0.00539607
0.00547652
0.00557269
0.00569044
0.00584769
0.00545657
0.0054503
0.00540571
0.00532994
0.00525188
0.00518583
0.00512657
0.00506695
0.00501238
0.00499291
0.00505297
0.00522434
0.00552364
0.00585181
0.00610145
0.00626626
0.00638856
0.00649002
0.00657695
0.00662272
0.0054935
0.00548146
0.00542791
0.00533891
0.00524373
0.00517285
0.00513637
0.00513476
0.00515424
0.00516877
0.0051821
0.00515764
0.0051289
0.00516204
0.00526043
0.00545845
0.0057693
0.00615253
0.00649451
0.00670337
0.00552408
0.00550754
0.00544604
0.00534508
0.00522836
0.00511713
0.00500695
0.00491171
0.00485638
0.00486036
0.00499417
0.00524087
0.00551812
0.00580163
0.00605345
0.00625603
0.00644039
0.00660172
0.00671477
0.0067338
0.00554766
0.00553093
0.00547025
0.00536839
0.00525276
0.00515771
0.00507742
0.00501508
0.00498012
0.00492877
0.0049018
0.00496669
0.00511844
0.00536402
0.00568505
0.00599709
0.00624058
0.00641245
0.00652187
0.00654677
0.0442677
0.0329464
0.0205312
0.0120412
0.00874471
0.00861169
0.00896088
0.0089467
0.00866426
0.00822624
0.00775731
0.00741429
0.00717753
0.0069191
0.00659428
0.00631599
0.00609069
0.00579749
0.00553716
0.00540195
0.0052412
0.00499874
0.00474276
0.00449893
0.00430578
0.00416049
0.00397565
0.00374044
0.00352833
0.00335921
0.00318161
0.00297908
0.00280465
0.00269316
0.00258517
0.00243156
0.00228084
0.00216005
0.00202152
0.00184439
0.00166615
0.0014903
0.00128429
0.00106087
0.000860799
0.000687357
0.000498477
0.000289019
9.06652e-05
-6.95109e-05
-0.000239968
-0.000444484
-0.000623333
-0.000785416
-0.00100183
-0.00126477
-0.00152893
-0.00177763
-0.00199215
-0.00219218
-0.00239551
-0.00259585
-0.00282294
-0.00308766
-0.00334829
-0.0035981
-0.00384927
-0.00410523
-0.00435865
-0.00462556
-0.00488915
-0.00515846
-0.00542831
-0.00570828
-0.00599013
-0.00626379
-0.00655562
-0.00684306
-0.00713189
-0.00741774
-0.00770967
-0.00802435
-0.00834114
-0.00864372
-0.00896478
-0.00926783
-0.00959568
-0.00994287
-0.0102783
-0.0106118
-0.0109739
-0.0113138
-0.0116827
-0.0120428
-0.0124315
-0.012837
-0.0132377
-0.0137263
-0.0141903
-0.0147048
0.0423296
0.0327297
0.0206075
0.0121878
0.00884542
0.00866209
0.00899239
0.00896819
0.00867949
0.00823763
0.0077661
0.00742158
0.00718406
0.00692508
0.00659954
0.00632064
0.00609509
0.00580137
0.00554037
0.00540498
0.00524414
0.00500137
0.00474511
0.00450099
0.00430756
0.00416217
0.00397727
0.00374189
0.00352961
0.00336043
0.00318279
0.00298017
0.00280561
0.00269408
0.00258612
0.00243246
0.00228164
0.00216084
0.00202232
0.00184516
0.00166687
0.001491
0.00128499
0.00106153
0.000861411
0.000687953
0.000499065
0.000289577
9.11731e-05
-6.9031e-05
-0.000239483
-0.000444034
-0.000622925
-0.000785
-0.0010014
-0.00126437
-0.00152856
-0.0017773
-0.00199183
-0.00219188
-0.00239522
-0.00259556
-0.00282266
-0.00308739
-0.00334804
-0.00359787
-0.00384905
-0.00410501
-0.00435844
-0.00462536
-0.00488896
-0.00515827
-0.00542813
-0.00570811
-0.00598996
-0.00626363
-0.00655546
-0.00684291
-0.00713175
-0.0074176
-0.00770954
-0.00802421
-0.00834102
-0.0086436
-0.00896466
-0.00926773
-0.00959557
-0.00994277
-0.0102782
-0.0106117
-0.0109739
-0.0113137
-0.0116826
-0.0120428
-0.0124315
-0.0128369
-0.0132376
-0.0137263
-0.0141903
-0.0147048
0.0410681
0.0326087
0.020793
0.0124653
0.00901369
0.00872171
0.00901755
0.00898829
0.00869727
0.0082522
0.00777745
0.00743031
0.00719093
0.00693068
0.0066042
0.00632477
0.00609905
0.00580487
0.00554332
0.00540777
0.00524674
0.00500366
0.00474721
0.00450283
0.00430915
0.00416368
0.00397868
0.0037431
0.00353069
0.00336147
0.00318378
0.00298104
0.00280637
0.00269485
0.00258693
0.0024332
0.0022823
0.00216149
0.00202298
0.00184579
0.00166746
0.0014916
0.00128556
0.00106204
0.000861897
0.000688448
0.000499549
0.000290019
9.15729e-05
-6.86325e-05
-0.000239075
-0.000443677
-0.000622595
-0.000784633
-0.00100103
-0.00126405
-0.00152828
-0.00177704
-0.00199159
-0.00219162
-0.00239499
-0.00259532
-0.00282241
-0.00308718
-0.00334785
-0.00359768
-0.00384886
-0.00410483
-0.00435827
-0.0046252
-0.0048888
-0.00515812
-0.00542799
-0.00570796
-0.00598982
-0.0062635
-0.00655533
-0.00684279
-0.00713163
-0.00741749
-0.00770942
-0.0080241
-0.00834092
-0.0086435
-0.00896457
-0.00926764
-0.00959548
-0.00994269
-0.0102781
-0.0106116
-0.0109738
-0.0113136
-0.0116826
-0.0120427
-0.0124314
-0.0128369
-0.0132376
-0.0137263
-0.0141903
-0.014705
0.0397885
0.0324
0.0209804
0.0127881
0.00923503
0.00880409
0.00905432
0.00901914
0.00872432
0.00827363
0.00779435
0.00744351
0.00720093
0.00693846
0.00661051
0.0063301
0.00610399
0.00580952
0.00554744
0.00541128
0.00524969
0.00500643
0.00475006
0.00450549
0.00431138
0.00416562
0.00398043
0.00374464
0.00353205
0.0033627
0.00318489
0.002982
0.0028072
0.00269568
0.00258782
0.00243402
0.00228301
0.00216218
0.00202368
0.00184646
0.0016681
0.00149221
0.00128613
0.00106257
0.000862409
0.000688972
0.000500054
0.000290482
9.20003e-05
-6.82013e-05
-0.000238637
-0.000443303
-0.000622241
-0.000784228
-0.00100063
-0.00126371
-0.00152799
-0.00177679
-0.00199133
-0.00219135
-0.00239474
-0.00259506
-0.00282214
-0.00308695
-0.00334765
-0.00359748
-0.00384866
-0.00410465
-0.00435809
-0.00462503
-0.00488864
-0.00515796
-0.00542783
-0.00570781
-0.00598969
-0.00626336
-0.00655519
-0.00684267
-0.00713151
-0.00741737
-0.0077093
-0.00802399
-0.00834082
-0.0086434
-0.00896447
-0.00926754
-0.00959538
-0.00994261
-0.0102781
-0.0106115
-0.0109737
-0.0113136
-0.0116825
-0.0120427
-0.0124313
-0.0128368
-0.0132375
-0.0137262
-0.0141903
-0.0147052
0.0384908
0.0321186
0.021165
0.0131228
0.00947415
0.00889681
0.00909625
0.00905697
0.00875931
0.00830203
0.00781758
0.00746218
0.00721497
0.00694937
0.00661961
0.0063376
0.00611059
0.00581613
0.00555359
0.00541592
0.00525302
0.00500973
0.00475403
0.00450956
0.00431476
0.0041683
0.00398285
0.00374698
0.00353414
0.0033644
0.00318631
0.00298324
0.00280826
0.00269665
0.00258881
0.00243497
0.00228386
0.00216296
0.00202446
0.00184726
0.00166885
0.00149288
0.00128673
0.00106316
0.000862992
0.000689545
0.000500595
0.000291
9.25008e-05
-6.7704e-05
-0.000238147
-0.000442875
-0.000621824
-0.000783762
-0.00100017
-0.00126332
-0.00152766
-0.0017765
-0.00199103
-0.00219104
-0.00239445
-0.00259476
-0.00282183
-0.00308669
-0.00334743
-0.00359725
-0.00384844
-0.00410444
-0.00435789
-0.00462484
-0.00488846
-0.00515778
-0.00542766
-0.00570765
-0.00598954
-0.00626321
-0.00655505
-0.00684254
-0.00713138
-0.00741724
-0.00770916
-0.00802387
-0.00834071
-0.00864329
-0.00896437
-0.00926744
-0.00959527
-0.00994252
-0.010278
-0.0106115
-0.0109736
-0.0113135
-0.0116824
-0.0120426
-0.0124313
-0.0128368
-0.0132374
-0.0137262
-0.0141902
-0.0147054
0.0372034
0.0317857
0.0213459
0.013458
0.00971927
0.00899333
0.00913801
0.00909658
0.00879825
0.00833453
0.00784473
0.00748444
0.00723199
0.00696308
0.00663169
0.00634763
0.00611917
0.00582509
0.00556223
0.00542201
0.0052568
0.00501351
0.00475912
0.0045152
0.00431948
0.0041718
0.00398606
0.00375048
0.0035374
0.00336691
0.00318829
0.00298501
0.00280973
0.0026978
0.00258991
0.0024361
0.00228485
0.00216377
0.00202532
0.00184825
0.00166978
0.00149362
0.00128738
0.00106385
0.000863687
0.000690165
0.000501159
0.000291585
9.30961e-05
-6.71342e-05
-0.000237599
-0.000442365
-0.000621312
-0.000783222
-0.000999651
-0.00126288
-0.00152729
-0.00177618
-0.00199069
-0.00219068
-0.00239412
-0.00259441
-0.00282147
-0.00308639
-0.00334717
-0.003597
-0.00384819
-0.0041042
-0.00435766
-0.00462463
-0.00488826
-0.00515758
-0.00542748
-0.00570747
-0.00598938
-0.00626304
-0.00655489
-0.00684239
-0.00713123
-0.0074171
-0.00770902
-0.00802373
-0.00834059
-0.00864316
-0.00896425
-0.00926732
-0.00959515
-0.00994241
-0.0102779
-0.0106114
-0.0109736
-0.0113134
-0.0116823
-0.0120425
-0.0124312
-0.0128367
-0.0132373
-0.013726
-0.0141902
-0.0147058
0.0359403
0.0314018
0.0215148
0.013789
0.00996888
0.00909353
0.00917865
0.00913597
0.00883934
0.00836954
0.0078739
0.00750837
0.00725049
0.00697843
0.00664587
0.00635971
0.00612957
0.00583624
0.00557316
0.00542954
0.00526116
0.00501775
0.00476517
0.00452225
0.00432538
0.00417593
0.00398994
0.00375514
0.003542
0.0033705
0.00319114
0.00298764
0.00281188
0.00269929
0.00259119
0.00243747
0.00228598
0.00216454
0.00202619
0.00184948
0.00167097
0.00149447
0.00128814
0.00106475
0.000864581
0.000690859
0.000501745
0.000292252
9.37988e-05
-6.65069e-05
-0.000237008
-0.000441754
-0.000620671
-0.000782584
-0.000999048
-0.00126235
-0.00152685
-0.00177582
-0.0019903
-0.00219026
-0.00239372
-0.002594
-0.00282104
-0.00308603
-0.00334685
-0.00359669
-0.00384789
-0.00410391
-0.00435739
-0.00462438
-0.00488803
-0.00515736
-0.00542726
-0.00570727
-0.00598919
-0.00626285
-0.00655472
-0.00684223
-0.00713107
-0.00741694
-0.00770885
-0.00802358
-0.00834045
-0.00864302
-0.00896411
-0.00926718
-0.00959501
-0.00994229
-0.0102778
-0.0106112
-0.0109734
-0.0113133
-0.0116822
-0.0120424
-0.012431
-0.0128366
-0.0132372
-0.0137259
-0.01419
-0.0147063
0.0347085
0.0309644
0.0216661
0.0141155
0.0102238
0.00919819
0.00921799
0.00917406
0.00888167
0.00840649
0.00790449
0.00753331
0.00726986
0.0069947
0.00666121
0.00637307
0.0061412
0.00584888
0.00558573
0.00543829
0.00526619
0.00502249
0.00477195
0.0045303
0.0043321
0.00418043
0.00399418
0.00376063
0.00354771
0.00337512
0.00319501
0.00299136
0.00281492
0.00270126
0.00259278
0.00243918
0.00228731
0.00216518
0.00202694
0.00185087
0.00167243
0.00149549
0.00128906
0.00106596
0.00086579
0.000691712
0.000502402
0.00029304
9.46291e-05
-6.58504e-05
-0.000236419
-0.000441059
-0.000619905
-0.000781838
-0.000998321
-0.00126168
-0.0015263
-0.00177538
-0.00198984
-0.00218977
-0.00239326
-0.00259351
-0.00282054
-0.00308559
-0.00334647
-0.00359632
-0.00384752
-0.00410356
-0.00435706
-0.00462409
-0.00488774
-0.00515708
-0.00542701
-0.00570703
-0.00598897
-0.00626263
-0.00655451
-0.00684204
-0.00713088
-0.00741676
-0.00770866
-0.0080234
-0.00834029
-0.00864286
-0.00896395
-0.00926702
-0.00959484
-0.00994214
-0.0102776
-0.0106111
-0.0109733
-0.0113131
-0.0116821
-0.0120423
-0.0124309
-0.0128364
-0.013237
-0.0137256
-0.0141898
-0.0147068
0.033515
0.0304752
0.0217962
0.0144366
0.0104837
0.00930777
0.00925619
0.00921021
0.00892468
0.00844523
0.00793648
0.00755921
0.00728999
0.00701164
0.00667725
0.00638717
0.00615357
0.00586236
0.0055993
0.00544793
0.00527188
0.00502776
0.00477928
0.00453898
0.00433932
0.00418511
0.00399857
0.00376654
0.00355403
0.00338041
0.00319975
0.00299619
0.00281896
0.00270379
0.00259474
0.00244136
0.00228897
0.00216575
0.00202745
0.00185224
0.00167404
0.00149664
0.00129016
0.00106752
0.000867398
0.000692829
0.00050323
0.000294035
9.56442e-05
-6.51637e-05
-0.000235874
-0.000440342
-0.000619083
-0.000781042
-0.000997475
-0.00126081
-0.00152557
-0.00177481
-0.00198931
-0.00218924
-0.00239275
-0.00259296
-0.00281994
-0.00308505
-0.00334599
-0.00359587
-0.00384706
-0.00410312
-0.00435666
-0.00462372
-0.00488739
-0.00515675
-0.0054267
-0.00570673
-0.0059887
-0.00626238
-0.00655428
-0.00684181
-0.00713066
-0.00741654
-0.00770845
-0.0080232
-0.00834011
-0.00864267
-0.00896376
-0.00926683
-0.00959465
-0.00994195
-0.0102774
-0.0106109
-0.0109731
-0.011313
-0.0116819
-0.0120422
-0.0124307
-0.0128362
-0.0132367
-0.0137251
-0.0141894
-0.0147074
0.032367
0.0299376
0.0219
0.0147502
0.0107485
0.00942367
0.00929417
0.00924404
0.00896768
0.00848556
0.00796991
0.00758608
0.00731084
0.00702917
0.00669383
0.00640177
0.00616632
0.00587625
0.00561344
0.00545819
0.0052781
0.00503347
0.00478703
0.0045481
0.00434688
0.00418997
0.00400307
0.00377264
0.0035606
0.003386
0.00320502
0.0030019
0.0028239
0.0027069
0.00259706
0.00244398
0.00229105
0.0021664
0.00202775
0.00185343
0.00167562
0.00149781
0.0012914
0.00106939
0.00086939
0.000694258
0.000504319
0.000295338
9.69361e-05
-6.4385e-05
-0.000235364
-0.000439647
-0.000618307
-0.000780326
-0.000996607
-0.00125977
-0.00152459
-0.00177402
-0.00198864
-0.00218867
-0.00239224
-0.00259239
-0.00281927
-0.00308439
-0.00334541
-0.00359532
-0.0038465
-0.00410258
-0.00435618
-0.00462328
-0.00488695
-0.00515633
-0.00542631
-0.00570636
-0.00598836
-0.00626206
-0.00655399
-0.00684153
-0.00713039
-0.00741629
-0.0077082
-0.00802296
-0.00833989
-0.00864245
-0.00896352
-0.00926661
-0.00959442
-0.00994172
-0.0102772
-0.0106107
-0.0109729
-0.0113127
-0.0116817
-0.012042
-0.0124304
-0.012836
-0.0132364
-0.0137245
-0.0141888
-0.0147081
0.0312703
0.029356
0.0219718
0.0150546
0.011019
0.00954779
0.0093328
0.00927491
0.00900973
0.00852717
0.00800486
0.00761402
0.00733249
0.00704738
0.00671096
0.00641672
0.00617926
0.00589037
0.00562796
0.00546887
0.00528468
0.00503951
0.00479511
0.00455756
0.00435476
0.00419504
0.00400772
0.00377891
0.00356732
0.00339169
0.00321053
0.00300816
0.00282955
0.00271049
0.00259965
0.00244693
0.00229354
0.00216727
0.00202796
0.00185441
0.00167702
0.00149891
0.00129272
0.0010715
0.000871683
0.000695954
0.000505683
0.000296996
9.85806e-05
-6.34185e-05
-0.000234812
-0.000438959
-0.000617636
-0.000779822
-0.000995892
-0.0012587
-0.0015234
-0.0017729
-0.00198767