/*--------------------------------*- C++ -*----------------------------------*\
| =========                 |                                                 |
| \\      /  F ield         | OpenFOAM: The Open Source CFD Toolbox           |
|  \\    /   O peration     | Version:  v1912                                 |
|   \\  /    A nd           | Website:  www.openfoam.com                      |
|    \\/     M anipulation  |                                                 |
\*---------------------------------------------------------------------------*/
FoamFile
{
    version     2.0;
    format      ascii;
    class       volScalarField;
    location    "5.2";
    object      p;
}
// * * * * * * * * * * * * * * * * * * * * * * * * * * * * * * * * * * * * * //

dimensions      [0 2 -2 0 0 0 0];


internalField   nonuniform List<scalar> 
9600
(
1.52166e-10
0.00487343
0.0115562
0.00816705
0.00759433
0.0127033
0.00902196
0.0113762
0.0114295
0.0128615
0.0140606
0.0142381
0.0147028
0.0165068
0.016233
0.0183451
0.0187803
0.0209739
0.0239384
0.0307138
2.54032e-05
0.00486053
0.0115424
0.00819929
0.0076053
0.0126546
0.00905654
0.0113521
0.0114275
0.0128792
0.0140544
0.0142474
0.0146963
0.016502
0.0162369
0.0183339
0.0187886
0.0209704
0.0239454
0.02988
3.98964e-05
0.00485361
0.0115371
0.0082141
0.00760143
0.0125936
0.00908631
0.0113302
0.0114384
0.0129036
0.0140452
0.0142641
0.0146928
0.0164851
0.016243
0.0183207
0.0188008
0.0209645
0.0239019
0.0292733
5.44045e-05
0.00487197
0.0115335
0.00821374
0.00759123
0.0125391
0.00911903
0.0113148
0.0114603
0.0129244
0.0140294
0.014286
0.0146936
0.0164515
0.0162514
0.0183052
0.0188098
0.0209385
0.0238445
0.0285815
7.3185e-05
0.00491468
0.0115277
0.00819989
0.00758657
0.0124955
0.00915866
0.0113023
0.0114902
0.0129368
0.0140046
0.0143102
0.0146959
0.0164063
0.0162607
0.0182821
0.0188163
0.0208958
0.0237688
0.0279288
9.94877e-05
0.00497684
0.0115141
0.00817542
0.00759216
0.0124635
0.00920611
0.0112899
0.0115257
0.0129393
0.0139722
0.0143339
0.014698
0.0163556
0.0162697
0.0182528
0.0188242
0.0208386
0.0236734
0.0273098
0.000136349
0.00505283
0.0114869
0.00814472
0.0076096
0.0124413
0.00926059
0.0112758
0.0115597
0.0129346
0.0139351
0.0143549
0.0146997
0.0163041
0.0162791
0.0182202
0.0188336
0.0207678
0.0235583
0.0267203
0.00018541
0.00513575
0.011443
0.00811305
0.00763856
0.0124241
0.00931913
0.011259
0.011593
0.0129262
0.0138953
0.0143722
0.0147017
0.0162536
0.0162899
0.018184
0.0188422
0.0206843
0.02342
0.0261587
0.000246524
0.00522011
0.0113828
0.00808491
0.00767677
0.0124071
0.00939226
0.0112394
0.0116261
0.0129164
0.0138537
0.0143853
0.0147044
0.0162047
0.0163019
0.0181432
0.0188473
0.0205882
0.0232575
0.0256246
0.00031816
0.00530303
0.0113098
0.00806259
0.00772107
0.0123872
0.00944912
0.0112175
0.0116597
0.0129064
0.0138109
0.0143943
0.0147079
0.0161565
0.0163148
0.0180978
0.0188471
0.0204804
0.0230707
0.025117
0.000398282
0.00538356
0.0112277
0.008046
0.00776874
0.0123635
0.00950413
0.0111934
0.0116939
0.0128967
0.0137673
0.0143995
0.0147123
0.0161085
0.016328
0.0180482
0.0188399
0.0203621
0.0228609
0.0246337
0.000485063
0.00546167
0.0111398
0.00803343
0.00781794
0.0123363
0.00955809
0.0111674
0.0117283
0.0128872
0.0137235
0.0144011
0.0147172
0.0160601
0.0163408
0.0179949
0.0188249
0.0202351
0.02263
0.0241715
0.000577205
0.00553768
0.0110486
0.00802284
0.00786762
0.012306
0.00961219
0.0111394
0.0117625
0.012878
0.0136797
0.0143995
0.0147214
0.016011
0.0163522
0.0179378
0.0188012
0.0201007
0.0223802
0.0237275
0.000673926
0.00561198
0.0109554
0.00801266
0.00791734
0.0122731
0.0096675
0.0111093
0.0117958
0.0128693
0.0136363
0.014395
0.0147244
0.0159613
0.0163608
0.017877
0.0187684
0.0199591
0.022114
0.0232995
0.000774812
0.00568504
0.0108613
0.00800217
0.00796706
0.0122379
0.00972479
0.011077
0.011828
0.0128614
0.0135932
0.0143878
0.0147258
0.0159108
0.0163659
0.0178124
0.0187262
0.0198104
0.0218331
0.0228856
0.000879673
0.00575742
0.0107672
0.00799128
0.00801696
0.0122007
0.00978451
0.0110426
0.0118587
0.0128546
0.0135503
0.0143783
0.014725
0.0158594
0.0163672
0.0177433
0.018674
0.0196547
0.0215388
0.0224841
0.000988475
0.00582963
0.0106737
0.00798036
0.00806723
0.0121619
0.00984695
0.0110061
0.0118873
0.0128494
0.0135071
0.0143667
0.014722
0.0158069
0.0163648
0.017669
0.0186114
0.0194922
0.021232
0.0220935
0.0011013
0.00590205
0.0105813
0.00796993
0.00811795
0.0121217
0.00991221
0.0109678
0.0119135
0.0128463
0.0134631
0.0143529
0.0147169
0.0157532
0.016359
0.0175889
0.0185373
0.0193241
0.0209136
0.0217115
0.00121833
0.0059748
0.0104903
0.00796042
0.00816905
0.0120801
0.00998028
0.010928
0.0119367
0.0128456
0.0134181
0.014337
0.0147098
0.0156975
0.0163505
0.0175023
0.0184503
0.0191522
0.0205846
0.0213353
0.00133978
0.00604772
0.0104008
0.00795214
0.00822027
0.0120371
0.010051
0.0108871
0.0119562
0.0128479
0.0133717
0.0143186
0.0147014
0.0156387
0.0163398
0.0174092
0.0183486
0.0189792
0.0202466
0.020961
0.00146587
0.00612042
0.0103129
0.0079452
0.00827116
0.0119928
0.0101242
0.0108457
0.0119713
0.0128535
0.0133239
0.0142973
0.0146922
0.0155757
0.0163268
0.0173106
0.0182301
0.0188067
0.0199031
0.0205841
0.00159678
0.00619242
0.0102267
0.00793966
0.00832121
0.0119473
0.0101997
0.0108043
0.0119812
0.0128627
0.0132748
0.0142722
0.0146833
0.0155072
0.0163105
0.0172084
0.0180925
0.0186349
0.0195594
0.0202005
0.00173264
0.00626318
0.0101421
0.00793552
0.00836983
0.0119004
0.0102772
0.0107635
0.0119852
0.0128756
0.0132247
0.0142424
0.0146755
0.0154324
0.0162891
0.0171053
0.0179342
0.0184616
0.0192222
0.0198075
0.00187349
0.00633226
0.0100593
0.00793287
0.00841643
0.0118522
0.0103563
0.010724
0.0119826
0.0128923
0.0131742
0.0142066
0.0146696
0.0153517
0.0162598
0.0170043
0.0177554
0.0182829
0.0188986
0.0194055
0.00201931
0.00639933
0.00997823
0.00793187
0.00846044
0.0118029
0.0104368
0.0106863
0.0119728
0.0129126
0.0131242
0.0141634
0.0146663
0.0152659
0.0162189
0.0169081
0.0175585
0.0180923
0.0185946
0.0189993
0.00217006
0.00646419
0.00989919
0.00793278
0.00850136
0.0117523
0.0105184
0.0106508
0.0119555
0.0129359
0.0130756
0.0141116
0.0146655
0.0151765
0.0161627
0.0168181
0.0173476
0.0178828
0.0183129
0.0185986
0.00232562
0.00652684
0.00982224
0.00793594
0.00853877
0.0117005
0.0106008
0.0106181
0.0119304
0.012962
0.0130292
0.0140498
0.0146666
0.0150855
0.0160882
0.0167336
0.0171291
0.0176486
0.0180506
0.0182156
0.00248584
0.00658734
0.00974748
0.00794176
0.00857229
0.0116473
0.0106836
0.0105886
0.0118972
0.01299
0.012986
0.0139771
0.0146686
0.0149956
0.015993
0.0166521
0.0169106
0.0173873
0.0177998
0.0178631
0.00265059
0.0066459
0.00967494
0.0079506
0.00860176
0.0115927
0.0107667
0.0105628
0.0118558
0.0130193
0.0129475
0.0138924
0.0146695
0.0149098
0.0158763
0.0165693
0.0166998
0.0171008
0.017548
0.01755
0.00281967
0.00670278
0.00960458
0.00796288
0.00862718
0.0115362
0.0108497
0.0105412
0.0118058
0.0130487
0.0129148
0.0137952
0.0146672
0.0148311
0.0157378
0.0164795
0.0165033
0.016795
0.0172812
0.017276
0.00299284
0.00675828
0.00953636
0.00797896
0.00864861
0.0114776
0.0109324
0.0105245
0.0117473
0.0130768
0.0128894
0.013685
0.0146587
0.0147626
0.0155787
0.0163764
0.0163256
0.0164792
0.0169877
0.0170294
0.00316984
0.00681277
0.00947016
0.00799905
0.00866632
0.0114164
0.0110145
0.0105134
0.0116801
0.0131021
0.012873
0.0135619
0.0146405
0.0147073
0.0154016
0.0162532
0.0161681
0.0161651
0.0166634
0.0167926
0.00335029
0.00686669
0.00940598
0.00802316
0.00868072
0.0113521
0.0110957
0.0105088
0.0116042
0.0131224
0.0128668
0.0134267
0.0146082
0.0146675
0.0152112
0.0161035
0.0160285
0.0158655
0.0163122
0.0165443
0.00353384
0.00692045
0.00934378
0.00805114
0.00869248
0.0112841
0.0111753
0.0105117
0.0115204
0.0131354
0.0128721
0.0132814
0.0145566
0.0146445
0.0150138
0.0159213
0.0159006
0.015592
0.0159447
0.0162668
0.00372001
0.00697448
0.00928375
0.00808272
0.00870226
0.0112121
0.0112523
0.0105229
0.0114292
0.0131386
0.0128896
0.0131289
0.0144803
0.0146373
0.0148172
0.0157031
0.0157754
0.0153535
0.0155748
0.0159525
0.00390828
0.00702916
0.00922622
0.00811748
0.00871092
0.0111359
0.0113258
0.0105428
0.0113318
0.0131291
0.0129197
0.0129734
0.014374
0.0146422
0.0146317
0.0154483
0.0156412
0.0151545
0.0152183
0.0156053
0.00409812
0.00708487
0.00917169
0.00815459
0.00871934
0.0110559
0.0113941
0.0105723
0.0112301
0.0131035
0.0129613
0.0128201
0.0142332
0.0146521
0.0144692
0.0151607
0.0154837
0.0149946
0.0148915
0.0152363
0.004289
0.00714182
0.00912106
0.00819321
0.00872796
0.0109728
0.0114559
0.0106112
0.011126
0.013059
0.0130115
0.0126748
0.0140566
0.0146571
0.0143408
0.0148501
0.0152874
0.0148658
0.0146105
0.0148617
0.00448038
0.00720018
0.00907514
0.00823263
0.00873734
0.0108873
0.0115098
0.0106596
0.0110217
0.0129935
0.013067
0.0125435
0.0138455
0.0146453
0.0142513
0.0145302
0.0150427
0.0147542
0.0143879
0.0145015
0.00467174
0.00725998
0.00903499
0.00827203
0.00874774
0.010801
0.0115537
0.0107163
0.0109203
0.0129055
0.0131226
0.0124325
0.0136036
0.0146046
0.0141997
0.0142157
0.014748
0.0146424
0.0142288
0.0141802
0.00486267
0.0073211
0.00900161
0.00831122
0.00875845
0.0107153
0.0115871
0.0107795
0.0108245
0.0127953
0.0131732
0.012347
0.013337
0.0145213
0.0141796
0.0139242
0.014406
0.0145102
0.0141277
0.013925
0.00505282
0.00738327
0.00897588
0.00835001
0.0087694
0.0106315
0.0116089
0.0108476
0.0107366
0.0126644
0.0132122
0.0122893
0.0130571
0.0143857
0.0141744
0.0136736
0.0140287
0.0143349
0.0140703
0.0137564
0.00524191
0.00744606
0.00895845
0.00838871
0.00877976
0.010551
0.0116196
0.0109179
0.0106584
0.0125155
0.0132346
0.0122569
0.012775
0.0142
0.0141658
0.0134725
0.0136333
0.0140982
0.0140252
0.0136737
0.00542992
0.00750891
0.00894948
0.00842871
0.00878736
0.010474
0.0116201
0.0109882
0.0105915
0.0123502
0.0132375
0.0122489
0.0125004
0.0139664
0.0141435
0.0133299
0.0132556
0.0138121
0.0139617
0.0136347
0.00561672
0.00757139
0.00894887
0.00847099
0.00879186
0.0104006
0.0116108
0.0110568
0.0105368
0.0121727
0.0132161
0.0122605
0.0122464
0.0136928
0.0141048
0.0132577
0.0129267
0.0134714
0.0138155
0.0135511
0.0058024
0.00763294
0.00895593
0.00851743
0.00879242
0.0103291
0.0115952
0.011122
0.0104926
0.0119893
0.0131681
0.0122863
0.0120196
0.0133892
0.0140495
0.0132381
0.0126457
0.0130841
0.0135836
0.0134154
0.00598735
0.00769284
0.00897022
0.00856966
0.00878868
0.0102585
0.0115736
0.0111836
0.0104604
0.0118004
0.0130912
0.0123231
0.0118253
0.0130651
0.01394
0.0132185
0.012384
0.0126466
0.0132687
0.0133159
0.00617151
0.00775112
0.00898973
0.00862917
0.00878181
0.0101851
0.0115467
0.0112438
0.0104384
0.011608
0.0129868
0.0123615
0.0116688
0.0127333
0.0137742
0.0132279
0.0122215
0.0122316
0.012874
0.0131019
0.00635537
0.00780772
0.00901266
0.00869737
0.00877288
0.0101062
0.0115143
0.0113021
0.0104283
0.0114174
0.0128486
0.012395
0.0115571
0.012394
0.01353
0.013214
0.0121263
0.0118488
0.0124169
0.0128335
0.00653903
0.00786294
0.00903698
0.00877403
0.00876517
0.0100202
0.0114733
0.0113601
0.0104335
0.0112273
0.0126772
0.0124174
0.0114824
0.0120564
0.0132242
0.0131558
0.0120789
0.0115486
0.0119568
0.0125108
0.00672234
0.007918
0.00905932
0.00885848
0.00876311
0.00992488
0.011421
0.0114181
0.0104541
0.0110407
0.0124746
0.0124154
0.0114431
0.011744
0.0128722
0.0130383
0.0120606
0.0113425
0.0115422
0.0121283
0.00690534
0.00797336
0.00907847
0.0089491
0.00877091
0.00982164
0.011351
0.0114721
0.0104943
0.0108629
0.0122419
0.0123817
0.0114342
0.0114722
0.0124937
0.0128604
0.0120434
0.0112092
0.0112056
0.0117204
0.0070876
0.00803005
0.00909301
0.00904239
0.00879388
0.00971251
0.0112572
0.0115187
0.0105549
0.0106996
0.0119862
0.0123073
0.0114433
0.0112553
0.0121111
0.0126207
0.0120038
0.0111256
0.0109522
0.0113362
0.00726854
0.00809068
0.009102
0.00916358
0.00883547
0.00960144
0.011136
0.0115514
0.0106337
0.0105605
0.0117159
0.0121878
0.0114575
0.0110925
0.0117414
0.0123303
0.011936
0.0110698
0.0107556
0.0110133
0.00744738
0.00815605
0.00910447
0.00925314
0.00889614
0.00949677
0.0109865
0.0115591
0.0107255
0.0104552
0.0114434
0.012025
0.0114564
0.0109766
0.0114093
0.0120066
0.0118241
0.0110258
0.0105939
0.0107566
0.00762296
0.00822721
0.00910163
0.00933318
0.00897532
0.00940629
0.010812
0.0115312
0.0108217
0.010389
0.011182
0.0118257
0.0114283
0.0108985
0.0111275
0.0116622
0.0116543
0.0109925
0.0104709
0.0105401
0.007794
0.00830486
0.00909631
0.00939948
0.00907007
0.00933679
0.0106182
0.0114594
0.0109067
0.0103615
0.010948
0.0116016
0.011365
0.0108375
0.010896
0.0113281
0.0114331
0.0109487
0.0103879
0.0103428
0.00795951
0.00838882
0.00909166
0.00944948
0.00917343
0.00929486
0.0104178
0.0113395
0.0109648
0.0103689
0.010752
0.0113668
0.0112671
0.0107796
0.0107078
0.0110277
0.0111769
0.0108591
0.0103366
0.0101791
0.00811851
0.00847847
0.00909074
0.00948282
0.00927363
0.00928267
0.0102293
0.011172
0.0109841
0.0103973
0.0105947
0.011137
0.0111424
0.0107178
0.0105485
0.0107588
0.0109119
0.010719
0.0102968
0.0100668
0.00827005
0.0085727
0.00909575
0.00950028
0.00936132
0.00929802
0.0100646
0.0109747
0.010959
0.0104297
0.0104746
0.0109203
0.010996
0.0106472
0.010413
0.010517
0.0106576
0.0105463
0.0102325
0.00999268
0.00841344
0.00866981
0.00910788
0.00950395
0.00943239
0.00933125
0.00992824
0.0107723
0.0108917
0.0104498
0.0103828
0.0107211
0.0108351
0.0105637
0.0103009
0.0103043
0.0104135
0.0103583
0.0101295
0.00992949
0.0085482
0.00876782
0.00912748
0.00949798
0.00948603
0.00937197
0.00982082
0.0105766
0.0107901
0.0104477
0.0103079
0.0105427
0.0106687
0.0104648
0.0102012
0.010124
0.0101811
0.0101656
0.0100034
0.00985239
0.00867403
0.00886442
0.00915477
0.0094874
0.00952242
0.00941295
0.00974
0.010395
0.010666
0.0104225
0.0102413
0.0103824
0.0105032
0.0103548
0.0101041
0.00997385
0.00996996
0.00997115
0.00986803
0.00975374
0.00879088
0.00895786
0.00918919
0.00947593
0.00954275
0.00944962
0.00968016
0.0102313
0.0105286
0.0103749
0.0101792
0.0102375
0.0103397
0.0102389
0.0100084
0.00984556
0.00978614
0.00977618
0.00972666
0.00964718
0.00889899
0.00904666
0.00922911
0.00946615
0.00954927
0.00947847
0.00963541
0.0100863
0.0103858
0.0103066
0.0101175
0.0101096
0.01018
0.0101153
0.00991385
0.00973441
0.00963177
0.00958998
0.00957484
0.00953955
0.0089987
0.0091298
0.00927246
0.00945937
0.00954498
0.00949707
0.00960088
0.00995994
0.0102441
0.0102213
0.0100522
0.00999861
0.0100305
0.00998321
0.00981432
0.0096356
0.00950703
0.00942545
0.00941431
0.00942546
0.00909023
0.00920688
0.00931734
0.0094561
0.00953304
0.00950466
0.00957211
0.00985086
0.0101076
0.0101242
0.00998071
0.0099
0.00989611
0.00985178
0.00970471
0.00953782
0.00940532
0.0092921
0.00925972
0.0092997
0.00917406
0.00927682
0.00936179
0.00945598
0.00951581
0.00950201
0.0095455
0.00975664
0.00997904
0.0100199
0.00990328
0.00980925
0.00977507
0.00973065
0.00959571
0.00943219
0.00931115
0.00918796
0.00912525
0.00916773
0.00925035
0.00934049
0.00940457
0.00945841
0.00949484
0.00948976
0.00951839
0.00967497
0.00986024
0.00991136
0.00982123
0.00972724
0.00966346
0.0096156
0.00950071
0.00932896
0.00921273
0.00910069
0.00901673
0.00904388
0.00931954
0.00939671
0.00944421
0.00946316
0.00947208
0.00946867
0.00948859
0.00960256
0.00975155
0.00980252
0.00973379
0.00965409
0.00956875
0.00950207
0.00941536
0.00924523
0.00911406
0.00901761
0.00892965
0.00893874
0.00938202
0.00944653
0.00947886
0.00946875
0.00944859
0.00943993
0.00945442
0.00953723
0.00965207
0.00969711
0.00964206
0.00958129
0.00949695
0.00940197
0.00933073
0.00918527
0.00903165
0.00893726
0.00885593
0.008853
0.00943802
0.0094888
0.00950839
0.00947384
0.00942493
0.00940532
0.00941412
0.00947519
0.00956032
0.00959776
0.00955249
0.00950289
0.00943711
0.00932837
0.00924978
0.00914099
0.00898031
0.00887159
0.00879696
0.00878735
0.00948786
0.00952619
0.00953161
0.00947672
0.00940053
0.00936643
0.00936812
0.00941251
0.00947247
0.00950357
0.00947072
0.00942523
0.00937791
0.00928202
0.0091882
0.00910317
0.0089599
0.00883643
0.00876259
0.00874855
0.00953154
0.00955815
0.00954914
0.00947688
0.00937577
0.00932224
0.00931607
0.00934855
0.00938531
0.00941104
0.00939508
0.00935526
0.00932048
0.00925248
0.00915755
0.00908059
0.00896528
0.00884091
0.00876535
0.00875067
0.00956897
0.00958447
0.0095604
0.00947286
0.00935031
0.00927561
0.00925439
0.00927729
0.00929921
0.00932
0.00932262
0.00929722
0.00927191
0.0092308
0.00914993
0.00907079
0.00897198
0.00885694
0.00878215
0.00877805
0.00960131
0.00961221
0.00957096
0.00946353
0.00932374
0.00922815
0.0091868
0.00919148
0.00920413
0.00923235
0.00926379
0.00929008
0.0093185
0.0093235
0.00928114
0.00920504
0.00908211
0.00891348
0.00874868
0.00864682
0.00962978
0.00961418
0.00955428
0.00943955
0.00928578
0.00916894
0.0091056
0.00907462
0.00903051
0.009014
0.0090213
0.00907748
0.00922058
0.0093487
0.00941659
0.00948056
0.00955075
0.00963542
0.00972925
0.00981501
0.00965446
0.00966747
0.00959551
0.00945051
0.00927282
0.00912439
0.00904019
0.00902301
0.00902193
0.00907036
0.0091592
0.00922181
0.00930216
0.00939325
0.00939817
0.00933215
0.00920132
0.0090147
0.00880784
0.00863405
0.00963302
0.00959329
0.00954689
0.00943259
0.0092491
0.00908799
0.00898931
0.00896167
0.00897488
0.00902414
0.009099
0.00916808
0.00923312
0.00935757
0.00947587
0.00956995
0.00967733
0.00978738
0.00988498
0.00992128
0.00975428
0.00973841
0.00960599
0.00939489
0.00915258
0.00892835
0.00878311
0.00873104
0.00875564
0.00886622
0.00901403
0.00917748
0.00933195
0.00949274
0.00963488
0.00970647
0.00973769
0.00974185
0.0097162
0.00962967
0.0325236
0.0252663
0.015846
0.00885071
0.00656115
0.00716388
0.00812548
0.00848809
0.00828121
0.00794338
0.00777148
0.00781499
0.0080008
0.00823267
0.00836041
0.00825168
0.00807616
0.0079925
0.00792215
0.00788304
0.00791265
0.00794945
0.00799834
0.00806493
0.00813221
0.00819469
0.00823307
0.00823852
0.00820774
0.00815678
0.0080765
0.00794756
0.00785328
0.00784532
0.00783598
0.00775951
0.00770235
0.00774299
0.00775823
0.00769602
0.00764761
0.007621
0.00762493
0.00770998
0.00778183
0.00778605
0.00771573
0.00749442
0.00711212
0.00681975
0.00677331
0.00689383
0.00710438
0.00727055
0.0072913
0.00727487
0.00724168
0.00713824
0.00705344
0.00702281
0.00697424
0.00687489
0.00680144
0.0067597
0.00671932
0.00671021
0.00668784
0.00664985
0.00659819
0.00656625
0.00654851
0.00653315
0.00652431
0.0064998
0.00648376
0.00647817
0.0065074
0.00647847
0.00643246
0.00637549
0.00636519
0.00640438
0.00644797
0.00644524
0.00637949
0.00632424
0.0062999
0.006338
0.00631209
0.0062872
0.00627958
0.00626545
0.00622593
0.0061929
0.00618628
0.00616732
0.00611411
0.00611895
0.00611039
0.00600643
0.0316511
0.0251161
0.01593
0.00900059
0.00665753
0.00721185
0.00815572
0.00850895
0.00829559
0.00795347
0.00777886
0.00782066
0.00800552
0.00823714
0.00836506
0.00825602
0.0080798
0.00799581
0.00792511
0.00788559
0.00791504
0.00795166
0.00800034
0.00806679
0.00813393
0.00819629
0.00823457
0.00823995
0.00820911
0.00815811
0.00807781
0.00794874
0.00785432
0.0078464
0.00783714
0.0077606
0.00770331
0.00774397
0.00775927
0.00769699
0.00764851
0.00762185
0.00762564
0.00771065
0.00778254
0.00778676
0.00771645
0.00749518
0.00711279
0.00682022
0.00677371
0.00689422
0.00710481
0.00727102
0.00729172
0.00727526
0.00724209
0.00713861
0.00705374
0.00702312
0.00697457
0.00687519
0.0068017
0.00675996
0.00671956
0.00671044
0.00668807
0.00665008
0.00659842
0.00656645
0.00654872
0.00653335
0.00652451
0.00649999
0.00648394
0.00647834
0.00650757
0.00647865
0.00643262
0.00637565
0.00636533
0.00640451
0.0064481
0.00644538
0.00637962
0.00632437
0.00630001
0.00633811
0.0063122
0.0062873
0.00627968
0.00626555
0.00622603
0.00619299
0.00618637
0.00616742
0.00611421
0.00611903
0.00611051
0.00600652
0.0309277
0.0249919
0.0161117
0.00927697
0.00681476
0.00726733
0.00818132
0.00852944
0.00831339
0.00796827
0.00779062
0.00782947
0.00801172
0.00824161
0.00836891
0.0082596
0.00808309
0.00799892
0.0079278
0.00788785
0.00791716
0.00795361
0.00800212
0.00806848
0.00813549
0.00819775
0.00823592
0.00824118
0.00821026
0.00815923
0.00807892
0.00794965
0.00785507
0.00784725
0.00783809
0.00776143
0.00770402
0.00774479
0.00776017
0.00769775
0.00764921
0.00762253
0.00762621
0.00771121
0.00778318
0.00778742
0.00771715
0.00749588
0.00711325
0.00682044
0.00677391
0.00689448
0.0071052
0.00727151
0.00729211
0.00727558
0.00724246
0.00713892
0.00705398
0.00702337
0.00697485
0.00687543
0.0068019
0.00676016
0.00671976
0.00671063
0.00668827
0.00665027
0.00659859
0.00656661
0.00654888
0.0065335
0.00652467
0.00650014
0.00648408
0.00647846
0.00650772
0.0064788
0.00643275
0.00637577
0.00636543
0.00640461
0.00644822
0.00644551
0.00637973
0.00632446
0.0063001
0.0063382
0.0063123
0.00628738
0.00627976
0.00626563
0.00622611
0.00619306
0.00618644
0.0061675
0.00611428
0.00611909
0.00611061
0.00600657
0.0302239
0.0248491
0.0163172
0.00960841
0.00702577
0.00734598
0.00821891
0.00856001
0.00834122
0.00799269
0.0078112
0.0078458
0.00802303
0.00824819
0.00837311
0.00826371
0.00808776
0.00800364
0.00793175
0.00789097
0.0079198
0.00795589
0.00800425
0.0080706
0.00813751
0.00819962
0.00823759
0.00824263
0.00821154
0.00816049
0.00808015
0.00795061
0.00785581
0.00784809
0.00783902
0.00776223
0.0077047
0.00774561
0.00776106
0.0076985
0.00764995
0.0076233
0.00762685
0.00771183
0.0077839
0.00778822
0.007718
0.00749666
0.00711368
0.00682058
0.00677405
0.00689472
0.00710566
0.0072721
0.00729253
0.00727593
0.00724288
0.00713925
0.00705421
0.00702365
0.00697517
0.00687569
0.00680209
0.00676038
0.00671996
0.00671083
0.00668848
0.00665047
0.00659876
0.00656678
0.00654904
0.00653366
0.00652484
0.0065003
0.00648422
0.00647859
0.00650788
0.00647897
0.00643288
0.00637589
0.00636553
0.00640472
0.00644836
0.00644565
0.00637985
0.00632455
0.00630018
0.0063383
0.0063124
0.00628746
0.00627985
0.00626572
0.0062262
0.00619313
0.00618651
0.00616758
0.00611435
0.00611916
0.00611071
0.00600661
0.0295115
0.0246741
0.0165207
0.00995376
0.00725743
0.00743594
0.00826182
0.00859719
0.00837825
0.00802745
0.00784198
0.00787124
0.00804104
0.00825795
0.00837804
0.00826866
0.00809445
0.00801086
0.00793808
0.00789598
0.00792362
0.00795879
0.0080068
0.00807318
0.00814006
0.00820201
0.00823972
0.00824444
0.00821312
0.008162
0.00808159
0.00795175
0.0078567
0.00784901
0.00783997
0.00776307
0.00770546
0.00774647
0.00776188
0.00769917
0.00765072
0.00762419
0.0076276
0.00771255
0.00778478
0.00778924
0.00771905
0.00749755
0.00711415
0.00682072
0.00677417
0.00689496
0.00710621
0.00727283
0.00729303
0.00727634
0.00724338
0.00713964
0.00705447
0.00702396
0.00697555
0.00687599
0.0068023
0.00676061
0.00672018
0.00671106
0.00668872
0.00665069
0.00659896
0.00656695
0.00654923
0.00653384
0.00652502
0.00650047
0.00648437
0.00647873
0.00650806
0.00647915
0.00643301
0.00637601
0.00636563
0.00640484
0.00644851
0.00644581
0.00637997
0.00632464
0.00630027
0.00633842
0.00631252
0.00628754
0.00627994
0.00626582
0.00622629
0.0061932
0.00618659
0.00616767
0.00611443
0.00611922
0.00611082
0.00600664
0.0287926
0.0244685
0.0167175
0.0103006
0.00749823
0.00753059
0.00830466
0.00863616
0.00842029
0.00806888
0.00787986
0.00790349
0.00806441
0.00827042
0.00838372
0.00827465
0.00810334
0.0080208
0.0079472
0.00790352
0.00792929
0.0079628
0.00800994
0.00807613
0.00814295
0.00820473
0.00824218
0.00824655
0.00821501
0.00816384
0.0080833
0.00795313
0.00785783
0.00785006
0.00784101
0.00776411
0.0077065
0.00774745
0.00776259
0.00769969
0.00765144
0.00762517
0.00762843
0.00771331
0.00778581
0.00779056
0.00772035
0.00749859
0.00711473
0.00682095
0.00677431
0.0068952
0.00710686
0.00727367
0.00729358
0.0072768
0.00724397
0.0071401
0.0070548
0.00702435
0.00697601
0.00687636
0.00680256
0.00676089
0.00672045
0.00671133
0.00668898
0.00665093
0.00659917
0.00656715
0.00654942
0.00653402
0.00652522
0.00650065
0.00648453
0.00647888
0.00650826
0.00647935
0.00643314
0.00637615
0.00636575
0.00640497
0.00644867
0.00644599
0.0063801
0.00632474
0.00630036
0.00633854
0.00631265
0.00628763
0.00628004
0.00626592
0.00622638
0.00619327
0.00618668
0.00616775
0.00611452
0.00611928
0.00611092
0.00600666
0.0280714
0.0242356
0.0169055
0.0106451
0.00774572
0.00762939
0.00834698
0.00867571
0.00846543
0.00811437
0.00792185
0.00793961
0.00809082
0.0082844
0.00838989
0.0082816
0.00811408
0.00803298
0.00795875
0.00791352
0.00793709
0.00796837
0.00801396
0.00807945
0.00814592
0.00820741
0.00824463
0.00824871
0.00821705
0.00816594
0.00808528
0.00795481
0.00785921
0.00785121
0.00784215
0.00776554
0.00770808
0.00774879
0.00776336
0.00770013
0.00765211
0.00762617
0.00762918
0.00771388
0.00778685
0.00779216
0.00772194
0.00749987
0.00711559
0.00682145
0.00677456
0.00689547
0.0071076
0.0072746
0.00729415
0.00727732
0.00724466
0.00714067
0.00705521
0.00702483
0.00697658
0.00687683
0.00680289
0.00676124
0.0067208
0.00671167
0.00668929
0.00665121
0.00659941
0.00656737
0.00654964
0.00653423
0.00652545
0.00650084
0.0064847
0.00647905
0.00650849
0.00647955
0.00643327
0.00637629
0.00636588
0.00640512
0.00644886
0.00644619
0.00638024
0.00632484
0.00630047
0.00633868
0.0063128
0.00628774
0.00628016
0.00626604
0.00622649
0.00619335
0.00618676
0.00616783
0.00611462
0.00611932
0.00611099
0.00600667
0.0273556
0.0239774
0.0170803
0.0109841
0.00799943
0.00773376
0.00838964
0.00871557
0.00851292
0.00816288
0.00796664
0.00797813
0.00811907
0.00829939
0.0083965
0.00828925
0.00812608
0.00804665
0.00797191
0.00792527
0.00794671
0.00797553
0.00801906
0.00808326
0.00814889
0.00820979
0.00824675
0.00825061
0.00821894
0.00816806
0.00808744
0.00795679
0.00786082
0.00785231
0.00784324
0.00776738
0.00771042
0.00775075
0.00776452
0.00770082
0.00765296
0.00762726
0.00762974
0.00771396
0.0077876
0.00779381
0.00772362
0.00750132
0.00711689
0.00682247
0.00677512
0.00689589
0.00710846
0.00727555
0.00729468
0.00727785
0.00724542
0.00714133
0.0070557
0.00702541
0.0069773
0.00687744
0.00680334
0.0067617
0.00672127
0.0067121
0.00668968
0.00665157
0.00659971
0.00656764
0.0065499
0.00653448
0.0065257
0.00650106
0.0064849
0.00647924
0.00650874
0.00647977
0.0064334
0.00637645
0.00636603
0.00640529
0.00644906
0.0064464
0.00638038
0.00632496
0.00630059
0.00633884
0.00631296
0.00628786
0.00628029
0.00626618
0.0062266
0.00619344
0.00618686
0.0061679
0.00611474
0.00611935
0.00611101
0.00600666
0.0266511
0.0236916
0.0172368
0.0113165
0.00826051
0.00784569
0.00843348
0.00875527
0.00856209
0.00821394
0.00801365
0.00801845
0.00814881
0.00831538
0.00840364
0.00829739
0.00813888
0.00806129
0.00798607
0.00793815
0.00795763
0.00798401
0.00802518
0.00808763
0.0081519
0.00821181
0.00824844
0.00825212
0.00822052
0.00816997
0.00808956
0.00795899
0.00786266
0.00785327
0.00784403
0.00776939
0.00771346
0.00775343
0.00776625
0.00770208
0.00765436
0.00762876
0.00763019
0.00771338
0.00778772
0.00779511
0.00772499
0.00750261
0.0071185
0.00682415
0.00677627
0.00689675
0.00710961
0.00727655
0.00729508
0.00727827
0.00724619
0.00714205
0.00705625
0.00702608
0.00697818
0.00687824
0.00680394
0.00676232
0.00672192
0.00671268
0.00669019
0.00665204
0.00660011
0.00656798
0.00655022
0.00653478
0.00652601
0.00650131
0.00648513
0.00647948
0.00650903
0.00647999
0.00643351
0.00637662
0.00636622
0.00640548
0.00644927
0.00644661
0.00638054
0.00632509
0.00630073
0.00633902
0.00631315
0.006288
0.00628044
0.00626634
0.00622674
0.00619354
0.00618696
0.00616797
0.00611488
0.00611937
0.00611096
0.00600664
0.0259613
0.0233767
0.0173722
0.0116429
0.00853032
0.00796684
0.00847899
0.00879403
0.0086121
0.00826704
0.0080625
0.00806029
0.00817998
0.00833249
0.00841139
0.00830596
0.00815223
0.00807662
0.00800097
0.00795184
0.00796951
0.00799353
0.00803219
0.00809255
0.00815503
0.00821358
0.00824973
0.00825327
0.00822179
0.00817159
0.00809149
0.00796124
0.00786473
0.00785412
0.00784434
0.00777122
0.00771693
0.00775673
0.00776851
0.00770395
0.00765653
0.00763099
0.0076308
0.00771221
0.00778702
0.00779568
0.00772556
0.00750318
0.00711995
0.00682624
0.00677808
0.0068984
0.00711147
0.00727781
0.00729531
0.00727844
0.00724683
0.00714275
0.00705677
0.00702673
0.00697915
0.0068792
0.0068047
0.00676312
0.00672277
0.00671346
0.00669088
0.0066527
0.00660066
0.00656844
0.00655063
0.00653517
0.00652638
0.00650161
0.00648541
0.00647979
0.00650939
0.00648024
0.0064336
0.00637679
0.00636643
0.0064057
0.00644951
0.00644685
0.0063807
0.00632523
0.00630089
0.0063392
0.00631334
0.00628817
0.00628061
0.00626653
0.0062269
0.00619366
0.00618709
0.00616802
0.00611506
0.00611937
0.00611083
0.00600659
0.0252887
0.0230332
0.0174854
0.0119637
0.00880895
0.00809827
0.00852651
0.00883115
0.00866205
0.00832175
0.00811302
0.00810358
0.00821254
0.00835075
0.00841988
0.008315
0.00816613
0.00809262
0.00801658
0.00796628
0.00798221
0.00800397
0.00804005
0.00809808
0.0081584
0.00821522
0.00825074
0.00825415
0.00822282
0.00817298
0.00809319
0.0079634
0.00786692
0.00785497
0.0078442
0.00777261
0.0077205
0.00776048
0.00777114
0.00770621
0.00765936
0.00763406
0.00763178
0.00771059
0.00778543
0.00779529
0.00772503
0.00750259
0.00712062
0.00682811
0.00678016
0.00690086
0.00711444
0.00727977
0.00729556
0.00727828
0.00724716
0.00714328
0.00705717
0.00702727
0.0069801
0.00688023
0.00680558
0.0067641
0.00672384
0.00671443
0.00669176
0.00665359
0.00660145
0.00656909
0.00655116
0.00653566
0.00652685
0.00650198
0.00648574
0.00648017
0.00650985
0.00648055
0.00643369
0.00637695
0.00636665
0.00640592
0.00644977
0.00644709
0.00638087
0.00632538
0.00630105
0.00633938
0.00631355
0.00628835
0.0062808
0.00626676
0.00622709
0.00619381
0.00618726
0.00616807
0.0061153
0.00611936
0.00611058
0.00600652
0.0246361
0.0226644
0.0175759
0.0122776
0.00909483
0.00824057
0.00857691
0.00886636
0.00871132
0.00837792
0.00816538
0.00814843
0.0082465
0.0083702
0.00842919
0.00832464
0.00818068
0.0081094
0.00803297
0.00798145
0.00799569
0.00801526
0.00804875
0.00810428
0.00816215
0.00821689
0.00825158
0.00825481
0.00822365
0.00817417
0.00809464
0.00796537
0.00786917
0.00785591
0.00784372
0.0077735
0.00772391
0.00776452
0.00777401
0.00770859
0.00766252
0.00763774
0.00763312
0.00770858
0.00778288
0.0077938
0.00772326
0.00750062
0.00712005
0.00682905
0.00678175
0.00690363
0.0071185
0.00728279
0.00729613
0.00727784
0.00724708
0.00714351
0.00705739
0.00702764
0.00698092
0.0068812
0.00680647
0.0067652