/*--------------------------------*- C++ -*----------------------------------*\
| =========                 |                                                 |
| \\      /  F ield         | OpenFOAM: The Open Source CFD Toolbox           |
|  \\    /   O peration     | Version:  v1912                                 |
|   \\  /    A nd           | Website:  www.openfoam.com                      |
|    \\/     M anipulation  |                                                 |
\*---------------------------------------------------------------------------*/
FoamFile
{
    version     2.0;
    format      ascii;
    class       volScalarField;
    location    "5.45";
    object      p;
}
// * * * * * * * * * * * * * * * * * * * * * * * * * * * * * * * * * * * * * //

dimensions      [0 2 -2 0 0 0 0];


internalField   nonuniform List<scalar> 
9600
(
-3.67591e-12
0.00239679
0.00992866
0.00983944
-0.00413864
-0.00664731
-0.00255133
0.00032327
0.00371571
-0.00350771
-0.0076661
-0.00915878
-0.0116675
-0.0135235
-0.0146569
-0.0166012
-0.0174739
-0.0167624
-0.0166156
-0.014787
8.32562e-07
0.00240688
0.00979436
0.00979377
-0.00408134
-0.00667088
-0.00255884
0.000357242
0.00348983
-0.00348833
-0.00765311
-0.00916848
-0.0116677
-0.0135393
-0.0146441
-0.0166018
-0.0174175
-0.0167778
-0.0165983
-0.0150372
3.13047e-06
0.0024197
0.00965633
0.00973791
-0.00399921
-0.00669992
-0.00254866
0.000399998
0.0032748
-0.00346617
-0.00764567
-0.0091982
-0.0116678
-0.0135561
-0.0146284
-0.0165891
-0.0173606
-0.0168125
-0.0166018
-0.015318
7.31092e-06
0.00243054
0.00950895
0.009665
-0.00393943
-0.00670034
-0.0025177
0.000428016
0.00304517
-0.00345964
-0.00764304
-0.00924351
-0.0116696
-0.0135649
-0.0146176
-0.0165587
-0.0173101
-0.0168564
-0.0166248
-0.0155876
1.44168e-05
0.00243885
0.00935055
0.00956867
-0.00389934
-0.00666144
-0.00246656
0.000430382
0.00279678
-0.00346565
-0.00763655
-0.00930082
-0.0116741
-0.013568
-0.0146068
-0.016523
-0.0172622
-0.0169003
-0.0166662
-0.015844
2.50653e-05
0.00244419
0.00918053
0.00944516
-0.0038659
-0.00657789
-0.00240191
0.000399537
0.00252893
-0.00347939
-0.00762512
-0.0093659
-0.0116791
-0.0135683
-0.0145938
-0.0164879
-0.0172145
-0.016943
-0.0167244
-0.0160825
3.92742e-05
0.0024459
0.00899922
0.00929492
-0.00383028
-0.00645766
-0.00233935
0.000336145
0.00224513
-0.00349933
-0.00760989
-0.0094306
-0.011681
-0.0135689
-0.0145796
-0.0164556
-0.0171695
-0.0169837
-0.016795
-0.0163039
5.64321e-05
0.00244365
0.00880776
0.00912156
-0.00378796
-0.00631697
-0.00229275
0.000247647
0.00195077
-0.00352513
-0.00759174
-0.00948985
-0.0116794
-0.0135728
-0.0145644
-0.0164268
-0.0171301
-0.0170193
-0.0168768
-0.0165149
7.55519e-05
0.00243743
0.0086076
0.00892986
-0.00373732
-0.0061695
-0.00226609
0.000142888
0.00164969
-0.00355625
-0.00757193
-0.00954401
-0.0116763
-0.0135812
-0.0145478
-0.0164017
-0.0170974
-0.0170492
-0.0169728
-0.0167196
9.56282e-05
0.00242738
0.00839999
0.00872421
-0.00367922
-0.00602252
-0.0022559
2.88647e-05
0.00134375
-0.00359226
-0.00755199
-0.00959605
-0.0116737
-0.0135933
-0.0145306
-0.0163795
-0.0170727
-0.0170745
-0.0170832
-0.0169194
0.000115894
0.00241367
0.0081858
0.00850776
-0.00361569
-0.00587863
-0.00225551
-9.07991e-05
0.00103365
-0.00363319
-0.0075332
-0.00964848
-0.0116722
-0.0136081
-0.0145138
-0.0163593
-0.0170574
-0.0170959
-0.0172057
-0.0171168
0.000135879
0.00239642
0.00796552
0.00828232
-0.00354858
-0.00573849
-0.00225941
-0.000214847
0.00071949
-0.00367937
-0.0075161
-0.00970275
-0.0116723
-0.0136246
-0.0144985
-0.0163398
-0.0170528
-0.0171137
-0.0173377
-0.0173155
0.000155349
0.0023757
0.00773941
0.00804865
-0.00347892
-0.00560252
-0.00226469
-0.000342932
0.000401296
-0.00373126
-0.00750083
-0.00975983
-0.011674
-0.0136421
-0.0144856
-0.0163193
-0.0170594
-0.0171293
-0.017476
-0.017519
0.000174191
0.0023515
0.00750759
0.00780703
-0.00340715
-0.00547142
-0.00227055
-0.000474815
7.92037e-05
-0.00378942
-0.00748741
-0.00982047
-0.0116775
-0.0136595
-0.0144756
-0.0162963
-0.0170779
-0.0171446
-0.0176169
-0.0177295
0.000192342
0.00232375
0.00727019
0.00755762
-0.00333346
-0.00534595
-0.00227716
-0.000610158
-0.000246601
-0.00385445
-0.00747583
-0.00988513
-0.0116831
-0.0136758
-0.0144695
-0.0162701
-0.017108
-0.0171622
-0.0177562
-0.0179481
0.000209748
0.00229235
0.00702738
0.00730065
-0.00325805
-0.00522671
-0.00228505
-0.000748558
-0.000575858
-0.00392689
-0.00746601
-0.0099539
-0.0116912
-0.0136901
-0.0144681
-0.0162402
-0.0171486
-0.0171852
-0.0178898
-0.0181746
0.000226341
0.00225715
0.00677937
0.00703646
-0.00318111
-0.0051142
-0.00229488
-0.000889555
-0.000908188
-0.00400731
-0.00745794
-0.0100265
-0.0117022
-0.0137018
-0.0144726
-0.016207
-0.0171981
-0.0172168
-0.0180144
-0.0184074
0.000242027
0.00221796
0.00652637
0.0067654
-0.00310291
-0.00500881
-0.00230751
-0.00103267
-0.00124311
-0.00409624
-0.00745167
-0.0101025
-0.0117166
-0.0137105
-0.0144832
-0.0161712
-0.0172549
-0.0172598
-0.0181271
-0.0186441
0.000256666
0.00217458
0.0062686
0.00648787
-0.00302376
-0.00491087
-0.0023236
-0.00117737
-0.0015801
-0.00419422
-0.00744726
-0.0101813
-0.0117351
-0.013716
-0.0145005
-0.0161342
-0.0173171
-0.017316
-0.0182261
-0.018881
0.000270052
0.00212673
0.00600628
0.00620421
-0.0029441
-0.00482063
-0.00234408
-0.00132318
-0.00191861
-0.00430174
-0.00744484
-0.0102627
-0.011758
-0.0137181
-0.0145245
-0.0160973
-0.0173827
-0.0173869
-0.0183105
-0.0191139
0.00028191
0.00207414
0.00573959
0.00591473
-0.00286443
-0.00473823
-0.00236976
-0.00146976
-0.00225792
-0.00441927
-0.00744461
-0.0103463
-0.0117859
-0.0137172
-0.0145556
-0.0160617
-0.0174497
-0.0174736
-0.0183807
-0.0193375
0.000291899
0.00201656
0.00546869
0.0056197
-0.00278539
-0.0046638
-0.00240148
-0.00161678
-0.00259728
-0.00454735
-0.00744666
-0.010432
-0.0118194
-0.0137133
-0.0145941
-0.0160289
-0.0175158
-0.0175769
-0.0184383
-0.0195457
0.000299627
0.00195377
0.00519369
0.00531935
-0.00270764
-0.00459745
-0.00244012
-0.00176388
-0.00293596
-0.00468656
-0.00745102
-0.0105198
-0.0118593
-0.0137063
-0.0146403
-0.0160001
-0.0175785
-0.0176981
-0.0184863
-0.0197303
0.000304658
0.00188562
0.00491468
0.0050139
-0.00263192
-0.00453925
-0.0024866
-0.00191079
-0.00327309
-0.00483751
-0.00745781
-0.01061
-0.0119061
-0.0136957
-0.0146947
-0.0159767
-0.0176343
-0.0178382
-0.0185304
-0.0198825
0.000306532
0.00181199
0.00463172
0.0047036
-0.00255905
-0.00448913
-0.00254188
-0.0020574
-0.00360764
-0.00500094
-0.00746703
-0.0107025
-0.0119609
-0.0136807
-0.0147579
-0.0159615
-0.0176791
-0.0179961
-0.0185786
-0.0199946
0.000304763
0.00173284
0.00434483
0.00438877
-0.00248993
-0.00444695
-0.00260685
-0.00220374
-0.00393851
-0.00517768
-0.00747866
-0.0107968
-0.0120253
-0.0136605
-0.0148294
-0.0159581
-0.0177085
-0.0181675
-0.0186413
-0.0200625
0.000298812
0.00164815
0.00405406
0.00406969
-0.00242544
-0.00441254
-0.00268239
-0.00234998
-0.0042645
-0.00536849
-0.00749289
-0.010892
-0.0121011
-0.0136345
-0.0149074
-0.0159708
-0.017719
-0.0183451
-0.0187308
-0.02009
0.000288099
0.00155793
0.00375947
0.00374669
-0.00236657
-0.00438571
-0.00276928
-0.00249648
-0.00458429
-0.00557404
-0.00751019
-0.010987
-0.0121905
-0.0136024
-0.0149883
-0.0160052
-0.0177101
-0.0185191
-0.0188574
-0.0200909
0.000272029
0.00146223
0.00346109
0.00342009
-0.00231429
-0.00436633
-0.00286808
-0.00264378
-0.00489649
-0.0057949
-0.00753134
-0.0110798
-0.0122959
-0.0135653
-0.0150675
-0.0160662
-0.0176855
-0.0186769
-0.019024
-0.0200848
0.000249963
0.00136112
0.00315897
0.00309017
-0.00226955
-0.00435437
-0.00297919
-0.00279255
-0.00519974
-0.00603143
-0.00755758
-0.0111681
-0.0124197
-0.0135257
-0.0151388
-0.0161573
-0.0176537
-0.018804
-0.0192224
-0.0200984
0.000221224
0.00125469
0.00285323
0.00275732
-0.00223336
-0.00434994
-0.00310273
-0.00294366
-0.00549261
-0.00628375
-0.00759064
-0.0112492
-0.0125636
-0.0134875
-0.0151955
-0.0162793
-0.017626
-0.0188883
-0.0194369
-0.0201585
0.000185109
0.00114306
0.00254402
0.00242187
-0.00220671
-0.0043531
-0.00323859
-0.0030981
-0.00577394
-0.00655165
-0.00763273
-0.0113204
-0.0127283
-0.0134568
-0.0152308
-0.0164279
-0.0176166
-0.0189261
-0.0196476
-0.020279
0.000140905
0.00102637
0.00223157
0.00208403
-0.00219043
-0.00436399
-0.00338657
-0.00325694
-0.00604295
-0.00683426
-0.00768621
-0.0113795
-0.0129134
-0.013441
-0.0152389
-0.016595
-0.0176398
-0.0189233
-0.0198297
-0.0204537
8.78707e-05
0.000904724
0.00191623
0.001744
-0.00218523
-0.00438283
-0.00354643
-0.00342109
-0.00629899
-0.00713028
-0.00775397
-0.0114244
-0.0131162
-0.0134485
-0.0152171
-0.0167705
-0.0177072
-0.018893
-0.0199599
-0.0206602
2.52417e-05
0.000778193
0.00159842
0.00140296
-0.0021918
-0.00440985
-0.00371778
-0.00359149
-0.00654156
-0.00743806
-0.00783942
-0.0114541
-0.0133324
-0.0134873
-0.0151668
-0.0169419
-0.0178244
-0.0188526
-0.0200255
-0.0208699
-4.77105e-05
0.000646758
0.00127868
0.00105887
-0.00221063
-0.00444529
-0.00390044
-0.00376889
-0.00677054
-0.00775565
-0.00794577
-0.0114685
-0.0135566
-0.0135653
-0.0150931
-0.0170943
-0.0179902
-0.0188229
-0.0200285
-0.0210491
-0.000131709
0.000510384
0.000957778
0.000712289
-0.00224216
-0.00448929
-0.00409436
-0.00395386
-0.00698597
-0.0080811
-0.00807659
-0.0114677
-0.0137817
-0.0136891
-0.0150056
-0.0172122
-0.0181982
-0.0188237
-0.0199796
-0.0211692
-0.000227491
0.000368882
0.000636951
0.000362384
-0.00228724
-0.00454165
-0.00429925
-0.00414721
-0.00718803
-0.00841171
-0.0082356
-0.0114545
-0.0139995
-0.013862
-0.014917
-0.0172807
-0.018437
-0.0188745
-0.0198943
-0.0212141
-0.000335694
0.000221852
0.000317548
8.59329e-06
-0.00234655
-0.00460198
-0.00451524
-0.00434945
-0.00737684
-0.00874515
-0.00842551
-0.011433
-0.0142025
-0.0140826
-0.0148432
-0.0172906
-0.0186881
-0.0189885
-0.0197944
-0.0211821
-0.000456892
6.88628e-05
1.05107e-06
-0.000349853
-0.00242127
-0.0046693
-0.00474234
-0.00456185
-0.0075522
-0.00907908
-0.00864922
-0.0114073
-0.0143832
-0.0143473
-0.0147993
-0.017244
-0.01893
-0.0191659
-0.0197031
-0.0210783
-0.00059156
-9.07512e-05
-0.000310893
-0.000713598
-0.00251263
-0.00474243
-0.00498042
-0.00478648
-0.00771415
-0.00940929
-0.00890981
-0.0113842
-0.0145318
-0.014649
-0.0148018
-0.0171492
-0.0191408
-0.0194017
-0.0196418
-0.0209082
-0.000739938
-0.000257855
-0.000616665
-0.0010833
-0.00262199
-0.0048194
-0.00522916
-0.00502556
-0.00786406
-0.00973238
-0.00920675
-0.0113731
-0.0146405
-0.0149726
-0.0148697
-0.0170274
-0.019294
-0.0196854
-0.0196362
-0.0206829
-0.000902256
-0.000433511
-0.000914436
-0.00145925
-0.0027519
-0.00489811
-0.00548688
-0.0052821
-0.00800369
-0.010045
-0.00953776
-0.0113805
-0.014709
-0.015303
-0.0150067
-0.0169066
-0.0193691
-0.0199942
-0.0197253
-0.0204292
-0.00107823
-0.000619062
-0.00120264
-0.00184093
-0.00290579
-0.00497712
-0.00575096
-0.00556036
-0.00813562
-0.0103415
-0.00990104
-0.0114141
-0.0147363
-0.0156253
-0.0152082
-0.0168053
-0.0193566
-0.020262
-0.0199028
-0.0202608
-0.00126762
-0.00081572
-0.00148041
-0.00222752
-0.0030876
-0.00505593
-0.00601719
-0.00586294
-0.00826519
-0.0106149
-0.0102881
-0.0114849
-0.0147277
-0.0159155
-0.0154627
-0.0167267
-0.0192764
-0.0204759
-0.0201712
-0.0202503
-0.00146988
-0.0010249
-0.00174803
-0.00261604
-0.0033008
-0.0051364
-0.00627795
-0.00619057
-0.00839972
-0.0108597
-0.0106904
-0.0115992
-0.0146929
-0.0161654
-0.015757
-0.0166772
-0.0191583
-0.020644
-0.0205016
-0.0203928
-0.00168403
-0.00124806
-0.00200647
-0.00300337
-0.00354841
-0.00522112
-0.00652614
-0.00654192
-0.00854592
-0.0110745
-0.0111001
-0.0117589
-0.0146431
-0.0163731
-0.0160837
-0.0167027
-0.0190402
-0.0207877
-0.0208601
-0.0205919
-0.00190963
-0.00148626
-0.00225775
-0.00338363
-0.00383179
-0.00531741
-0.00675613
-0.00691016
-0.00871455
-0.0112638
-0.011501
-0.0119675
-0.0145975
-0.0165274
-0.0164175
-0.0168002
-0.0189132
-0.020843
-0.0211991
-0.0209302
-0.00214537
-0.00174044
-0.00250489
-0.00375184
-0.00415051
-0.00543528
-0.0069632
-0.00728676
-0.00891284
-0.0114288
-0.0118844
-0.0122269
-0.0145665
-0.0166318
-0.0167614
-0.0169887
-0.0188098
-0.0208317
-0.0214903
-0.0212897
-0.0023905
-0.00201108
-0.00275127
-0.00410414
-0.00450124
-0.00558523
-0.00714921
-0.00765955
-0.0091403
-0.0115797
-0.0122479
-0.0125265
-0.0145652
-0.0167029
-0.0170991
-0.0172398
-0.0187589
-0.0207753
-0.0216771
-0.0216293
-0.00264438
-0.00229782
-0.00300152
-0.00443755
-0.00487815
-0.00577529
-0.00731759
-0.00801622
-0.00939638
-0.0117296
-0.012588
-0.0128551
-0.0146073
-0.0167461
-0.0174035
-0.0175383
-0.0187714
-0.0206903
-0.0217751
-0.0219045
-0.00290592
-0.00260045
-0.00325976
-0.00475104
-0.00527183
-0.00601026
-0.00748107
-0.00834984
-0.00967496
-0.0118858
-0.0129059
-0.0132049
-0.014697
-0.0167685
-0.017665
-0.017865
-0.0188427
-0.0206003
-0.0218153
-0.0221057
-0.00317455
-0.00291787
-0.00353004
-0.00504497
-0.00567106
-0.00629376
-0.00765457
-0.00865649
-0.00996521
-0.0120547
-0.0132035
-0.0135639
-0.0148336
-0.0167862
-0.0178743
-0.0181921
-0.0189792
-0.0205311
-0.0218182
-0.0222524
-0.0034498
-0.00324827
-0.00381578
-0.00532139
-0.00606592
-0.00662305
-0.00785205
-0.00893912
-0.0102568
-0.0122372
-0.0134829
-0.0139244
-0.0150127
-0.0168118
-0.0180351
-0.0185014
-0.0191729
-0.0204986
-0.0217903
-0.0223634
-0.00373153
-0.00358955
-0.00411833
-0.00558507
-0.00644965
-0.00699225
-0.00808467
-0.00920439
-0.0105403
-0.0124311
-0.0137483
-0.0142796
-0.0152276
-0.0168582
-0.0181599
-0.0187744
-0.0193995
-0.0205226
-0.0217503
-0.0224411
-0.00401963
-0.0039394
-0.00443842
-0.00584325
-0.00681767
-0.0073887
-0.00835859
-0.00946697
-0.0108134
-0.0126298
-0.0139984
-0.0146244
-0.0154739
-0.0169341
-0.0182616
-0.0190045
-0.0196353
-0.0206079
-0.0217192
-0.0224746
-0.00431427
-0.00429485
-0.00477559
-0.00610403
-0.00716607
-0.00779676
-0.00867742
-0.00974387
-0.0110759
-0.0128254
-0.0142325
-0.0149564
-0.0157454
-0.0170432
-0.0183531
-0.0191973
-0.0198561
-0.0207323
-0.0217239
-0.0224819
-0.0046166
-0.0046532
-0.00512813
-0.00637589
-0.00749478
-0.00820121
-0.00903795
-0.0100474
-0.0113342
-0.0130168
-0.0144494
-0.0152696
-0.0160328
-0.0171874
-0.0184459
-0.0193636
-0.0200543
-0.0208719
-0.0217765
-0.0224924
-0.00492692
-0.00501373
-0.00549293
-0.0066636
-0.00780774
-0.00859227
-0.00942543
-0.0103824
-0.0116017
-0.0132039
-0.0146487
-0.0155599
-0.0163275
-0.0173654
-0.0185481
-0.0195124
-0.020239
-0.0210087
-0.0218539
-0.0225229
-0.00524562
-0.00537563
-0.00586701
-0.00696819
-0.00811653
-0.0089689
-0.00981701
-0.0107438
-0.0118884
-0.0133942
-0.0148341
-0.0158259
-0.0166193
-0.0175719
-0.0186679
-0.0196471
-0.0204134
-0.0211408
-0.0219343
-0.0225827
-0.00557298
-0.00573874
-0.00624731
-0.00728885
-0.00842797
-0.00933212
-0.0102016
-0.0111183
-0.0121978
-0.0136003
-0.0150107
-0.0160666
-0.0168991
-0.0177979
-0.0188125
-0.0197721
-0.0205748
-0.0212816
-0.0220145
-0.0226518
-0.00590889
-0.00610329
-0.00663058
-0.0076238
-0.00874448
-0.00968559
-0.0105766
-0.0114934
-0.0125262
-0.0138294
-0.0151871
-0.0162858
-0.0171603
-0.0180304
-0.0189808
-0.0199006
-0.0207196
-0.0214323
-0.0221028
-0.0227117
-0.00625295
-0.00646927
-0.00701464
-0.00797043
-0.00906726
-0.0100329
-0.0109415
-0.0118627
-0.0128669
-0.0140819
-0.0153729
-0.0164897
-0.0174021
-0.0182574
-0.0191633
-0.020045
-0.02085
-0.0215777
-0.0222116
-0.0227714
-0.00660432
-0.00683665
-0.00739796
-0.00832556
-0.00939639
-0.0103764
-0.0112974
-0.0122237
-0.0132106
-0.0143531
-0.0155727
-0.0166848
-0.0176284
-0.0184765
-0.0193472
-0.0202045
-0.0209796
-0.021706
-0.0223368
-0.0228472
-0.0069617
-0.00720515
-0.00777937
-0.00868629
-0.00973122
-0.0107174
-0.0116459
-0.0125752
-0.0135513
-0.0146378
-0.0157887
-0.0168767
-0.0178395
-0.0186901
-0.0195269
-0.0203681
-0.0211221
-0.0218214
-0.0224583
-0.0229444
-0.00732351
-0.00757428
-0.00815794
-0.00904983
-0.0100707
-0.0110565
-0.0119883
-0.0129172
-0.0138848
-0.0149296
-0.01602
-0.0170719
-0.0180367
-0.0188964
-0.0197058
-0.0205246
-0.021274
-0.0219383
-0.0225639
-0.0230518
-0.00768808
-0.00794313
-0.00853281
-0.0094137
-0.0104133
-0.0113936
-0.0123251
-0.013251
-0.0142089
-0.0152205
-0.0162613
-0.0172753
-0.0182262
-0.0190907
-0.0198857
-0.0206748
-0.0214234
-0.0220665
-0.0226592
-0.0231507
-0.00805355
-0.00831045
-0.008903
-0.00977593
-0.0107569
-0.011728
-0.0126557
-0.0135773
-0.0145249
-0.0155069
-0.0165057
-0.0174838
-0.0184143
-0.0192733
-0.0200621
-0.0208252
-0.021563
-0.0222027
-0.0227591
-0.0232371
-0.00841766
-0.00867482
-0.00926737
-0.0101343
-0.0110995
-0.0120593
-0.0129798
-0.0138951
-0.0148319
-0.015789
-0.0167506
-0.0176911
-0.0186001
-0.0194483
-0.0202291
-0.0209744
-0.0216928
-0.0223357
-0.0228718
-0.0233225
-0.00877792
-0.00903466
-0.0096247
-0.0104865
-0.0114387
-0.0123867
-0.0132972
-0.0142041
-0.0151287
-0.0160645
-0.0169952
-0.0178967
-0.0187786
-0.019615
-0.0203841
-0.0211178
-0.0218166
-0.0224559
-0.0229882
-0.0234135
-0.00913163
-0.00938783
-0.00997357
-0.0108304
-0.0117723
-0.0127081
-0.013608
-0.0145046
-0.0154148
-0.016331
-0.0172357
-0.0181011
-0.0189501
-0.0197698
-0.0205242
-0.0212469
-0.0219345
-0.0225629
-0.023097
-0.023509
-0.00947556
-0.00973187
-0.0103123
-0.0111641
-0.0120981
-0.0130221
-0.0139107
-0.0147966
-0.0156905
-0.0165874
-0.0174688
-0.0183015
-0.0191162
-0.0199139
-0.0206495
-0.021354
-0.0220349
-0.0226541
-0.0231869
-0.0235971
-0.00980642
-0.0100635
-0.0106392
-0.0114846
-0.0124124
-0.013328
-0.0142058
-0.0150785
-0.0159567
-0.0168329
-0.0176905
-0.018495
-0.0192752
-0.0200463
-0.0207616
-0.0214411
-0.0221093
-0.0227208
-0.0232464
-0.0236568
-0.0101207
-0.0103796
-0.010952
-0.0117903
-0.0127119
-0.0136212
-0.0144932
-0.0153516
-0.0162125
-0.0170694
-0.0178991
-0.0186761
-0.0194207
-0.020161
-0.0208591
-0.0215106
-0.0221585
-0.022761
-0.0232763
-0.0236784
-0.0104148
-0.0106758
-0.0112471
-0.0120796
-0.0129958
-0.0138997
-0.0147701
-0.0156182
-0.0164586
-0.0172959
-0.0180953
-0.0188372
-0.0195426
-0.0202442
-0.0209273
-0.0215599
-0.0221923
-0.0227942
-0.023308
-0.0237025
-0.0106823
-0.0109471
-0.0115212
-0.0123489
-0.0132614
-0.0141642
-0.0150339
-0.0158799
-0.0167096
-0.0175207
-0.0182806
-0.0189699
-0.0195974
-0.0202174
-0.0208604
-0.0214744
-0.0220944
-0.0227325
-0.0233301
-0.0238291
-0.0109188
-0.0111873
-0.0117674
-0.0125939
-0.0135044
-0.0144103
-0.0152844
-0.016138
-0.0169944
-0.0178374
-0.0186001
-0.0192501
-0.0197746
-0.0202522
-0.0207899
-0.0212946
-0.0217232
-0.0220967
-0.0224225
-0.022722
-0.0111258
-0.0113915
-0.0119647
-0.0127878
-0.0137029
-0.0146171
-0.0154964
-0.0163321
-0.0171261
-0.0179011
-0.0185949
-0.0191982
-0.0197615
-0.0202737
-0.0208317
-0.0214428
-0.022061
-0.0226968
-0.0233244
-0.0238933
-0.0113139
-0.0116022
-0.01216
-0.0129598
-0.013864
-0.0147758
-0.0156537
-0.0164867
-0.0172568
-0.0180022
-0.0187032
-0.0192953
-0.0198406
-0.0203518
-0.0208215
-0.0212733
-0.0216585
-0.0219877
-0.0222988
-0.0226415
-0.0113445
-0.0116327
-0.0122591
-0.0131309
-0.0140902
-0.0150491
-0.015954
-0.0167914
-0.0175417
-0.0182171
-0.0188423
-0.0193642
-0.0198235
-0.0202851
-0.0207346
-0.0211802
-0.021611
-0.0220308
-0.0224682
-0.0229431
-0.0134988
-0.0187275
-0.0258866
-0.0311257
-0.0325989
-0.0319439
-0.0309454
-0.0301672
-0.0297961
-0.0299394
-0.0304526
-0.0310656
-0.0316497
-0.0320372
-0.0321118
-0.0321834
-0.03249
-0.0328887
-0.0332972
-0.0337041
-0.0340182
-0.0343064
-0.0346904
-0.0351132
-0.035486
-0.0358351
-0.0362511
-0.0367349
-0.0371629
-0.0375479
-0.0379688
-0.0384234
-0.0389402
-0.039528
-0.0401783
-0.0409992
-0.0419918
-0.0428915
-0.0435056
-0.0439324
-0.0443783
-0.0449416
-0.0455822
-0.0462338
-0.0468798
-0.0475219
-0.0481862
-0.0489262
-0.0498019
-0.0507666
-0.051651
-0.0523687
-0.053062
-0.0537975
-0.0545745
-0.0554075
-0.0562912
-0.05721
-0.058135
-0.059063
-0.0599867
-0.0609303
-0.0618974
-0.0628525
-0.0638422
-0.0648539
-0.0658591
-0.0668889
-0.0679348
-0.0689905
-0.0700779
-0.0711726
-0.072296
-0.07343
-0.0746052
-0.0757958
-0.0769497
-0.0781081
-0.0793423
-0.0807495
-0.0821004
-0.0833894
-0.0846916
-0.086043
-0.0873829
-0.0887796
-0.0902828
-0.0917703
-0.0932637
-0.0947468
-0.0963088
-0.097863
-0.0994149
-0.101063
-0.10272
-0.104375
-0.106048
-0.107634
-0.10915
-0.11069
-0.013999
-0.0188257
-0.025787
-0.0309799
-0.0325133
-0.0319019
-0.0309176
-0.0301464
-0.0297796
-0.0299258
-0.0304416
-0.0310569
-0.0316434
-0.0320329
-0.0321083
-0.0321797
-0.0324866
-0.0328856
-0.0332945
-0.0337018
-0.0340161
-0.0343042
-0.0346884
-0.0351114
-0.0354843
-0.0358334
-0.0362494
-0.0367333
-0.0371615
-0.0375464
-0.0379674
-0.038422
-0.0389388
-0.0395267
-0.0401769
-0.0409978
-0.0419906
-0.0428907
-0.0435049
-0.0439315
-0.0443774
-0.0449407
-0.0455814
-0.046233
-0.0468792
-0.0475213
-0.0481856
-0.0489256
-0.0498012
-0.050766
-0.0516506
-0.0523683
-0.0530615
-0.0537971
-0.0545741
-0.0554071
-0.0562908
-0.0572096
-0.0581347
-0.0590627
-0.0599864
-0.06093
-0.0618971
-0.0628522
-0.0638419
-0.0648537
-0.0658588
-0.0668886
-0.0679346
-0.0689903
-0.0700776
-0.0711724
-0.0722958
-0.0734298
-0.074605
-0.0757956
-0.0769495
-0.078108
-0.0793421
-0.0807493
-0.0821003
-0.0833892
-0.0846915
-0.0860429
-0.0873828
-0.0887795
-0.0902827
-0.0917702
-0.0932636
-0.0947467
-0.0963087
-0.0978629
-0.0994148
-0.101063
-0.10272
-0.104375
-0.106048
-0.107634
-0.10915
-0.11069
-0.0145068
-0.0189521
-0.0255992
-0.0307022
-0.0323619
-0.0318493
-0.0308951
-0.0301294
-0.029765
-0.0299132
-0.0304301
-0.031046
-0.031634
-0.032026
-0.0321033
-0.032176
-0.0324837
-0.032883
-0.0332919
-0.0336997
-0.0340143
-0.0343024
-0.0346867
-0.0351099
-0.0354829
-0.035832
-0.036248
-0.036732
-0.0371603
-0.0375452
-0.0379663
-0.0384208
-0.0389377
-0.0395255
-0.0401757
-0.0409966
-0.0419898
-0.0428902
-0.0435044
-0.0439308
-0.0443765
-0.0449399
-0.0455808
-0.0462324
-0.0468786
-0.0475208
-0.048185
-0.0489249
-0.0498007
-0.0507657
-0.0516504
-0.052368
-0.0530612
-0.0537967
-0.0545737
-0.0554068
-0.0562905
-0.0572093
-0.0581344
-0.0590625
-0.0599862
-0.0609298
-0.0618969
-0.062852
-0.0638417
-0.0648535
-0.0658587
-0.0668884
-0.0679344
-0.0689901
-0.0700775
-0.0711722
-0.0722956
-0.0734296
-0.0746048
-0.0757955
-0.0769494
-0.0781078
-0.0793419
-0.0807491
-0.0821002
-0.0833891
-0.0846913
-0.0860428
-0.0873827
-0.0887793
-0.0902826
-0.0917701
-0.0932635
-0.0947466
-0.0963086
-0.0978628
-0.0994147
-0.101063
-0.10272
-0.104375
-0.106048
-0.107634
-0.10915
-0.11069
-0.0149989
-0.0190768
-0.0253543
-0.0303442
-0.0321504
-0.0317749
-0.0308624
-0.0301051
-0.0297465
-0.029899
-0.0304167
-0.0310307
-0.0316175
-0.0320114
-0.0320931
-0.0321699
-0.0324798
-0.0328792
-0.033288
-0.0336963
-0.0340118
-0.0343003
-0.0346847
-0.0351079
-0.0354813
-0.0358307
-0.0362468
-0.0367308
-0.0371591
-0.0375439
-0.0379651
-0.0384196
-0.0389363
-0.0395242
-0.0401743
-0.0409952
-0.041989
-0.04289
-0.043504
-0.04393
-0.0443755
-0.0449391
-0.04558
-0.0462317
-0.046878
-0.0475203
-0.0481844
-0.0489242
-0.0498
-0.0507653
-0.0516502
-0.0523677
-0.0530607
-0.0537963
-0.0545734
-0.0554064
-0.0562902
-0.057209
-0.0581342
-0.0590622
-0.0599859
-0.0609295
-0.0618967
-0.0628518
-0.0638415
-0.0648533
-0.0658585
-0.0668882
-0.0679342
-0.0689899
-0.0700773
-0.071172
-0.0722954
-0.0734295
-0.0746046
-0.0757954
-0.0769493
-0.0781077
-0.0793417
-0.080749
-0.0821001
-0.083389
-0.0846912
-0.0860427
-0.0873826
-0.0887792
-0.0902825
-0.0917701
-0.0932634
-0.0947465
-0.0963085
-0.0978627
-0.0994146
-0.101062
-0.10272
-0.104375
-0.106048
-0.107634
-0.10915
-0.11069
-0.0154749
-0.0192016
-0.0250979
-0.0299671
-0.031918
-0.0316904
-0.0308249
-0.0300764
-0.0297246
-0.029883
-0.0304012
-0.0310107
-0.0315926
-0.0319874
-0.0320763
-0.0321608
-0.0324742
-0.0328735
-0.0332814
-0.0336904
-0.0340078
-0.0342977
-0.0346821
-0.035105
-0.0354789
-0.0358294
-0.0362459
-0.0367298
-0.0371578
-0.0375428
-0.037964
-0.0384185
-0.0389349
-0.0395226
-0.0401726
-0.0409938
-0.0419882
-0.0428896
-0.0435035
-0.043929
-0.0443744
-0.0449381
-0.0455791
-0.0462309
-0.0468772
-0.0475196
-0.0481835
-0.0489233
-0.0497993
-0.0507649
-0.05165
-0.0523674
-0.0530602
-0.0537959
-0.0545729
-0.0554059
-0.0562897
-0.0572087
-0.0581339
-0.059062
-0.0599856
-0.0609293
-0.0618964
-0.0628516
-0.0638413
-0.0648531
-0.0658583
-0.066888
-0.067934
-0.0689897
-0.0700771
-0.0711719
-0.0722953
-0.0734293
-0.0746045
-0.0757952
-0.0769491
-0.0781075
-0.0793415
-0.0807489
-0.0821
-0.0833889
-0.0846911
-0.0860425
-0.0873825
-0.088779
-0.0902823
-0.09177
-0.0932633
-0.0947464
-0.0963084
-0.0978627
-0.0994145
-0.101062
-0.10272
-0.104375
-0.106048
-0.107634
-0.10915
-0.110691
-0.0159311
-0.0193412
-0.024854
-0.0295894
-0.0316749
-0.0316003
-0.0307864
-0.0300462
-0.0297008
-0.0298657
-0.0303843
-0.0309875
-0.0315615
-0.0319559
-0.032054
-0.0321491
-0.0324671
-0.0328656
-0.0332718
-0.0336814
-0.0340018
-0.0342942
-0.0346785
-0.0351006
-0.0354754
-0.0358278
-0.0362452
-0.0367287
-0.0371568
-0.037542
-0.0379635
-0.0384177
-0.0389335
-0.0395207
-0.0401708
-0.0409922
-0.0419871
-0.042889
-0.0435026
-0.0439277
-0.0443732
-0.0449371
-0.0455781
-0.0462298
-0.0468763
-0.0475188
-0.0481825
-0.0489221
-0.0497983
-0.0507645
-0.0516498
-0.0523669
-0.0530596
-0.0537953
-0.0545724
-0.0554054
-0.0562892
-0.0572083
-0.0581335
-0.0590616
-0.0599853
-0.0609289
-0.0618962
-0.0628513
-0.063841
-0.0648529
-0.065858
-0.0668878
-0.0679338
-0.0689895
-0.0700769
-0.0711717
-0.0722951
-0.0734291
-0.0746043
-0.0757951
-0.076949
-0.0781073
-0.0793412
-0.0807487
-0.0820999
-0.0833887
-0.0846909
-0.0860424
-0.0873823
-0.0887789
-0.0902822
-0.0917699
-0.0932632
-0.0947463
-0.0963083
-0.0978626
-0.0994144
-0.101062
-0.10272
-0.104375
-0.106048
-0.107634
-0.10915
-0.110692
-0.0163694
-0.0195039
-0.0246271
-0.029211
-0.0314207
-0.0315048
-0.0307481
-0.0300159
-0.0296754
-0.0298467
-0.0303661
-0.0309625
-0.0315272
-0.0319202
-0.0320284
-0.0321357
-0.032459
-0.0328561
-0.0332596
-0.0336694
-0.0339936
-0.0342895
-0.0346739
-0.0350946
-0.0354704
-0.0358255
-0.0362441
-0.0367274
-0.0371557
-0.0375419
-0.0379639
-0.0384179
-0.0389326
-0.0395189
-0.0401689
-0.0409905
-0.0419858
-0.0428879
-0.0435012
-0.043926
-0.0443716
-0.0449359
-0.045577
-0.0462287
-0.0468754
-0.0475179
-0.0481813
-0.0489206
-0.0497971
-0.0507638
-0.0516495
-0.0523663
-0.0530589
-0.0537946
-0.0545717
-0.0554048
-0.0562886
-0.0572077
-0.058133
-0.0590612
-0.0599849
-0.0609285
-0.0618958
-0.062851
-0.0638407
-0.0648526
-0.0658578
-0.0668876
-0.0679336
-0.0689892
-0.0700767
-0.0711715
-0.0722949
-0.0734289
-0.074604
-0.0757949
-0.0769489
-0.0781071
-0.0793409
-0.0807486
-0.0820999
-0.0833886
-0.0846908
-0.0860423
-0.0873822
-0.0887786
-0.0902821
-0.0917698
-0.0932631
-0.0947461
-0.0963082
-0.0978625
-0.0994143
-0.101062
-0.102719
-0.104375
-0.106048
-0.107634
-0.109151
-0.110692
-0.0167899
-0.0196831
-0.0244128
-0.0288309
-0.0311559
-0.0314038
-0.0307104
-0.0299863
-0.0296485
-0.0298254
-0.030346
-0.0309362
-0.0314914
-0.0318825
-0.032001
-0.0321214
-0.0324504
-0.0328458
-0.0332456
-0.0336551
-0.0339836
-0.0342836
-0.0346681
-0.0350875
-0.0354644
-0.0358224
-0.0362422
-0.0367252
-0.0371543
-0.0375421
-0.0379651
-0.0384192
-0.0389325
-0.0395175
-0.0401674
-0.0409891
-0.0419842
-0.0428861
-0.0434989
-0.0439234
-0.0443695
-0.0449343
-0.0455755
-0.0462273
-0.0468745
-0.0475173
-0.0481801
-0.0489189
-0.0497956
-0.0507629
-0.0516489
-0.0523655
-0.053058
-0.0537939
-0.0545711
-0.0554041
-0.0562879
-0.057207
-0.0581324
-0.0590606
-0.0599843
-0.0609279
-0.0618954
-0.0628506
-0.0638403
-0.0648522
-0.0658575
-0.0668873
-0.0679334
-0.068989
-0.0700764
-0.0711713
-0.0722947
-0.0734287
-0.0746038
-0.0757947
-0.0769487
-0.0781069
-0.0793406
-0.0807484
-0.0820998
-0.0833884
-0.0846906
-0.0860421
-0.087382
-0.0887784
-0.0902819
-0.0917697
-0.093263
-0.094746
-0.0963081
-0.0978624
-0.0994142
-0.101062
-0.102719
-0.104375
-0.106048
-0.107635
-0.109151
-0.110694
-0.0171863
-0.0198717
-0.0242133
-0.0284528
-0.0308812
-0.0312958
-0.030672
-0.0299568
-0.0296199
-0.0298017
-0.0303241
-0.0309087
-0.0314547
-0.0318437
-0.0319723
-0.0321061
-0.0324412
-0.032835
-0.0332307
-0.0336396
-0.0339724
-0.0342768
-0.0346615
-0.0350794
-0.0354577
-0.0358189
-0.0362397
-0.036722
-0.0371523
-0.0375424
-0.0379671
-0.0384216
-0.0389334
-0.0395169
-0.0401667
-0.0409884
-0.0419829
-0.042884
-0.0434958
-0.04392
-0.0443667
-0.0449321
-0.0455733
-0.0462255
-0.0468737
-0.0475171
-0.0481793
-0.0489173
-0.049794
-0.0507617
-0.0516478
-0.0523644
-0.0530569
-0.053793
-0.0545704
-0.0554034
-0.056287
-0.0572062
-0.0581317
-0.0590599
-0.0599835
-0.0609272
-0.0618948
-0.06285
-0.0638398
-0.0648518
-0.0658571
-0.066887
-0.067933
-0.0689886
-0.0700762
-0.071171
-0.0722945
-0.0734285
-0.0746035
-0.0757945
-0.0769485
-0.0781066
-0.0793402
-0.0807482
-0.0820996
-0.0833882
-0.0846904
-0.086042
-0.0873818
-0.0887781
-0.0902817
-0.0917696
-0.0932628
-0.0947458
-0.096308
-0.0978623
-0.099414
-0.101062
-0.102719
-0.104375
-0.106048
-0.107635
-0.109152
-0.110695
-0.0175536
-0.0200679
-0.0240348
-0.0280794
-0.0305948
-0.0311776
-0.0306314
-0.0299275
-0.02959
-0.0297757
-0.0303003
-0.0308802
-0.0314172
-0.0318038
-0.0319422
-0.0320897
-0.0324316
-0.0328238
-0.0332153
-0.0336234
-0.0339604
-0.0342692
-0.034654
-0.0350707
-0.0354505
-0.035815
-0.0362367
-0.036718
-0.0371495
-0.0375426
-0.0379696
-0.038425
-0.0389353
-0.039517
-0.0401668
-0.0409887
-0.0419823
-0.042882
-0.0434923
-0.0439158
-0.0443632
-0.0449291
-0.0455702
-0.0462229
-0.0468726
-0.0475173
-0.0481791
-0.0489163
-0.0497927
-0.0507604
-0.0516464
-0.0523627
-0.0530554
-0.0537919
-0.0545697
-0.0554028
-0.0562862
-0.0572053
-0.0581308
-0.059059
-0.0599825
-0.0609262
-0.0618939
-0.0628493
-0.0638391
-0.0648512
-0.0658566
-0.0668866
-0.0679326
-0.0689882
-0.0700758
-0.0711707
-0.0722943
-0.0734282
-0.0746033
-0.0757942
-0.0769483
-0.0781064
-0.0793398
-0.0807479
-0.0820995
-0.083388
-0.0846903
-0.0860418
-0.0873815
-0.0887778
-0.0902815
-0.0917694
-0.0932626
-0.0947456
-0.0963078
-0.0978622
-0.0994139
-0.101062
-0.102719
-0.104375
-0.106048
-0.107636
-0.109153
-0.110697
-0.0178904
-0.0202711
-0.0238807
-0.0277111
-0.0302946
-0.0310468
-0.0305871
-0.0298984
-0.0295592
-0.0297473
-0.0302743
-0.0308505
-0.031379
-0.031763
-0.031911
-0.0320723
-0.0324213
-0.0328122
-0.0331995
-0.0336066
-0.0339479
-0.034261
-0.0346459
-0.0350613
-0.035443
-0.0358111
-0.0362334
-0.0367134