/*--------------------------------*- C++ -*----------------------------------*\
| =========                 |                                                 |
| \\      /  F ield         | OpenFOAM: The Open Source CFD Toolbox           |
|  \\    /   O peration     | Version:  v1912                                 |
|   \\  /    A nd           | Website:  www.openfoam.com                      |
|    \\/     M anipulation  |                                                 |
\*---------------------------------------------------------------------------*/
FoamFile
{
    version     2.0;
    format      ascii;
    class       volVectorField;
    location    "5.45";
    object      U;
}
// * * * * * * * * * * * * * * * * * * * * * * * * * * * * * * * * * * * * * //

dimensions      [0 1 -1 0 0 0 0];


internalField   nonuniform List<vector> 
9600
(
(0.833513 -0.00192633 0)
(1.1788 0.0131281 0)
(0.954692 0.000536025 0)
(1.0751 -0.019234 0)
(0.737024 0.0289723 0)
(1.38991 0.0178234 0)
(0.543713 -0.0144079 0)
(1.30223 0.0218083 0)
(0.737107 0.000259696 0)
(1.15231 0.0127201 0)
(0.864336 0.00316665 0)
(1.16044 0.0165445 0)
(0.85528 0.0216047 0)
(1.14794 0.0150124 0)
(0.843523 0.0164702 0)
(1.17177 0.00620382 0)
(0.844676 0.00144944 0)
(1.16229 0.00776014 0)
(0.865617 0.00699162 0)
(1.13123 0.00925996 0)
(0.839992 -0.0021567 0)
(1.1726 0.0124383 0)
(0.962868 0.00148749 0)
(1.07709 -0.017028 0)
(0.739404 0.0264149 0)
(1.38256 0.020535 0)
(0.565911 -0.0138229 0)
(1.29393 0.0202344 0)
(0.769265 0.00226502 0)
(1.14795 0.0115844 0)
(0.88697 0.00258243 0)
(1.1519 0.0170057 0)
(0.882837 0.0216428 0)
(1.12111 0.0155963 0)
(0.89113 0.0155904 0)
(1.12293 0.00647076 0)
(0.920636 0.00185663 0)
(1.0849 0.00658366 0)
(0.973042 0.00913428 0)
(1.01475 0.00815193 0)
(0.853821 -0.00232324 0)
(1.15727 0.0117088 0)
(0.975035 0.0020346 0)
(1.07573 -0.0150923 0)
(0.748633 0.022962 0)
(1.3658 0.0225471 0)
(0.61511 -0.0135861 0)
(1.27018 0.0182622 0)
(0.830497 0.00346192 0)
(1.13027 0.010051 0)
(0.931541 0.00226114 0)
(1.12751 0.0174345 0)
(0.940172 0.0220846 0)
(1.0808 0.0156223 0)
(0.957852 0.0153617 0)
(1.07184 0.00588671 0)
(0.988156 0.00255176 0)
(1.0351 0.00556362 0)
(1.01634 0.010459 0)
(1.00257 0.00887699 0)
(0.874424 -0.00246648 0)
(1.13265 0.0110113 0)
(0.989246 0.00252842 0)
(1.06896 -0.0131269 0)
(0.768849 0.019922 0)
(1.3356 0.0239738 0)
(0.691928 -0.0129143 0)
(1.22441 0.0161967 0)
(0.904643 0.00488315 0)
(1.09988 0.00889705 0)
(0.9761 0.00224733 0)
(1.09414 0.0173177 0)
(0.996712 0.0227544 0)
(1.05248 0.0154271 0)
(1.00505 0.0154391 0)
(1.04387 0.00537885 0)
(1.01642 0.00332124 0)
(1.02169 0.00524326 0)
(1.02254 0.0108963 0)
(1.0128 0.0100441 0)
(0.899524 -0.00256363 0)
(1.10123 0.0103094 0)
(1.00344 0.00292001 0)
(1.05681 -0.0112017 0)
(0.802266 0.0172988 0)
(1.28938 0.0249045 0)
(0.783627 -0.0118116 0)
(1.16046 0.0139676 0)
(0.968029 0.00617233 0)
(1.06791 0.0082077 0)
(1.0016 0.00227072 0)
(1.06282 0.016837 0)
(1.03062 0.0233112 0)
(1.04116 0.0154413 0)
(1.02656 0.0156091 0)
(1.03186 0.00530918 0)
(1.02087 0.00387655 0)
(1.01739 0.00515927 0)
(1.01936 0.0110476 0)
(1.015 0.0109949 0)
(0.925749 -0.00259495 0)
(1.06763 0.00963393 0)
(1.01505 0.00319597 0)
(1.04148 -0.00945318 0)
(0.845946 0.0150256 0)
(1.22958 0.0251606 0)
(0.86871 -0.0103795 0)
(1.09409 0.0119072 0)
(1.00669 0.00708022 0)
(1.04332 0.00799053 0)
(1.00707 0.00233485 0)
(1.03773 0.0162502 0)
(1.04067 0.0235522 0)
(1.03731 0.0156345 0)
(1.03175 0.0158556 0)
(1.02595 0.00561067 0)
(1.0173 0.00426883 0)
(1.01219 0.00524086 0)
(1.01338 0.0111215 0)
(1.01115 0.0116608 0)
(0.949635 -0.00255448 0)
(1.03726 0.00902156 0)
(1.0219 0.00336154 0)
(1.02663 -0.00801476 0)
(0.891721 0.0132252 0)
(1.16501 0.0248956 0)
(0.93176 -0.00882651 0)
(1.04212 0.0103328 0)
(1.02154 0.00750895 0)
(1.02714 0.0081685 0)
(1.00251 0.0025146 0)
(1.01859 0.0156093 0)
(1.03565 0.0234318 0)
(1.03355 0.0158095 0)
(1.02955 0.016166 0)
(1.02246 0.00605726 0)
(1.01305 0.00467975 0)
(1.00689 0.00549008 0)
(1.00711 0.0110773 0)
(1.00572 0.0121588 0)
(0.968721 -0.00245461 0)
(1.01433 0.00850243 0)
(1.02331 0.00342853 0)
(1.01571 -0.00694239 0)
(0.930362 0.0119887 0)
(1.10695 0.0243807 0)
(0.970386 -0.00739839 0)
(1.01102 0.00930453 0)
(1.0209 0.00757681 0)
(1.01613 0.00853451 0)
(0.996867 0.00278903 0)
(1.00521 0.0149456 0)
(1.02522 0.023037 0)
(1.02838 0.0158577 0)
(1.02509 0.0164384 0)
(1.02014 0.00651366 0)
(1.01028 0.00516466 0)
(1.00308 0.00584169 0)
(1.00242 0.0109694 0)
(1.00135 0.0126189 0)
(0.982164 -0.00232178 0)
(1.00036 0.00809817 0)
(1.02031 0.00340668 0)
(1.00989 -0.00620317 0)
(0.956639 0.0112706 0)
(1.06351 0.0237975 0)
(0.9907 -0.00622819 0)
(0.996272 0.00873494 0)
(1.0133 0.00748456 0)
(1.00773 0.00887827 0)
(0.993599 0.00309333 0)
(0.997448 0.0143339 0)
(1.01566 0.0225102 0)
(1.02286 0.0157607 0)
(1.02051 0.0166027 0)
(1.01805 0.00693566 0)
(1.00874 0.00566495 0)
(1.001 0.00628445 0)
(0.999817 0.0108761 0)
(0.998862 0.013052 0)
(0.990591 -0.00218571 0)
(0.994102 0.00781251 0)
(1.01508 0.00332225 0)
(1.00782 -0.00571249 0)
(0.971071 0.0109358 0)
(1.03659 0.0232167 0)
(1.00031 -0.00529541 0)
(0.989871 0.00849352 0)
(1.00483 0.0073602 0)
(1.00144 0.00908101 0)
(0.992626 0.00336971 0)
(0.994088 0.0138176 0)
(1.00912 0.0219633 0)
(1.01793 0.0155624 0)
(1.01635 0.0166674 0)
(1.01569 0.00731266 0)
(1.00765 0.00612336 0)
(1.00003 0.00680875 0)
(0.998762 0.0107929 0)
(0.997896 0.0134134 0)
(0.995402 -0.00206876 0)
(0.992837 0.00763167 0)
(1.00981 0.00320976 0)
(1.00703 -0.00538236 0)
(0.977812 0.0108323 0)
(1.02293 0.0226367 0)
(1.00464 -0.00450659 0)
(0.986554 0.00845903 0)
(0.998758 0.00724279 0)
(0.997642 0.00912621 0)
(0.993103 0.00359985 0)
(0.993363 0.0133921 0)
(1.00519 0.0214637 0)
(1.01388 0.0153258 0)
(1.01273 0.0166628 0)
(1.01316 0.0076512 0)
(1.00662 0.00650544 0)
(0.999578 0.00736958 0)
(0.998565 0.0106974 0)
(0.997822 0.0136912 0)
(0.998012 -0.00198183 0)
(0.993928 0.00753025 0)
(1.00591 0.00310229 0)
(1.00571 -0.00515445 0)
(0.981295 0.0108335 0)
(1.01737 0.0220421 0)
(1.00649 -0.00376896 0)
(0.984692 0.00853147 0)
(0.995996 0.00711958 0)
(0.99629 0.00905071 0)
(0.994445 0.0037984 0)
(0.993982 0.0130419 0)
(1.00301 0.0210438 0)
(1.0108 0.0150931 0)
(1.00987 0.0166095 0)
(1.01094 0.00796185 0)
(1.00578 0.00679291 0)
(0.999457 0.0079288 0)
(0.998874 0.0105917 0)
(0.99829 0.0138816 0)
(0.999407 -0.001926 0)
(0.995644 0.00748029 0)
(1.00371 0.00302901 0)
(1.00341 -0.00499709 0)
(0.984137 0.0108567 0)
(1.01563 0.0214387 0)
(1.00714 -0.00303227 0)
(0.984297 0.00864041 0)
(0.995941 0.00697003 0)
(0.996714 0.00890031 0)
(0.996276 0.0039864 0)
(0.995335 0.0127527 0)
(1.00215 0.0207038 0)
(1.00885 0.0148858 0)
(1.00806 0.0165145 0)
(1.00943 0.00825806 0)
(1.00538 0.00698777 0)
(0.999736 0.00846626 0)
(0.999638 0.0104885 0)
(0.999234 0.013972 0)
(1.00008 -0.00189663 0)
(0.997187 0.00745767 0)
(1.00295 0.00300633 0)
(1.00063 -0.0048932 0)
(0.987015 0.0108559 0)
(1.01526 0.0208476 0)
(1.00719 -0.00228589 0)
(0.985321 0.0087423 0)
(0.997487 0.00679513 0)
(0.9981 0.00871556 0)
(0.998266 0.00417794 0)
(0.997097 0.0125085 0)
(1.00238 0.020429 0)
(1.00801 0.0147119 0)
(1.00733 0.0163802 0)
(1.00871 0.00855546 0)
(1.00552 0.00711005 0)
(1.00045 0.00896549 0)
(1.00083 0.0104024 0)
(1.00062 0.0139524 0)
(1.00022 -0.00188612 0)
(0.998298 0.00744287 0)
(1.00322 0.00303679 0)
(0.998032 -0.00482956 0)
(0.989653 0.0108159 0)
(1.01523 0.02028 0)
(1.00696 -0.00154369 0)
(0.987285 0.00881431 0)
(0.99972 0.0066083 0)
(0.999828 0.00852219 0)
(1.0001 0.00437895 0)
(0.998919 0.0122894 0)
(1.00327 0.0201996 0)
(1.00799 0.0145748 0)
(1.0074 0.0162108 0)
(1.00857 0.00886667 0)
(1.00606 0.0071841 0)
(1.00146 0.00940685 0)
(1.00228 0.0103469 0)
(1.0023 0.0138252 0)
(0.999947 -0.00188531 0)
(0.99889 0.00742023 0)
(1.00419 0.00311297 0)
(0.996027 -0.00478973 0)
(0.991728 0.0107378 0)
(1.01513 0.0197358 0)
(1.00662 -0.000822339 0)
(0.989634 0.00884871 0)
(1.0021 0.00641922 0)
(1.0015 0.00833535 0)
(1.00153 0.0045941 0)
(1.00044 0.0120808 0)
(1.00435 0.019992 0)
(1.00835 0.0144716 0)
(1.00789 0.0160215 0)
(1.00867 0.00919664 0)
(1.00676 0.00722569 0)
(1.00254 0.00977776 0)
(1.00371 0.0103332 0)
(1.00397 0.0136065 0)
(0.999421 -0.00188418 0)
(0.99892 0.00737689 0)
(1.00562 0.00322134 0)
(0.994732 -0.00475506 0)
(0.993132 0.0106292 0)
(1.01476 0.0192111 0)
(1.00623 -0.000135814 0)
(0.992018 0.00884506 0)
(1.00437 0.00623607 0)
(1.00284 0.00816744 0)
(1.00239 0.00482815 0)
(1.00142 0.0118744 0)
(1.00522 0.0197861 0)
(1.00875 0.0143959 0)
(1.00849 0.0158236 0)
(1.00878 0.00954374 0)
(1.00737 0.00725161 0)
(1.00343 0.0100784 0)
(1.00483 0.0103634 0)
(1.00537 0.0133158 0)
(0.998861 -0.00187341 0)
(0.998432 0.00730379 0)
(1.00721 0.00334384 0)
(0.994168 -0.00470741 0)
(0.993848 0.0105043 0)
(1.014 0.0186979 0)
(1.00584 0.000501558 0)
(0.994221 0.0088054 0)
(1.00634 0.00606931 0)
(1.00371 0.00803073 0)
(1.00265 0.00508545 0)
(1.00184 0.0116625 0)
(1.00574 0.0195656 0)
(1.009 0.0143413 0)
(1.00903 0.0156166 0)
(1.00876 0.00990759 0)
(1.00773 0.00728314 0)
(1.00398 0.0103097 0)
(1.00549 0.010428 0)
(1.00629 0.0129692 0)
(0.998445 -0.00184694 0)
(0.997597 0.00719902 0)
(1.00861 0.00346132 0)
(0.994302 -0.00463076 0)
(0.993888 0.0103785 0)
(1.01292 0.0181863 0)
(1.00547 0.00108024 0)
(0.99605 0.0087377 0)
(1.00791 0.00592437 0)
(1.0041 0.00793913 0)
(1.00243 0.00536571 0)
(1.0018 0.0114402 0)
(1.00589 0.0193182 0)
(1.00897 0.014294 0)
(1.00936 0.0154058 0)
(1.00858 0.0102874 0)
(1.00783 0.00733692 0)
(1.00417 0.0104761 0)
(1.00565 0.0105205 0)
(1.00669 0.0125824 0)
(0.99825 -0.00180284 0)
(0.996651 0.00706806 0)
(1.00957 0.00355648 0)
(0.994998 -0.00451543 0)
(0.993371 0.0102669 0)
(1.01172 0.0176657 0)
(1.00514 0.00159318 0)
(0.997353 0.00865228 0)
(1.009 0.00580644 0)
(1.00415 0.0078898 0)
(1.00198 0.00567036 0)
(1.00147 0.0112067 0)
(1.00574 0.0190397 0)
(1.00863 0.0142434 0)
(1.00941 0.0151963 0)
(1.00825 0.010679 0)
(1.0077 0.00742291 0)
(1.00408 0.010588 0)
(1.00542 0.0106406 0)
(1.00667 0.0121817 0)
(0.99826 -0.00174277 0)
(0.995794 0.00692037 0)
(1.01005 0.00361767 0)
(0.996014 -0.00435717 0)
(0.992545 0.0101783 0)
(1.0106 0.017127 0)
(1.00485 0.00204517 0)
(0.998117 0.00855888 0)
(1.00968 0.00571214 0)
(1.00407 0.00787275 0)
(1.00155 0.00600051 0)
(1.00107 0.0109647 0)
(1.00539 0.0187341 0)
(1.00803 0.0141909 0)
(1.00916 0.0149803 0)
(1.00782 0.011076 0)
(1.00745 0.00754963 0)
(1.00388 0.0106546 0)
(1.00497 0.0107829 0)
(1.0064 0.011794 0)
(0.998411 -0.00167069 0)
(0.995133 0.00676643 0)
(1.01014 0.00364104 0)
(0.997101 -0.00415559 0)
(0.991677 0.0101123 0)
(1.00973 0.016569 0)
(1.00456 0.00244811 0)
(0.99846 0.00846656 0)
(1.01003 0.00562693 0)
(1.00397 0.00787947 0)
(1.00131 0.00635533 0)
(1.00076 0.0107225 0)
(1.00499 0.0184118 0)
(1.00728 0.0141416 0)
(1.0087 0.0147472 0)
(1.00737 0.011468 0)
(1.00714 0.00771481 0)
(1.0037 0.0106813 0)
(1.00445 0.0109448 0)
(1.00603 0.0114423 0)
(0.998632 -0.00159085 0)
(0.994689 0.00661463 0)
(1.00996 0.00362692 0)
(0.998098 -0.00391421 0)
(0.990944 0.0100629 0)
(1.00916 0.0159956 0)
(1.00428 0.00281405 0)
(0.998552 0.0083771 0)
(1.0102 0.00554554 0)
(1.00389 0.00789227 0)
(1.00131 0.00673143 0)
(1.00061 0.0104959 0)
(1.00464 0.0180821 0)
(1.00653 0.0141017 0)
(1.00814 0.0144919 0)
(1.00696 0.0118465 0)
(1.00684 0.00791108 0)
(1.00364 0.0106669 0)
(1.00398 0.0111287 0)
(1.0057 0.0111619 0)
(0.998863 -0.00150696 0)
(0.994443 0.00647032 0)
(1.00965 0.00357744 0)
(0.99895 -0.00363826 0)
(0.990405 0.0100222 0)
(1.00885 0.015414 0)
(1.00402 0.00315231 0)
(0.998533 0.00829113 0)
(1.01024 0.00546559 0)
(1.00381 0.00789611 0)
(1.00146 0.00712519 0)
(1.00064 0.0102894 0)
(1.00438 0.0177538 0)
(1.0059 0.0140819 0)
(1.00755 0.0142079 0)
(1.00667 0.0122046 0)
(1.00657 0.00814755 0)
(1.00374 0.0106079 0)
(1.0036 0.0113138 0)
(1.00546 0.0109836 0)
(0.999063 -0.0014216 0)
(0.994367 0.00633471 0)
(1.00927 0.00349803 0)
(0.999657 -0.00333127 0)
(0.990053 0.00997981 0)
(1.00868 0.0148339 0)
(1.00385 0.00346514 0)
(0.99849 0.00821182 0)
(1.01019 0.00538896 0)
(1.00371 0.00787954 0)
(1.00164 0.00753253 0)
(1.0008 0.0101052 0)
(1.0042 0.0174217 0)
(1.00542 0.0140947 0)
(1.00702 0.0138922 0)
(1.0065 0.0125294 0)
(1.00635 0.00843073 0)
(1.00402 0.0105077 0)
(1.00337 0.0114677 0)
(1.00532 0.0109247 0)
(0.999208 -0.00133686 0)
(0.994442 0.00620947 0)
(1.00887 0.00339039 0)
(1.00023 -0.00299542 0)
(0.989884 0.00993029 0)
(1.00854 0.0142562 0)
(1.00381 0.00375704 0)
(0.998467 0.0081382 0)
(1.01005 0.00532214 0)
(1.00355 0.00783996 0)
(1.00173 0.00794459 0)
(1.00101 0.00994924 0)
(1.00406 0.0170716 0)
(1.0051 0.014149 0)
(1.00657 0.0135509 0)
(1.00646 0.0128049 0)
(1.00621 0.00876271 0)
(1.00445 0.0103713 0)
(1.00333 0.0115621 0)
(1.00529 0.0109879 0)
(0.999288 -0.00125538 0)
(0.994654 0.00609599 0)
(1.00846 0.00326039 0)
(1.00066 -0.0026372 0)
(0.989915 0.00987275 0)
(1.00834 0.0136837 0)
(1.00389 0.00402542 0)
(0.998485 0.00807752 0)
(1.0098 0.00527158 0)
(1.00334 0.00777608 0)
(1.00164 0.00835223 0)
(1.00123 0.00982431 0)
(1.00392 0.0166992 0)
(1.0049 0.0142434 0)
(1.00623 0.0131891 0)
(1.00654 0.0130078 0)
(1.00616 0.00914928 0)
(1.005 0.0102173 0)
(1.00351 0.011571 0)
(1.00537 0.0111583 0)
(0.999306 -0.00117841 0)
(0.994988 0.00599214 0)
(1.00806 0.00311526 0)
(1.00092 -0.00226199 0)
(0.990173 0.0098039 0)
(1.00804 0.0131204 0)
(1.00409 0.00426525 0)
(0.998552 0.00803482 0)
(1.00942 0.00524722 0)
(1.00313 0.00768854 0)
(1.00134 0.00874831 0)
(1.00144 0.00972716 0)
(1.00377 0.0162881 0)
(1.00477 0.0143721 0)
(1.006 0.0128243 0)
(1.0067 0.0131178 0)
(1.00621 0.00957894 0)
(1.00562 0.0100811 0)
(1.00392 0.0114738 0)
(1.00555 0.0113845 0)
(0.999276 -0.00110736 0)
(0.995419 0.00589716 0)
(1.00767 0.00295996 0)
(1.00101 -0.00187621 0)
(0.990671 0.0097247 0)
(1.00765 0.0125672 0)
(1.00435 0.00447364 0)
(0.998666 0.00801293 0)
(1.00895 0.00525328 0)
(1.00296 0.00758198 0)
(1.00087 0.00912635 0)
(1.00163 0.00965909 0)
(1.00366 0.0158225 0)
(1.00468 0.0145231 0)
(1.00587 0.0124768 0)
(1.00691 0.0131207 0)
(1.00635 0.0100328 0)
(1.00624 0.010001 0)
(1.00454 0.0112693 0)
(1.00583 0.0115868 0)
(0.999216 -0.0010445 0)
(0.995912 0.00581083 0)
(1.0073 0.00280366 0)
(1.00094 -0.00149028 0)
(0.991379 0.00963398 0)
(1.00721 0.0120326 0)
(1.00462 0.00464822 0)
(0.998822 0.00801724 0)
(1.0084 0.00529539 0)
(1.00288 0.00746175 0)
(1.0003 0.00947963 0)
(1.00181 0.00961955 0)
(1.0036 0.015303 0)
(1.00461 0.0146769 0)
(1.00585 0.012165 0)
(1.00715 0.0130075 0)
(1.00657 0.0104844 0)
(1.00681 0.01001 0)
(1.0053 0.0109735 0)
(1.0062 0.0116929 0)
(0.999148 -0.000991072 0)
(0.996422 0.00573253 0)
(1.00695 0.00265416 0)
(1.00074 -0.00111145 0)
(0.99223 0.00952491 0)
(1.00677 0.0115256 0)
(1.00485 0.00478579 0)
(0.999005 0.00804708 0)
(1.00782 0.00537523 0)
(1.00289 0.00732862 0)
(0.999728 0.00980717 0)
(1.00196 0.00961088 0)
(1.00362 0.0147303 0)
(1.00454 0.01481 0)
(1.00588 0.0119139 0)
(1.00739 0.0127794 0)
(1.00684 0.0108855 0)
(1.00729 0.0101164 0)
(1.00611 0.0106351 0)
(1.00665 0.0116543 0)
(0.999091 -0.000946747 0)
(0.996904 0.00566061 0)
(1.00664 0.00251535 0)
(1.00048 -0.000748046 0)
(0.993133 0.00940151 0)
(1.00637 0.0110461 0)
(1.00501 0.00489072 0)
(0.999199 0.00809199 0)
(1.00726 0.00549246 0)
(1.00301 0.00718815 0)
(0.999233 0.0101008 0)
(1.0021 0.00963519 0)
(1.00374 0.0141128 0)
(1.00446 0.0149022 0)
(1.00594 0.0117493 0)
(1.00762 0.0124513 0)
(1.00713 0.0111972 0)
(1.00764 0.0103081 0)
(1.00689 0.010327 0)
(1.00715 0.0114597 0)
(0.999058 -0.000912297 0)
(0.997325 0.00559367 0)
(1.00637 0.00239256 0)
(1.00021 -0.000405932 0)
(0.994006 0.00926374 0)
(1.00603 0.0105955 0)
(1.0051 0.00496821 0)
(0.999386 0.00814982 0)
(1.00675 0.00564535 0)
(1.0032 0.00704523 0)
(0.998866 0.0103486 0)
(1.00223 0.00969002 0)
(1.00395 0.0134643 0)
(1.00439 0.0149289 0)
(1.00596 0.0116837 0)
(1.00782 0.0120563 0)
(1.00741 0.011398 0)
(1.00786 0.0105647 0)
(1.00754 0.0101056 0)
(1.00766 0.0111296 0)
(0.999056 -0.000886754 0)
(0.997665 0.00553141 0)
(1.00613 0.00228585 0)
(0.999992 -8.48111e-05 0)
(0.994789 0.00910976 0)
(1.00575 0.010176 0)
(1.00511 0.0050241 0)
(0.99955 0.00820994 0)
(1.0063 0.00582657 0)
(1.00343 0.0068968 0)
(0.998644 0.0105504 0)
(1.00234 0.00978322 0)
(1.00424 0.0128042 0)
(1.00433 0.0148632 0)
(1.00592 0.0117064 0)
(1.00798 0.0116344 0)
(1.00766 0.0114722 0)
(1.00796 0.0108507 0)
(1.00802 0.00999646 0)
(1.00814 0.0107298 0)
(0.999084 -0.000868644 0)
(0.997923 0.00547203 0)
(1.00591 0.00219789 0)
(0.999852 0.000212083 0)
(0.995456 0.00894574 0)
(1.00551 0.00978639 0)
(1.00507 0.00506298 0)
(0.999683 0.00826565 0)
(1.00593 0.00603453 0)
(1.0037 0.00674882 0)
(0.99856 0.0106956 0)
(1.00243 0.00991142 0)
(1.00458 0.0121595 0)
(1.00431 0.0147054 0)
(1.00581 0.011808 0)
(1.0081 0.0112323 0)
(1.0079 0.0114074 0)
(1.00797 0.011124 0)
(1.0083 0.00999805 0)
(1.00853 0.0103608 0)
(0.999138 -0.000856271 0)
(0.998106 0.00541167 0)
(1.00571 0.00212703 0)
(0.999797 0.000486111 0)
(0.996006 0.00877566 0)
(1.00531 0.00941653 0)
(1.00499 0.00509628 0)
(0.999784 0.00831178 0)
(1.00563 0.00625735 0)
(1.00398 0.00660875 0)
(0.998597 0.0107857 0)
(1.00249 0.0100685 0)
(1.00495 0.011541 0)
(1.00436 0.0144483 0)
(1.00562 0.0119722 0)
(1.00816 0.0108967 0)
(1.00813 0.0112115 0)
(1.00795 0.0113481 0)
(1.0084 0.010077 0)
(1.00882 0.0100824 0)
(0.999211 -0.000847732 0)
(0.998232 0.00535161 0)
(1.00552 0.00207041 0)
(0.999822 0.00072849 0)
(0.996455 0.00861052 0)
(1.00511 0.00906917 0)
(1.0049 0.00512213 0)
(0.999856 0.00834152 0)
(1.00537 0.00649294 0)
(1.00427 0.00647463 0)
(0.998732 0.0108192 0)
(1.00251 0.0102597 0)
(1.00533 0.0109723 0)
(1.00447 0.0140879 0)
(1.00539 0.0121708 0)
(1.00815 0.010656 0)
(1.00836 0.0109059 0)
(1.00792 0.0115108 0)
(1.00835 0.0102165 0)
(1.00898 0.00990322 0)
(0.999298 -0.000843055 0)
(0.998316 0.005289 0)
(1.00531 0.00203302 0)
(0.999913 0.000934375 0)
(0.996828 0.00844825 0)
(1.00492 0.00874384 0)
(1.0048 0.00514266 0)
(0.999912 0.00835171 0)
(1.00514 0.00673638 0)
(1.00455 0.00635473 0)
(0.99895 0.0107829 0)
(1.0025 0.0104655 0)
(1.00568 0.0104854 0)
(1.00468 0.0136343 0)
(1.00514 0.0123659 0)
(1.00807 0.010536 0)
(1.0086 0.0105083 0)
(1.00792 0.0115698 0)
(1.00821 0.0104078 0)
(1.009 0.00982527 0)
(0.999392 -0.000839452 0)
(0.998372 0.00521899 0)
(1.0051 0.00201469 0)
(1.00005 0.00110875 0)
(0.997145 0.0082976 0)
(1.00472 0.00843136 0)
(1.00471 0.00515655 0)
(0.999959 0.00834879 0)
(1.00492 0.0069702 0)
(1.00483 0.00624562 0)
(0.999236 0.010696 0)
(1.00247 0.0106649 0)
(1.00599 0.0100799 0)
(1.00495 0.0131151 0)
(1.0049 0.0125046 0)
(1.0079 0.0105483 0)
(1.00883 0.0101052 0)
(1.00801 0.0114822 0)
(1.00801 0.0105964 0)
(1.00891 0.00981446 0)
(0.99949 -0.000835771 0)
(0.998411 0.0051435 0)
(1.00487 0.00201237 0)
(1.00022 0.00124469 0)
(0.997427 0.00815474 0)
(1.00449 0.0081603 0)
(1.00463 0.00515219 0)
(1.00001 0.00832971 0)
(1.00471 0.00721172 0)
(1.0051 0.00614667 0)
(0.99958 0.0105506 0)
(1.00241 0.0108691 0)
(1.00624 0.00975059 0)
(1.00529 0.0125496 0)
(1.00471 0.0125826 0)
(1.00766 0.0106463 0)
(1.00904 0.00976687 0)
(1.00817 0.0112824 0)
(1.00782 0.0107632 0)
(1.00873 0.00986029 0)
(0.999589 -0.000831266 0)
(0.99844 0.00505487 0)
(1.00462 0.00203585 0)
(1.00041 0.00134698 0)
(0.997689 0.00801823 0)
(1.00426 0.00789659 0)
(1.00457 0.00513798 0)
(1.00008 0.00828744 0)
(1.00449 0.00745568 0)
(1.00536 0.00607351 0)
(0.999979 0.0103366 0)
(1.00234 0.0110634 0)
(1.00641 0.00953484 0)
(1.00568 0.0119194 0)
(1.00458 0.0125677 0)
(1.00734 0.0108531 0)
(1.00919 0.00949671 0)
(1.00842 0.0109766 0)
(1.00766 0.0108861 0)
(1.00846 0.00997716 0)
(0.999687 -0.000821947 0)
(0.998463 0.00495148 0)
(1.00436 0.00207981 0)
(1.00061 0.00141145 0)
(0.997935 0.00789224 0)
(1.00401 0.00768284 0)
(1.00452 0.00508701 0)
(1.00016 0.00822527 0)
(1.00425 0.00767937 0)
(1.00559 0.00603602 0)
(1.00042 0.0100785 0)
(1.00227 0.0111965 0)
(1.0065 0.00942269 0)
(1.00609 0.0113085 0)
(1.00455 0.0123806 0)
(1.00697 0.0111069 0)
(1.00925 0.0093899 0)
(1.00873 0.0105678 0)
(1.00759 0.0109412 0)
(1.00814 0.0101951 0)
(0.999782 -0.000812921 0)
(0.998484 0.0048343 0)
(1.00408 0.00215382 0)
(1.0008 0.00144034 0)
(0.998177 0.00775154 0)
(1.00374 0.00750376 0)
(1.00448 0.00502337 0)
(1.00028 0.00813127 0)
(1.00401 0.00790557 0)
(1.00578 0.00602028 0)
(1.0009 0.00977523 0)
(1.00222 0.011292 0)
(1.00651 0.00934935 0)
(1.00649 0.0107404 0)
(1.00462 0.0120903 0)
(1.00663 0.0112752 0)
(1.00919 0.00938263 0)
(1.00907 0.010079 0)
(1.00765 0.0107284 0)
(1.00778 0.0103882 0)
(0.999871 -0.000790819 0)
(0.998507 0.00468512 0)
(1.00379 0.00225414 0)
(1.00099 0.00143191 0)
(0.998415 0.00760478 0)
(1.00346 0.00738721 0)
(1.00444 0.00494376 0)
(1.00043 0.00799377 0)
(1.00377 0.0081307 0)
(1.00593 0.00603862 0)
(1.00141 0.00941247 0)
(1.0022 0.011326 0)
(1.00643 0.00936083 0)
(1.00688 0.0101945 0)
(1.00479 0.0116541 0)
(1.00629 0.011361 0)
(1.00902 0.00935363 0)
(1.00934 0.00959734 0)
(1.00783 0.010255 0)
(1.00754 0.010399 0)
(0.999956 -0.000770486 0)
(0.99853 0.00452733 0)
(1.00349 0.00237541 0)
(1.00117 0.00142227 0)
(0.998663 0.00741212 0)
(1.00316 0.00732595 0)
(1.00439 0.00486888 0)
(1.00061 0.0078251 0)
(1.00352 0.00831709 0)
(1.00603 0.00613161 0)
(1.00194 0.00902729 0)
(1.00222 0.0112501 0)
(1.00629 0.00942395 0)
(1.00719 0.00973542 0)
(1.00504 0.0111418 0)
(1.00602 0.0112699 0)
(1.00875 0.00932719 0)
(1.00954 0.00916883 0)
(1.0081 0.00977886 0)
(1.00748 0.0103017 0)
(1.00003 -0.000733427 0)
(0.99856 0.00432996 0)
(1.00317 0.00251904 0)
(1.00133 0.00141179 0)
(0.99891 0.00717917 0)
(1.00287 0.00731279 0)
(1.00434 0.00482998 0)
(1.00081 0.00757604 0)
(1.00329 0.00849064 0)
(1.00607 0.00625106 0)
(1.00246 0.00862255 0)
(1.00229 0.0111158 0)
(1.00609 0.00949525 0)
(1.00745 0.0093334 0)
(1.00532 0.0106159 0)
(1.0058 0.011166 0)
(1.00843 0.00934589 0)
(1.00967 0.00898173 0)
(1.00846 0.00948797 0)
(1.00761 0.0102398 0)
(1.0001 -0.000692616 0)
(0.998595 0.00411787 0)
(1.00285 0.00267209 0)
(1.00147 0.00141584 0)
(0.999177 0.0068913 0)
(1.00256 0.00733637 0)
(1.00424 0.00480771 0)
(1.00106 0.00730285 0)
(1.00309 0.00859423 0)
(1.00604 0.00640345 0)
(1.00298 0.00825232 0)
(1.00242 0.0108798 0)
(1.00585 0.00955891 0)
(1.00761 0.00904838 0)
(1.00569 0.0100728 0)
(1.00568 0.0109572 0)
(1.00808 0.00947278 0)
(1.00974 0.0088731 0)
(1.00881 0.00917374 0)
(1.00781 0.0100442 0)
(1.00017 -0.000642744 0)
(0.998641 0.00388883 0)
(1.00252 0.00282234 0)
(1.00159 0.00146087 0)
(0.999447 0.00651906 0)
(1.00227 0.00737012 0)
(1.00413 0.00486953 0)
(1.00131 0.00699677 0)
(1.00291 0.00860118 0)
(1.00596 0.00662346 0)
(1.00345 0.00791071 0)
(1.0026 0.0105508 0)
(1.0056 0.00963622 0)
(1.0077 0.00885815 0)
(1.00603 0.00953669 0)
(1.00567 0.0106819 0)
(1.00775 0.00964516 0)
(1.00968 0.0087558 0)
(1.00916 0.00883677 0)
(1.00817 0.00968905 0)
(1.00022 -0.000577112 0)
(0.998693 0.00362972 0)
(1.00221 0.00297176 0)
(1.00168 0.00152902 0)
(0.999738 0.00611277 0)
(1.00201 0.00738698 0)
(1.00395 0.00499895 0)
(1.00157 0.00668476 0)
(1.00279 0.00856824 0)
(1.00583 0.00682454 0)
(1.00388 0.00760148 0)
(1.00285 0.0102091 0)
(1.00535 0.00967132 0)
(1.00766 0.00872625 0)
(1.0064 0.00908985 0)
(1.00579 0.0104797 0)
(1.00742 0.00974408 0)
(1.00953 0.00886967 0)
(1.00941 0.00866601 0)
(1.00853 0.00932966 0)
(1.00026 -0.000511509 0)
(0.998759 0.00337852 0)
(1.0019 0.0030956 0)
(1.00173 0.00165045 0)
(1.00003 0.00566967 0)
(1.00178 0.00733452 0)
(1.00376 0.00519871 0)
(1.00183 0.00642324 0)
(1.00271 0.00842975 0)
(1.00566 0.00700995 0)
(1.00425 0.00740026 0)
(1.00313 0.00982898 0)
(1.00513 0.00962328 0)
(1.00757 0.00871101 0)
(1.00673 0.00876434 0)
(1.00598 0.0101378 0)
(1.00717 0.00975493 0)
(1.00931 0.00900039 0)
(1.00953 0.00853817 0)
(1.00888 0.00898633 0)
(1.0003 -0.000430581 0)
(0.99883 0.00311127 0)
(1.00161 0.00319099 0)
(1.00174 0.00180911 0)
(1.00033 0.00523541 0)
(1.0016 0.00723401 0)
(1.00352 0.00542822 0)
(1.00204 0.00619559 0)
(1.00269 0.00822925 0)
(1.00548 0.00717956 0)
(1.00455 0.00724329 0)
(1.00345 0.00943228 0)
(1.00497 0.00955265 0)
(1.00741 0.00873606 0)
(1.007 0.00846267 0)
(1.00625 0.00975112 0)
(1.007 0.00969645 0)
(1.00905 0.00904268 0)
(1.00954 0.00842758 0)
(1.00911 0.00871403 0)
(1.00033 -0.000349445 0)
(0.998915 0.00285137 0)
(1.00135 0.00326264 0)
(1.00172 0.00199839 0)
(1.00061 0.00481951 0)
(1.00148 0.00701695 0)
(1.00328 0.00566892 0)
(1.00223 0.00607479 0)
(1.00269 0.00799792 0)
(1.0053 0.00728498 0)
(1.00479 0.00714818 0)
(1.00378 0.00905549 0)
(1.00485 0.00940965 0)
(1.0072 0.00875577 0)
(1.00719 0.00825484 0)
(1.00655 0.00933193 0)
(1.0069 0.00949624 0)
(1.00875 0.00903131 0)
(1.00948 0.00830669 0)
(1.00925 0.00852747 0)
(1.00036 -0.000260543 0)
(0.999005 0.00260054 0)
(1.00112 0.00328407 0)
(1.00166 0.00221363 0)
(1.00088 0.00444763 0)
(1.00142 0.00673637 0)
(1.00303 0.00589355 0)
(1.00235 0.00601916 0)
(1.00273 0.00774591 0)
(1.00513 0.00735248 0)
(1.00497 0.00709538 0)
(1.00411 0.00869068 0)
(1.0048 0.00920968 0)
(1.00698 0.00875158 0)
(1.00728 0.00810444 0)
(1.00684 0.00891512 0)
(1.0069 0.00920366 0)
(1.00848 0.00900611 0)
(1.00936 0.00821184 0)
(1.00932 0.00833774 0)
(1.00038 -0.000175318 0)
(0.999103 0.00236958 0)
(1.00092 0.00327441 0)
(1.00158 0.00243299 0)
(1.00112 0.00413447 0)
(1.00142 0.00638311 0)
(1.00281 0.00603481 0)
(1.00244 0.0060397 0)
(1.00278 0.00752603 0)
(1.00497 0.00736249 0)
(1.00509 0.00705254 0)
(1.00443 0.00836372 0)
(1.00481 0.00896247 0)
(1.00676 0.00870247 0)
(1.00729 0.00799539 0)
(1.0071 0.00856803 0)
(1.00699 0.0088535 0)
(1.00824 0.00889335 0)
(1.00917 0.00813085 0)
(1.00936 0.00811785 0)
(1.00039 -9.11824e-05 0)
(0.999203 0.00216304 0)
(1.00077 0.00321876 0)
(1.00148 0.00263603 0)
(1.00132 0.00388901 0)
(1.00147 0.00600738 0)
(1.00263 0.00611081 0)
(1.00248 0.00609538 0)
(1.00282 0.00732215 0)
(1.00483 0.00732885 0)
(1.00517 0.00701619 0)
(1.00472 0.00806127 0)
(1.00486 0.00867199 0)
(1.00656 0.00860805 0)
(1.00725 0.00790872 0)
(1.00729 0.00828263 0)
(1.00712 0.00847976 0)
(1.00809 0.00868786 0)
(1.00896 0.00808957 0)
(1.00935 0.00793133 0)
(1.0004 -1.58533e-05 0)
(0.999305 0.00198277 0)
(1.00065 0.00313121 0)
(1.00136 0.00282167 0)
(1.00148 0.0037227 0)
(1.00156 0.00561431 0)
(1.0025 0.00606658 0)
(1.00251 0.0061564 0)
(1.00286 0.00718461 0)
(1.00471 0.00728568 0)
(1.0052 0.00696804 0)
(1.00497 0.00777868 0)
(1.00496 0.00836537 0)
(1.0064 0.00847406 0)
(1.00716 0.00782199 0)
(1.00741 0.00804771 0)
(1.00726 0.00814493 0)
(1.00802 0.0084054 0)
(1.00874 0.0079896 0)
(1.00925 0.00777201 0)
(1.0004 5.20167e-05 0)
(0.999403 0.00184214 0)
(1.00056 0.00300239 0)
(1.00125 0.00297158 0)
(1.0016 0.00362754 0)
(1.00168 0.00523459 0)
(1.00244 0.00593241 0)
(1.00254 0.00620351 0)
(1.00288 0.00707285 0)
(1.00459 0.00721763 0)
(1.0052 0.00691032 0)
(1.00518 0.00752724 0)
(1.00508 0.00804745 0)
(1.00628 0.00829502 0)
(1.00704 0.00772244 0)
(1.00747 0.00784628 0)
(1.00736 0.00785854 0)
(1.008 0.00809359 0)
(1.00857 0.00780436 0)
(1.00911 0.00766974 0)
(1.00041 0.000107913 0)
(0.999493 0.00173228 0)
(1.00051 0.00286351 0)
(1.00115 0.0030768 0)
(1.00167 0.00359181 0)
(1.00179 0.00490761 0)
(1.00242 0.00572035 0)
(1.00258 0.0061759 0)
(1.0029 0.00696913 0)
(1.00448 0.00715291 0)
(1.00518 0.00685379 0)
(1.00535 0.00730522 0)
(1.00522 0.00772092 0)
(1.0062 0.00807314 0)
(1.00692 0.0075995 0)
(1.00749 0.00765118 0)
(1.00744 0.00760635 0)
(1.008 0.00781981 0)
(1.00847 0.00756658 0)
(1.00896 0.00754232 0)
(1.0004 0.000153023 0)
(0.999574 0.00164962 0)
(1.00049 0.00272116 0)
(1.00107 0.00313759 0)
(1.00171 0.00357713 0)
(1.00189 0.00466453 0)
(1.00245 0.00548416 0)
(1.00265 0.00606542 0)
(1.00293 0.00684641 0)
(1.00437 0.00707081 0)
(1.00512 0.0067755 0)
(1.00547 0.00710373 0)
(1.00537 0.0074074 0)
(1.00617 0.00781403 0)
(1.00681 0.00745165 0)
(1.00748 0.00746121 0)
(1.0075 0.00735987 0)
(1.00798 0.00758068 0)
(1.0084 0.00730796 0)
(1.00884 0.0073305 0)
(1.0004 0.000187427 0)
(0.999645 0.00159197 0)
(1.00048 0.00257834 0)
(1.00101 0.00316096 0)
(1.00172 0.00356125 0)
(1.00197 0.00450051 0)
(1.00249 0.0052663 0)
(1.00274 0.00588571 0)
(1.00297 0.00666455 0)
(1.00427 0.00695742 0)
(1.00504 0.0066914 0)
(1.00555 0.00692025 0)
(1.00551 0.00711242 0)
(1.00618 0.00752362 0)
(1.00672 0.00726651 0)
(1.00743 0.0072803 0)
(1.00754 0.00710062 0)
(1.00795 0.00733058 0)
(1.00831 0.00708316 0)
(1.00877 0.00707506 0)
(1.0004 0.000212011 0)
(0.999705 0.00155009 0)
(1.00049 0.00244976 0)
(1.00097 0.00314367 0)
(1.00173 0.00353993 0)
(1.00203 0.00436171 0)
(1.00252 0.00507848 0)
(1.00283 0.00568406 0)
(1.00304 0.00643291 0)
(1.00419 0.00681375 0)
(1.00495 0.00659442 0)
(1.00558 0.00675066 0)
(1.00561 0.00683695 0)
(1.00621 0.00722496 0)
(1.00666 0.00703866 0)
(1.00736 0.00709388 0)
(1.00756 0.00685836 0)
(1.00796 0.00705095 0)
(1.00821 0.00689445 0)
(1.0087 0.00682493 0)
(1.0004 0.00022899 0)
(0.999755 0.00152097 0)
(1.00051 0.00233161 0)
(1.00094 0.00309602 0)
(1.00172 0.0035025 0)
(1.00208 0.00423388 0)
(1.00255 0.00491128 0)
(1.00292 0.00548329 0)
(1.00312 0.00616927 0)
(1.00414 0.00662822 0)
(1.00486 0.00646945 0)
(1.00557 0.00659374 0)
(1.00569 0.00658821 0)
(1.00625 0.00693474 0)
(1.00662 0.00677668 0)
(1.00729 0.00687617 0)
(1.00753 0.00665029 0)
(1.00797 0.00675378 0)
(1.00813 0.00667732 0)
(1.00859 0.00661171 0)
(1.00039 0.000238877 0)
(0.999795 0.00149721 0)
(1.00053 0.00222622 0)
(1.00093 0.00302601 0)
(1.00172 0.00344753 0)
(1.00212 0.00410996 0)
(1.00258 0.00475124 0)
(1.003 0.00529198 0)
(1.0032 0.00590413 0)
(1.00412 0.00640458 0)
(1.00477 0.00631349 0)
(1.00554 0.00643006 0)
(1.00574 0.00635604 0)
(1.00628 0.00665991 0)
(1.0066 0.00651227 0)
(1.00724 0.00661828 0)
(1.00747 0.00645124 0)
(1.00797 0.00647628 0)
(1.00809 0.00640197 0)
(1.00846 0.00641984 0)
(1.00039 0.000244327 0)
(0.999829 0.00147306 0)
(1.00054 0.00213128 0)
(1.00093 0.00293861 0)
(1.00171 0.00337467 0)
(1.00215 0.00398341 0)
(1.0026 0.00459411 0)
(1.00306 0.00510919 0)
(1.00329 0.00564666 0)
(1.00412 0.00615566 0)
(1.00471 0.00612381 0)
(1.00549 0.00625284 0)
(1.00576 0.00612688 0)
(1.00629 0.0063887 0)
(1.00657 0.00626148 0)
(1.00721 0.00633636 0)
(1.00741 0.00622039 0)
(1.00791 0.00624485 0)