/*--------------------------------*- C++ -*----------------------------------*\
| =========                 |                                                 |
| \\      /  F ield         | OpenFOAM: The Open Source CFD Toolbox           |
|  \\    /   O peration     | Version:  v1912                                 |
|   \\  /    A nd           | Website:  www.openfoam.com                      |
|    \\/     M anipulation  |                                                 |
\*---------------------------------------------------------------------------*/
FoamFile
{
    version     2.0;
    format      ascii;
    class       volVectorField;
    location    "9.05";
    object      U;
}
// * * * * * * * * * * * * * * * * * * * * * * * * * * * * * * * * * * * * * //

dimensions      [0 1 -1 0 0 0 0];


internalField   nonuniform List<vector> 
9600
(
(0.752238 -0.00222234 0)
(1.3829 0.0106268 0)
(0.292573 -0.02811 0)
(1.4415 0.0323941 0)
(0.819699 0.00877114 0)
(1.21694 -0.00757621 0)
(0.685533 0.00496148 0)
(1.37724 0.0139025 0)
(0.550357 0.0198781 0)
(1.30511 0.0398254 0)
(0.732801 0.0129279 0)
(1.27183 0.0180337 0)
(0.793416 0.00888152 0)
(1.23577 0.024909 0)
(0.830788 0.012355 0)
(1.15081 0.0189023 0)
(0.860782 0.00479961 0)
(1.13998 0.00414433 0)
(0.891698 -0.0014292 0)
(1.16703 0.00176538 0)
(0.755593 -0.00359229 0)
(1.38079 0.0148046 0)
(0.321069 -0.0293464 0)
(1.43465 0.029018 0)
(0.84656 0.0108286 0)
(1.23831 -0.00568437 0)
(0.697512 0.00280818 0)
(1.37765 0.0156817 0)
(0.550593 0.0204838 0)
(1.2995 0.0387768 0)
(0.755061 0.0126919 0)
(1.26088 0.0177322 0)
(0.828074 0.00898481 0)
(1.20929 0.0245119 0)
(0.892065 0.0139019 0)
(1.10103 0.01857 0)
(0.947375 0.00519445 0)
(1.0646 0.00277247 0)
(1.00142 -0.00195367 0)
(1.05548 0.000812989 0)
(0.763035 -0.00447654 0)
(1.3769 0.0180829 0)
(0.372345 -0.030162 0)
(1.418 0.0248339 0)
(0.88608 0.0118884 0)
(1.26344 -0.00389646 0)
(0.719822 0.000882981 0)
(1.37964 0.0182995 0)
(0.567901 0.0208771 0)
(1.27549 0.0364482 0)
(0.813757 0.0126496 0)
(1.22788 0.0169769 0)
(0.902363 0.00969307 0)
(1.15706 0.0237512 0)
(0.972179 0.0161547 0)
(1.0521 0.0174437 0)
(1.0037 0.0060295 0)
(1.03121 0.00137787 0)
(1.02931 -0.00148728 0)
(1.04224 0.000609979 0)
(0.775444 -0.00552996 0)
(1.36958 0.020858 0)
(0.447797 -0.0309175 0)
(1.38878 0.0210254 0)
(0.934492 0.0127341 0)
(1.28199 -0.001853 0)
(0.753131 -0.000556555 0)
(1.37729 0.0207902 0)
(0.621149 0.0215317 0)
(1.22067 0.0333864 0)
(0.89679 0.0128845 0)
(1.17878 0.0157819 0)
(0.981436 0.0108458 0)
(1.10748 0.022773 0)
(1.0245 0.0178695 0)
(1.03474 0.0170003 0)
(1.02236 0.00637088 0)
(1.0271 0.0008899 0)
(1.03029 -0.00180958 0)
(1.04082 0.00026856 0)
(0.793864 -0.00668896 0)
(1.35622 0.0233401 0)
(0.545463 -0.0313389 0)
(1.34451 0.0173357 0)
(0.989523 0.0132215 0)
(1.28483 0.000391034 0)
(0.799248 -0.001796 0)
(1.36214 0.0226628 0)
(0.716394 0.0233695 0)
(1.14387 0.0298616 0)
(0.974311 0.0129135 0)
(1.13348 0.0145404 0)
(1.03631 0.0119294 0)
(1.07929 0.0221907 0)
(1.0484 0.0189979 0)
(1.03823 0.0172662 0)
(1.03108 0.00674736 0)
(1.02844 0.000569174 0)
(1.02931 -0.00196088 0)
(1.03574 -0.000154113 0)
(0.818771 -0.00790481 0)
(1.33379 0.0252708 0)
(0.654933 -0.0313338 0)
(1.28541 0.0136913 0)
(1.04456 0.0133058 0)
(1.26626 0.00273818 0)
(0.856003 -0.00289464 0)
(1.32654 0.0237132 0)
(0.832804 0.0263652 0)
(1.07886 0.0265393 0)
(1.02867 0.0124027 0)
(1.10521 0.0136275 0)
(1.06401 0.0127867 0)
(1.07021 0.0221732 0)
(1.05971 0.0197689 0)
(1.04865 0.0177174 0)
(1.04051 0.00731881 0)
(1.03137 0.000587822 0)
(1.02757 -0.00188998 0)
(1.02944 -0.0004929 0)
(0.849275 -0.00915399 0)
(1.30007 0.0265432 0)
(0.760312 -0.0308551 0)
(1.21752 0.010295 0)
(1.08949 0.0131097 0)
(1.2277 0.00500141 0)
(0.914228 -0.00367908 0)
(1.26926 0.0239267 0)
(0.938361 0.0296786 0)
(1.05329 0.0242419 0)
(1.06083 0.0115731 0)
(1.09163 0.0131544 0)
(1.07372 0.0134704 0)
(1.07047 0.0223629 0)
(1.06784 0.0202528 0)
(1.05985 0.0181268 0)
(1.05011 0.00814539 0)
(1.03525 0.00104166 0)
(1.02536 -0.00149252 0)
(1.02247 -0.000594539 0)
(0.882617 -0.0103687 0)
(1.25514 0.0272054 0)
(0.84803 -0.0299752 0)
(1.1513 0.00724969 0)
(1.11516 0.0127658 0)
(1.1778 0.00702646 0)
(0.961783 -0.00407075 0)
(1.19799 0.0234251 0)
(1.01279 0.032336 0)
(1.06302 0.0230897 0)
(1.07759 0.0109293 0)
(1.08277 0.0130568 0)
(1.0726 0.0139701 0)
(1.07181 0.0224103 0)
(1.07339 0.0205015 0)
(1.06803 0.0185038 0)
(1.05696 0.00920626 0)
(1.03823 0.0019174 0)
(1.02319 -0.000711994 0)
(1.01573 -0.000406589 0)
(0.914658 -0.0114567 0)
(1.20228 0.0273836 0)
(0.912737 -0.0288583 0)
(1.09572 0.00466491 0)
(1.11774 0.0123748 0)
(1.12764 0.00873835 0)
(0.99131 -0.00405717 0)
(1.12618 0.0224562 0)
(1.05313 0.0336916 0)
(1.08371 0.022639 0)
(1.083 0.0108504 0)
(1.0716 0.0132664 0)
(1.0639 0.0142505 0)
(1.0689 0.0221886 0)
(1.0734 0.0205796 0)
(1.07002 0.0188595 0)
(1.05879 0.0104084 0)
(1.03881 0.00309127 0)
(1.02105 0.000391516 0)
(1.01044 0.000144687 0)
(0.94147 -0.012334 0)
(1.14753 0.0272298 0)
(0.956512 -0.0276787 0)
(1.0539 0.00264346 0)
(1.1004 0.0120135 0)
(1.08506 0.010102 0)
(1.00367 -0.00368365 0)
(1.06683 0.021253 0)
(1.06656 0.0336446 0)
(1.09504 0.0225102 0)
(1.0788 0.0113801 0)
(1.05723 0.0136997 0)
(1.05055 0.0143463 0)
(1.06005 0.0217268 0)
(1.06644 0.0205301 0)
(1.06489 0.0191582 0)
(1.05524 0.0116015 0)
(1.03669 0.0043912 0)
(1.01889 0.00164988 0)
(1.0071 0.00100016 0)
(0.960965 -0.0129523 0)
(1.098 0.0268644 0)
(0.984426 -0.0265599 0)
(1.02447 0.00121319 0)
(1.07182 0.0117 0)
(1.0529 0.0110779 0)
(1.00508 -0.00304417 0)
(1.02666 0.0199732 0)
(1.06242 0.032617 0)
(1.09032 0.0225443 0)
(1.06736 0.0122997 0)
(1.04232 0.0142557 0)
(1.03641 0.0143543 0)
(1.04733 0.0211352 0)
(1.05444 0.0203839 0)
(1.05457 0.0193487 0)
(1.04786 0.0126504 0)
(1.03262 0.00564004 0)
(1.01672 0.00289122 0)
(1.00552 0.00199237 0)
(0.973372 -0.013309 0)
(1.05923 0.0263578 0)
(1.00125 -0.0255542 0)
(1.00486 0.000338043 0)
(1.04214 0.0114006 0)
(1.03071 0.0116576 0)
(1.00209 -0.00229067 0)
(1.00445 0.0187555 0)
(1.04861 0.031234 0)
(1.07333 0.0226648 0)
(1.05259 0.0132949 0)
(1.02981 0.0148195 0)
(1.02485 0.0143607 0)
(1.03444 0.0205311 0)
(1.04107 0.020187 0)
(1.04238 0.0194063 0)
(1.03898 0.0134634 0)
(1.02779 0.0067065 0)
(1.01473 0.00401723 0)
(1.00518 0.00300344 0)
(0.980492 -0.0134432 0)
(1.03304 0.0257497 0)
(1.0105 -0.0246569 0)
(0.992852 -8.41598e-05 0)
(1.01876 0.0110986 0)
(1.01675 0.0118938 0)
(0.99858 -0.0015438 0)
(0.994204 0.0177217 0)
(1.0314 0.0299531 0)
(1.0519 0.0227856 0)
(1.03864 0.0141092 0)
(1.02121 0.0152774 0)
(1.01737 0.0144125 0)
(1.02416 0.0200072 0)
(1.02943 0.0199864 0)
(1.03121 0.0193434 0)
(1.03065 0.0140125 0)
(1.02326 0.00754316 0)
(1.01313 0.00496345 0)
(1.00557 0.00391372 0)
(0.984479 -0.0134169 0)
(1.01759 0.025072 0)
(1.01466 -0.0238365 0)
(0.986562 -0.00020615 0)
(1.00431 0.0107962 0)
(1.0088 0.0118842 0)
(0.995798 -0.00082946 0)
(0.989882 0.0169253 0)
(1.0156 0.0289457 0)
(1.03292 0.0228139 0)
(1.02828 0.0146133 0)
(1.01645 0.0155747 0)
(1.01359 0.014528 0)
(1.01737 0.019618 0)
(1.02094 0.0198169 0)
(1.02264 0.0191972 0)
(1.02407 0.0143337 0)
(1.01971 0.00814772 0)
(1.01213 0.00571442 0)
(1.0064 0.00467139 0)
(0.986976 -0.0132895 0)
(1.00928 0.0243569 0)
(1.01559 -0.0230603 0)
(0.984176 -0.000173922 0)
(0.997427 0.0105015 0)
(1.00461 0.011742 0)
(0.993728 -0.000138922 0)
(0.987909 0.0163348 0)
(1.00406 0.0281815 0)
(1.01984 0.0226965 0)
(1.02221 0.0148074 0)
(1.01449 0.0157312 0)
(1.01226 0.0147054 0)
(1.01362 0.0193718 0)
(1.01567 0.0196998 0)
(1.01705 0.0190065 0)
(1.01965 0.0144848 0)
(1.01737 0.00855127 0)
(1.01174 0.00629201 0)
(1.00744 0.00529659 0)
(0.988858 -0.0131032 0)
(1.00483 0.0236308 0)
(1.0147 -0.0223065 0)
(0.984044 -9.16409e-05 0)
(0.995173 0.010229 0)
(1.00237 0.0115569 0)
(0.992243 0.000545143 0)
(0.986943 0.015874 0)
(0.997431 0.0275564 0)
(1.01272 0.0224396 0)
(1.01952 0.0147761 0)
(1.01407 0.015798 0)
(1.01213 0.0149332 0)
(1.01198 0.0192427 0)
(1.013 0.0196316 0)
(1.01408 0.0187943 0)
(1.01717 0.0145323 0)
(1.01611 0.0088097 0)
(1.01183 0.00673223 0)
(1.00853 0.00581879 0)
(0.990456 -0.0128827 0)
(1.00223 0.0229103 0)
(1.01303 -0.0215653 0)
(0.984899 -1.80234e-05 0)
(0.994995 0.00998782 0)
(1.00098 0.0113733 0)
(0.991405 0.00122678 0)
(0.986643 0.0154701 0)
(0.994723 0.0269776 0)
(1.00981 0.0220866 0)
(1.01872 0.0146185 0)
(1.01414 0.0158242 0)
(1.01233 0.0151938 0)
(1.01154 0.0191826 0)
(1.01206 0.0195917 0)
(1.01296 0.0185739 0)
(1.01614 0.0145338 0)
(1.01567 0.00898748 0)
(1.01223 0.00706738 0)
(1.00954 0.0062534 0)
(0.991887 -0.012641 0)
(1.00055 0.0222017 0)
(1.01115 -0.0208313 0)
(0.985967 2.35848e-05 0)
(0.995409 0.00978095 0)
(0.9999 0.0112006 0)
(0.991261 0.00190358 0)
(0.986878 0.0150772 0)
(0.994379 0.0263935 0)
(1.00912 0.0216888 0)
(1.01854 0.0144075 0)
(1.01405 0.0158443 0)
(1.01233 0.0154643 0)
(1.01157 0.019143 0)
(1.01199 0.0195596 0)
(1.01294 0.0183479 0)
(1.016 0.0145251 0)
(1.01577 0.00913571 0)
(1.01281 0.00732495 0)
(1.01043 0.00662673 0)
(0.993191 -0.0123847 0)
(0.99939 0.0215056 0)
(1.00937 -0.0201005 0)
(0.986895 2.70806e-05 0)
(0.99579 0.00960701 0)
(0.998875 0.0110289 0)
(0.991682 0.00256589 0)
(0.987557 0.014675 0)
(0.995154 0.0257857 0)
(1.00923 0.0212879 0)
(1.01825 0.0141896 0)
(1.01352 0.0158769 0)
(1.01192 0.015723 0)
(1.01169 0.0190885 0)
(1.01222 0.0195198 0)
(1.01342 0.0181066 0)
(1.01634 0.0145136 0)
(1.01619 0.00928525 0)
(1.01349 0.00753111 0)
(1.01122 0.00696783 0)
(0.994315 -0.0121174 0)
(0.998552 0.0208204 0)
(1.00784 -0.0193679 0)
(0.987567 -3.97808e-06 0)
(0.995965 0.00946492 0)
(0.997814 0.0108459 0)
(0.992429 0.00319934 0)
(0.988641 0.0142619 0)
(0.996383 0.0251569 0)
(1.0094 0.0209135 0)
(1.01752 0.0139906 0)
(1.01255 0.0159246 0)
(1.01105 0.0159529 0)
(1.01175 0.0189933 0)
(1.0125 0.0194602 0)
(1.01412 0.0178429 0)
(1.01692 0.0144881 0)
(1.01678 0.00945147 0)
(1.01423 0.00770758 0)
(1.01193 0.00728357 0)
(0.995132 -0.0118404 0)
(0.998013 0.0201411 0)
(1.00669 -0.0186258 0)
(0.98796 -6.13198e-05 0)
(0.995966 0.00935298 0)
(0.996776 0.0106461 0)
(0.993293 0.00378581 0)
(0.990053 0.0138379 0)
(0.997747 0.0245224 0)
(1.00934 0.0205974 0)
(1.01631 0.0138227 0)
(1.0113 0.0159783 0)
(1.00987 0.0161399 0)
(1.0118 0.018835 0)
(1.01278 0.0193699 0)
(1.01489 0.0175618 0)
(1.01754 0.0144388 0)
(1.01737 0.00964446 0)
(1.0149 0.00787249 0)
(1.01255 0.00756883 0)
(0.995559 -0.0115546 0)
(0.997816 0.0194604 0)
(1.00595 -0.0178657 0)
(0.988117 -0.000138226 0)
(0.99589 0.00926422 0)
(0.995924 0.0104264 0)
(0.994153 0.00431401 0)
(0.99159 0.0134047 0)
(0.998995 0.0238974 0)
(1.00903 0.0203654 0)
(1.01478 0.0136856 0)
(1.01003 0.0160269 0)
(1.00857 0.0162769 0)
(1.01191 0.0185954 0)
(1.01303 0.0192381 0)
(1.01559 0.0172751 0)
(1.01807 0.0143643 0)
(1.01782 0.00987289 0)
(1.01542 0.00804423 0)
(1.01302 0.00781988 0)
(0.995639 -0.0112592 0)
(0.997947 0.0187646 0)
(1.00555 -0.0170767 0)
(0.988152 -0.00022668 0)
(0.995836 0.00918901 0)
(0.995389 0.0101883 0)
(0.994943 0.00478285 0)
(0.993002 0.0129706 0)
(0.999883 0.0232913 0)
(1.00854 0.0202212 0)
(1.01317 0.0135711 0)
(1.00897 0.0160572 0)
(1.00735 0.0163647 0)
(1.01203 0.0182712 0)
(1.01318 0.0190599 0)
(1.01607 0.0169963 0)
(1.01839 0.0142645 0)
(1.01806 0.0101328 0)
(1.01574 0.00823994 0)
(1.01334 0.0080291 0)
(0.995513 -0.0109547 0)
(0.998295 0.0180448 0)
(1.00531 -0.0162553 0)
(0.988207 -0.000319832 0)
(0.995859 0.00911728 0)
(0.995175 0.0099365 0)
(0.995627 0.00519793 0)
(0.994141 0.0125473 0)
(1.00028 0.0227029 0)
(1.00802 0.0201513 0)
(1.01172 0.0134716 0)
(1.00827 0.0160605 0)
(1.00634 0.0164114 0)
(1.01209 0.0178746 0)
(1.01318 0.0188391 0)
(1.01625 0.0167368 0)
(1.01846 0.0141366 0)
(1.01809 0.0104004 0)
(1.01588 0.00847148 0)
(1.01357 0.00819047 0)
(0.995321 -0.0106423 0)
(0.998717 0.0172997 0)
(1.00508 -0.0154029 0)
(0.988388 -0.000416315 0)
(0.995966 0.00903845 0)
(0.995199 0.00967814 0)
(0.996194 0.00557056 0)
(0.995018 0.0121473 0)
(1.00023 0.0221199 0)
(1.00761 0.0201347 0)
(1.0106 0.0133788 0)
(1.00793 0.0160352 0)
(1.0056 0.0164389 0)
(1.01205 0.0174258 0)
(1.01304 0.0185756 0)
(1.01616 0.0165013 0)
(1.01834 0.0139838 0)
(1.018 0.0106459 0)
(1.01591 0.00874927 0)
(1.01376 0.00831202 0)
(0.995159 -0.0103222 0)
(0.999102 0.0165295 0)
(1.00479 -0.0145213 0)
(0.988732 -0.000519067 0)
(0.996124 0.00895217 0)
(0.995374 0.00941919 0)
(0.996657 0.00590955 0)
(0.995733 0.0117821 0)
(0.999864 0.0215279 0)
(1.00736 0.0201469 0)
(1.00989 0.0132908 0)
(1.00784 0.0159742 0)
(1.00518 0.0164698 0)
(1.0119 0.0169543 0)
(1.01286 0.0182692 0)
(1.01587 0.0162909 0)
(1.01811 0.0138148 0)
(1.01787 0.0108392 0)
(1.01587 0.00907698 0)
(1.01395 0.00841983 0)
(0.995074 -0.00999434 0)
(0.999381 0.0157379 0)
(1.00442 -0.0136165 0)
(0.989221 -0.000628372 0)
(0.996276 0.00885688 0)
(0.995653 0.00916433 0)
(0.997041 0.00621905 0)
(0.99639 0.0114611 0)
(0.999332 0.0209176 0)
(1.00722 0.0201565 0)
(1.00956 0.0132156 0)
(1.0079 0.0158769 0)
(1.00503 0.016515 0)
(1.0117 0.0164856 0)
(1.01271 0.0179193 0)
(1.0155 0.0161045 0)
(1.01781 0.013645 0)
(1.01772 0.0109555 0)
(1.01578 0.00943571 0)
(1.01411 0.00855363 0)
(0.995089 -0.00965943 0)
(0.999516 0.0149308 0)
(1.00405 -0.0126978 0)
(0.989816 -0.000738109 0)
(0.996365 0.0087465 0)
(0.996013 0.0089197 0)
(0.997361 0.00650046 0)
(0.99705 0.0111864 0)
(0.998768 0.0202906 0)
(1.00709 0.0201403 0)
(1.00953 0.0131555 0)
(1.00802 0.0157446 0)
(1.00511 0.0165755 0)
(1.01148 0.0160381 0)
(1.01263 0.0175257 0)
(1.0151 0.0159304 0)
(1.01745 0.0134896 0)
(1.01757 0.0109927 0)
(1.01563 0.00979193 0)
(1.01421 0.00875481 0)
(0.99521 -0.00931646 0)
(0.99949 0.014112 0)
(1.0037 -0.0117719 0)
(0.990481 -0.000847142 0)
(0.996358 0.00862003 0)
(0.99643 0.00868402 0)
(0.99761 0.00675835 0)
(0.997724 0.0109609 0)
(0.998277 0.0196473 0)
(1.00685 0.0200848 0)
(1.0097 0.013111 0)
(1.00815 0.01558 0)
(1.00535 0.0166424 0)
(1.01129 0.0156273 0)
(1.01263 0.0170945 0)
(1.01473 0.0157573 0)
(1.01704 0.0133545 0)
(1.01739 0.0109647 0)
(1.01541 0.0101084 0)
(1.01421 0.00904652 0)
(0.995428 -0.00896341 0)
(0.999311 0.0132825 0)
(1.00339 -0.010848 0)
(0.991187 -0.000946172 0)
(0.99626 0.00846773 0)
(0.996868 0.00846009 0)
(0.997777 0.00698783 0)
(0.998391 0.0107803 0)
(0.997938 0.0189958 0)
(1.00646 0.0199839 0)
(1.00994 0.0130745 0)
(1.0083 0.015385 0)
(1.00569 0.0167054 0)
(1.01116 0.0152676 0)
(1.01268 0.0166375 0)
(1.01439 0.0155894 0)
(1.01657 0.0132478 0)
(1.01717 0.0108912 0)
(1.01514 0.0103451 0)
(1.01408 0.00941565 0)
(0.995721 -0.00860218 0)
(0.99902 0.0124505 0)
(1.00314 -0.00993863 0)
(0.991907 -0.00102505 0)
(0.996104 0.00828739 0)
(0.997285 0.00824653 0)
(0.997857 0.00719248 0)
(0.999016 0.0106356 0)
(0.997795 0.018343 0)
(1.00596 0.0198349 0)
(1.0102 0.0130445 0)
(1.00846 0.0151624 0)
(1.00604 0.0167563 0)
(1.01107 0.0149601 0)
(1.01276 0.0161538 0)
(1.0141 0.015434 0)
(1.01607 0.0131868 0)
(1.01691 0.0108058 0)
(1.01484 0.0104844 0)
(1.01386 0.00981202 0)
(0.996055 -0.00822992 0)
(0.998677 0.011615 0)
(1.00291 -0.00904519 0)
(0.992619 -0.00108364 0)
(0.995943 0.00808096 0)
(0.997644 0.00804437 0)
(0.997865 0.00737783 0)
(0.999567 0.0105141 0)
(0.997853 0.017699 0)
(1.00539 0.0196371 0)
(1.01039 0.0130186 0)
(1.00866 0.0149078 0)
(1.00636 0.016794 0)
(1.01101 0.0147154 0)
(1.01286 0.0156429 0)
(1.01385 0.0152757 0)
(1.01553 0.0131736 0)
(1.01661 0.0107329 0)
(1.01456 0.0105357 0)
(1.01359 0.0101709 0)
(0.996398 -0.00784856 0)
(0.998343 0.0107813 0)
(1.00269 -0.00817872 0)
(0.993305 -0.00111123 0)
(0.995829 0.00784376 0)
(0.997924 0.00785915 0)
(0.997828 0.00754456 0)
(1.00003 0.0104014 0)
(0.998081 0.0170653 0)
(1.00483 0.0194005 0)
(1.01048 0.0129949 0)
(1.00889 0.0146081 0)
(1.00662 0.0168053 0)
(1.01093 0.0145474 0)
(1.01294 0.0151303 0)
(1.01364 0.015105 0)
(1.01499 0.0132049 0)
(1.01629 0.0106888 0)
(1.01433 0.0105266 0)
(1.01334 0.0104421 0)
(0.996725 -0.00745902 0)
(0.998066 0.00995321 0)
(1.00245 -0.00734204 0)
(0.993952 -0.00110876 0)
(0.995797 0.00758149 0)
(0.998125 0.00768523 0)
(0.997773 0.00769866 0)
(1.0004 0.0102969 0)
(0.99843 0.016433 0)
(1.00433 0.0191314 0)
(1.01047 0.0129875 0)
(1.00913 0.0142753 0)
(1.00681 0.0167734 0)
(1.01082 0.0144371 0)
(1.01301 0.0146225 0)
(1.01346 0.0149138 0)
(1.01445 0.01328 0)
(1.01596 0.0106813 0)
(1.01416 0.0104823 0)
(1.01315 0.0106058 0)
(0.997024 -0.00706474 0)
(0.997867 0.00913555 0)
(1.00217 -0.0065333 0)
(0.994552 -0.00108124 0)
(0.995861 0.00729929 0)
(0.998257 0.00751832 0)
(0.997725 0.00784014 0)
(1.00071 0.0101974 0)
(0.998844 0.0158073 0)
(1.00391 0.0188273 0)
(1.01035 0.0129917 0)
(1.00938 0.0139178 0)
(1.00693 0.0167043 0)
(1.01064 0.0143891 0)
(1.01304 0.0141229 0)
(1.01333 0.0146827 0)
(1.01392 0.013395 0)
(1.01559 0.0107171 0)
(1.01404 0.0104217 0)
(1.01305 0.0106678 0)
(0.997292 -0.00666619 0)
(0.997748 0.0083303 0)
(1.00187 -0.00575835 0)
(0.995103 -0.00102864 0)
(0.996016 0.00700089 0)
(0.998341 0.00736075 0)
(0.997695 0.007964 0)
(1.00096 0.0101057 0)
(0.999283 0.0151821 0)
(1.00356 0.01849 0)
(1.01013 0.0130108 0)
(1.00963 0.0135315 0)
(1.00702 0.0165773 0)
(1.01039 0.0144167 0)
(1.01304 0.0136527 0)
(1.01325 0.0143971 0)
(1.01341 0.0135467 0)
(1.01518 0.0108076 0)
(1.01395 0.0103571 0)
(1.01302 0.0106685 0)
(0.997533 -0.00626612 0)
(0.997696 0.00754199 0)
(1.00154 -0.00501507 0)
(0.995605 -0.000959504 0)
(0.996245 0.00669292 0)
(0.9984 0.00720635 0)
(0.997688 0.00806317 0)
(1.00119 0.0100163 0)
(0.999718 0.0145641 0)
(1.00327 0.0181206 0)
(1.00983 0.0130572 0)
(1.00986 0.0131379 0)
(1.00709 0.0163633 0)
(1.01007 0.0145064 0)
(1.01299 0.0132355 0)
(1.01323 0.0140322 0)
(1.01294 0.0137153 0)
(1.01472 0.010968 0)
(1.01387 0.0102749 0)
(1.01306 0.0106046 0)
(0.997751 -0.00586935 0)
(0.997692 0.00677789 0)
(1.0012 -0.00430734 0)
(0.996059 -0.00087786 0)
(0.996523 0.00638788 0)
(0.998449 0.0070492 0)
(0.997699 0.00815187 0)
(1.00138 0.00992497 0)
(1.00014 0.0139454 0)
(1.00303 0.0177078 0)
(1.00946 0.0131153 0)
(1.01006 0.0127647 0)
(1.00717 0.0160592 0)
(1.0097 0.0146315 0)
(1.01287 0.0129135 0)
(1.01326 0.0135833 0)
(1.01253 0.0138581 0)
(1.01421 0.0112389 0)
(1.01375 0.0102225 0)
(1.01315 0.0104686 0)
(0.99795 -0.00547264 0)
(0.997722 0.00603555 0)
(1.00087 -0.00363266 0)
(0.99647 -0.000792001 0)
(0.996826 0.00609387 0)
(0.998502 0.00689288 0)
(0.997728 0.00820611 0)
(1.00156 0.00986234 0)
(1.00054 0.0133452 0)
(1.00284 0.0172429 0)
(1.00903 0.0131786 0)
(1.01023 0.0124278 0)
(1.00728 0.0156718 0)
(1.0093 0.0147484 0)
(1.01267 0.0127035 0)
(1.01334 0.0130802 0)
(1.01221 0.0138933 0)
(1.01365 0.0115899 0)
(1.01357 0.0102577 0)
(1.01326 0.0103013 0)
(0.998135 -0.00508277 0)
(0.997773 0.00532132 0)
(1.00054 -0.00298967 0)
(0.996843 -0.000702103 0)
(0.997136 0.0058064 0)
(0.998557 0.00674924 0)
(0.997773 0.00823319 0)
(1.00172 0.00977961 0)
(1.00092 0.0127772 0)
(1.00269 0.0167576 0)
(1.00857 0.013227 0)
(1.01035 0.0121388 0)
(1.00741 0.0152171 0)
(1.00888 0.0148308 0)
(1.01237 0.012597 0)
(1.01343 0.0125838 0)
(1.012 0.0138219 0)
(1.01307 0.0119745 0)
(1.01329 0.0103877 0)
(1.01334 0.0101166 0)
(0.998307 -0.00469743 0)
(0.997839 0.00463793 0)
(1.00023 -0.0023899 0)
(0.997182 -0.000612825 0)
(0.997443 0.00552666 0)
(0.99862 0.00661103 0)
(0.997824 0.00823469 0)
(1.00185 0.00971451 0)
(1.00129 0.012216 0)
(1.00258 0.0162437 0)
(1.00809 0.0132835 0)
(1.01042 0.0118695 0)
(1.00759 0.0147144 0)
(1.00848 0.0148461 0)
(1.01199 0.0125832 0)
(1.01351 0.0120859 0)
(1.0119 0.0136221 0)
(1.0125 0.012376 0)
(1.0129 0.010669 0)
(1.01335 0.0100251 0)
(0.998466 -0.00431699 0)
(0.997917 0.00398021 0)
(0.99994 -0.00181879 0)
(0.997492 -0.000511742 0)
(0.997741 0.00523608 0)
(0.998686 0.00648471 0)
(0.997888 0.00819718 0)
(1.00196 0.00963055 0)
(1.00163 0.0117027 0)
(1.00252 0.0156772 0)
(1.00759 0.0133053 0)
(1.01043 0.0116859 0)
(1.0078 0.0141466 0)
(1.00812 0.0147846 0)
(1.01151 0.0126624 0)
(1.01355 0.0116852 0)
(1.01192 0.0132279 0)
(1.01201 0.0126928 0)
(1.01241 0.0110313 0)
(1.01323 0.0100506 0)
(0.998614 -0.00394941 0)
(0.998008 0.00336322 0)
(0.99967 -0.00129471 0)
(0.997771 -0.00040417 0)
(0.998028 0.0049531 0)
(0.998758 0.00637378 0)
(0.997949 0.0081393 0)
(1.00204 0.0095377 0)
(1.00196 0.0112177 0)
(1.00248 0.015111 0)
(1.0071 0.0132672 0)
(1.01036 0.0115347 0)
(1.00802 0.0136078 0)
(1.00783 0.0145716 0)
(1.01097 0.0127484 0)
(1.0135 0.0113786 0)
(1.01203 0.0126903 0)
(1.01162 0.0127811 0)
(1.01186 0.0113391 0)
(1.013 0.010114 0)
(0.99875 -0.00358483 0)
(0.998108 0.00277529 0)
(0.999419 -0.000819343 0)
(0.998022 -0.00026048 0)
(0.998307 0.00463571 0)
(0.998833 0.00627479 0)
(0.998017 0.00806119 0)
(1.00209 0.00944782 0)
(1.00226 0.0107373 0)
(1.00249 0.0145554 0)
(1.00662 0.0132258 0)
(1.01024 0.01137 0)
(1.00823 0.0130679 0)
(1.00759 0.014322 0)
(1.01041 0.012848 0)
(1.01334 0.0111121 0)
(1.01219 0.0120943 0)
(1.01136 0.0125487 0)
(1.01129 0.0115392 0)
(1.01268 0.0102344 0)
(0.998873 -0.00323662 0)
(0.998221 0.00222983 0)
(0.999195 -0.000391888 0)
(0.998233 -0.000102046 0)
(0.998577 0.00431356 0)
(0.998926 0.00617809 0)
(0.998075 0.00798412 0)
(1.0021 0.00930462 0)
(1.00253 0.0103229 0)
(1.00254 0.0139623 0)
(1.00615 0.0131218 0)
(1.01004 0.0113123 0)
(1.00846 0.0124951 0)
(1.00744 0.0139511 0)
(1.0098 0.0129088 0)
(1.01305 0.0109815 0)
(1.01232 0.0115728 0)
(1.01121 0.0121958 0)
(1.0108 0.0116925 0)
(1.01229 0.0104372 0)
(0.998985 -0.00289647 0)
(0.998348 0.00172374 0)
(0.998991 -2.85561e-05 0)
(0.998411 9.18513e-05 0)
(0.998839 0.0039811 0)
(0.999032 0.00606915 0)
(0.998135 0.00789693 0)
(1.00209 0.00918494 0)
(1.00278 0.00989312 0)
(1.00262 0.0133786 0)
(1.00573 0.0130081 0)
(1.00978 0.0112174 0)
(1.00861 0.0119626 0)
(1.00735 0.0135611 0)
(1.00924 0.0128747 0)
(1.01267 0.0109497 0)
(1.01241 0.0111487 0)
(1.01118 0.0118462 0)
(1.01038 0.0118446 0)
(1.01185 0.0107622 0)
(0.999083 -0.00257169 0)
(0.998485 0.00126084 0)
(0.998823 0.000283523 0)
(0.998546 0.000322885 0)
(0.999085 0.00363655 0)
(0.999163 0.00594551 0)
(0.998193 0.00782544 0)
(1.00204 0.00903394 0)
(1.00299 0.00946839 0)
(1.00274 0.0128257 0)
(1.00532 0.0128208 0)
(1.00945 0.0111348 0)
(1.00879 0.0115154 0)
(1.00733 0.0130706 0)
(1.00868 0.0127872 0)
(1.0122 0.0110216 0)
(1.01243 0.0107324 0)
(1.01126 0.0114727 0)
(1.01014 0.0118528 0)
(1.01135 0.0110371 0)
(0.99917 -0.00226659 0)
(0.998633 0.000853958 0)
(0.998681 0.000524391 0)
(0.998647 0.000570413 0)
(0.99932 0.00333462 0)
(0.99932 0.00578363 0)
(0.998252 0.00776238 0)
(1.00196 0.00889287 0)
(1.00318 0.00909383 0)
(1.00288 0.0122251 0)
(1.00496 0.0126052 0)
(1.00909 0.0111093 0)
(1.00885 0.0110444 0)
(1.00734 0.0125152 0)
(1.00825 0.0126987 0)
(1.01165 0.0111172 0)
(1.01236 0.0104543 0)
(1.01141 0.011074 0)
(1.00997 0.0116955 0)
(1.01092 0.0111886 0)
(0.999245 -0.00197224 0)
(0.998787 0.000484667 0)
(0.998581 0.000705796 0)
(0.998713 0.000846657 0)
(0.999528 0.00306153 0)
(0.999505 0.00557638 0)
(0.998322 0.00768535 0)
(1.00185 0.00878937 0)
(1.00331 0.00870289 0)
(1.00307 0.0116211 0)
(1.00465 0.0123789 0)
(1.00864 0.0110446 0)
(1.00889 0.0106382 0)
(1.00746 0.0120591 0)
(1.00786 0.0124953 0)
(1.01104 0.0111826 0)
(1.01217 0.0104036 0)
(1.01155 0.0106921 0)
(1.00996 0.0115138 0)
(1.01056 0.0113493 0)
(0.99931 -0.00170455 0)
(0.998945 0.000180737 0)
(0.998516 0.000817682 0)
(0.998755 0.00111165 0)
(0.999712 0.00285505 0)
(0.999716 0.00531985 0)
(0.998414 0.00760041 0)
(1.0017 0.00870375 0)
(1.00341 0.00836274 0)
(1.00327 0.0110276 0)
(1.0044 0.0120553 0)
(1.00818 0.011025 0)
(1.00883 0.0103371 0)
(1.00755 0.0114948 0)
(1.00758 0.012224 0)
(1.01049 0.0112639 0)
(1.01189 0.0104245 0)
(1.01166 0.0103856 0)
(1.01006 0.0112405 0)
(1.01028 0.0113409 0)
(0.999365 -0.0014553 0)
(0.999102 -7.11084e-05 0)
(0.998492 0.000872038 0)
(0.998779 0.00138347 0)
(0.99986 0.00270059 0)
(0.999952 0.00503051 0)
(0.998535 0.007465 0)
(1.00152 0.00865417 0)
(1.00345 0.00809054 0)
(1.00349 0.0104064 0)
(1.00423 0.011695 0)
(1.00769 0.0109863 0)
(1.0087 0.0100786 0)
(1.00771 0.01103 0)
(1.0074 0.0119553 0)
(1.00994 0.0112337 0)
(1.0115 0.0104328 0)
(1.01166 0.0101664 0)
(1.01021 0.0108693 0)
(1.0101 0.0111552 0)
(0.999414 -0.00123087 0)
(0.999256 -0.000267842 0)
(0.998505 0.000876454 0)
(0.998793 0.00162627 0)
(0.999973 0.00261352 0)
(1.0002 0.00471654 0)
(0.9987 0.00727618 0)
(1.00134 0.00863294 0)
(1.00342 0.00789441 0)
(1.00371 0.00981687 0)
(1.00413 0.011259 0)
(1.00722 0.0109109 0)
(1.00849 0.00994225 0)
(1.00782 0.0105593 0)
(1.00728 0.0115423 0)
(1.00946 0.011133 0)
(1.01109 0.0104675 0)
(1.01159 0.0100531 0)
(1.01034 0.0105212 0)
(1.01005 0.0108641 0)
(0.999456 -0.00102987 0)
(0.999401 -0.000414391 0)
(0.998556 0.000835457 0)
(0.998808 0.00184207 0)
(1.00005 0.00258573 0)
(1.00045 0.004414 0)
(0.998915 0.0070291 0)
(1.00116 0.00858927 0)
(1.00333 0.00777403 0)
(1.00391 0.00928506 0)
(1.00411 0.0107601 0)
(1.00679 0.0107873 0)
(1.0082 0.00983524 0)
(1.0079 0.010131 0)
(1.00726 0.0111495 0)
(1.00907 0.0110274 0)
(1.01065 0.0104358 0)
(1.01138 0.00991473 0)
(1.0104 0.0102109 0)
(1.01007 0.0105009 0)
(0.999493 -0.000854871 0)
(0.999536 -0.000506624 0)
(0.998639 0.000766302 0)
(0.998831 0.00201313 0)
(1.00008 0.00260835 0)
(1.0007 0.00413714 0)
(0.999178 0.00670989 0)
(1.00101 0.00852929 0)
(1.00318 0.00772781 0)
(1.00406 0.00883443 0)
(1.00415 0.0102171 0)
(1.00641 0.0105606 0)
(1.00786 0.00974835 0)
(1.00792 0.00982255 0)
(1.00728 0.0107237 0)
(1.00872 0.0107771 0)
(1.01019 0.0103131 0)
(1.01114 0.00979483 0)
(1.01041 0.010006 0)
(1.01012 0.0101818 0)
(0.999525 -0.000705554 0)
(0.999658 -0.000551716 0)
(0.99875 0.000677979 0)
(0.998869 0.00213883 0)
(1.00008 0.00266833 0)
(1.00092 0.00390546 0)
(0.999491 0.00633099 0)
(1.00091 0.00841261 0)
(1.00299 0.00771336 0)
(1.00415 0.00847624 0)
(1.00423 0.00968014 0)
(1.00612 0.0102635 0)
(1.00752 0.00964063 0)
(1.00787 0.00956519 0)
(1.0073 0.0102843 0)
(1.00845 0.0104789 0)
(1.00977 0.0102019 0)
(1.01087 0.00968733 0)
(1.01035 0.00979631 0)
(1.0101 0.00988726 0)
(0.999555 -0.000580555 0)
(0.999767 -0.000550923 0)
(0.99888 0.000579132 0)
(0.998929 0.00220613 0)
(1.00006 0.00275394 0)
(1.00111 0.00374248 0)
(0.999836 0.00590253 0)
(1.00087 0.00821781 0)
(1.00279 0.00772167 0)
(1.00419 0.00820553 0)
(1.00432 0.00916624 0)
(1.0059 0.00990679 0)
(1.00718 0.00948923 0)
(1.00776 0.00933275 0)
(1.00731 0.00988874 0)
(1.00826 0.0101568 0)
(1.00938 0.0100226 0)
(1.01055 0.00953057 0)
(1.01024 0.00954915 0)
(1.01004 0.00965616 0)
(0.999582 -0.00047961 0)
(0.999858 -0.000514018 0)
(0.999023 0.000482755 0)
(0.999013 0.00222303 0)
(1.00003 0.00284503 0)
(1.00125 0.00364994 0)
(1.0002 0.00546815 0)
(1.00091 0.00794298 0)
(1.00257 0.00770776 0)
(1.00414 0.0079979 0)
(1.00441 0.00869311 0)
(1.00575 0.00951051 0)
(1.00687 0.00930282 0)
(1.00761 0.00912126 0)
(1.00731 0.00951881 0)
(1.0081 0.00980117 0)
(1.00904 0.00978442 0)
(1.01021 0.00939367 0)
(1.01012 0.00932999 0)
(1.00997 0.00943339 0)
(0.999608 -0.000399243 0)
(0.999934 -0.000449638 0)
(0.999169 0.000399972 0)
(0.999121 0.00219207 0)
(0.999993 0.00291842 0)
(1.00134 0.00364321 0)
(1.00056 0.00506248 0)
(1.00102 0.00755984 0)
(1.00239 0.0076387 0)
(1.00404 0.00785077 0)
(1.00447 0.00829742 0)
(1.00565 0.00908197 0)
(1.00659 0.00904514 0)
(1.00742 0.00891338 0)
(1.00727 0.00918169 0)
(1.00798 0.0094499 0)
(1.00876 0.00951102 0)
(1.00988 0.00923337 0)
(1.00995 0.0091109 0)
(1.00988 0.00913815 0)
(0.999632 -0.00033553 0)
(0.999995 -0.000368638 0)
(0.999312 0.000336642 0)
(0.999251 0.00212973 0)
(0.99997 0.00296198 0)
(1.00138 0.00368938 0)
(1.00088 0.00472846 0)
(1.00119 0.00710598 0)
(1.00226 0.00749358 0)
(1.0039 0.00770985 0)
(1.00448 0.00795205 0)
(1.00558 0.00865063 0)
(1.00637 0.00873817 0)
(1.00723 0.00869844 0)
(1.00721 0.00888488 0)
(1.00787 0.00911049 0)
(1.00852 0.00919574 0)
(1.00956 0.00900238 0)
(1.00973 0.00891099 0)
(1.00979 0.00885733 0)
(0.999654 -0.000286396 0)
(1.00004 -0.000278427 0)
(0.999445 0.000298432 0)
(0.999397 0.00204599 0)
(0.999966 0.0029707 0)
(1.00138 0.00373797 0)
(1.00115 0.00449002 0)
(1.00141 0.00663693 0)
(1.00218 0.00725346 0)
(1.00375 0.00754913 0)
(1.00445 0.00765462 0)
(1.00552 0.00826385 0)
(1.0062 0.00841491 0)
(1.00704 0.00844173 0)
(1.00711 0.00858127 0)
(1.00775 0.00877459 0)
(1.00831 0.00887618 0)
(1.0093 0.00873194 0)
(1.00951 0.00870445 0)
(1.00965 0.00861424 0)
(0.999675 -0.000247072 0)
(1.00008 -0.000186427 0)
(0.999563 0.000286404 0)
(0.999552 0.00194608 0)
(0.999982 0.00294408 0)
(1.00136 0.00376862 0)
(1.00135 0.00432222 0)
(1.00163 0.00619166 0)
(1.00217 0.00693424 0)
(1.00359 0.00736683 0)
(1.00438 0.00739258 0)
(1.00545 0.00789037 0)
(1.00605 0.00807013 0)
(1.00686 0.00815955 0)
(1.00701 0.00827273 0)
(1.00764 0.00845559 0)
(1.00812 0.00858084 0)
(1.00905 0.00844891 0)
(1.0093 0.00843077 0)
(1.00947 0.00836924 0)
(0.999694 -0.000215402 0)
(1.0001 -9.94552e-05 0)
(0.999662 0.000302392 0)
(0.99971 0.00183922 0)
(1.00002 0.00288098 0)
(1.00133 0.00377679 0)
(1.0015 0.00419995 0)
(1.00184 0.00579921 0)
(1.00222 0.00656464 0)
(1.00347 0.00713535 0)
(1.00428 0.00714526 0)
(1.00537 0.00753443 0)
(1.00593 0.00771266 0)
(1.0067 0.00787817 0)
(1.00689 0.00797828 0)
(1.00753 0.00812307 0)
(1.00792 0.00826814 0)
(1.00879 0.00816375 0)
(1.0091 0.00811615 0)
(1.00929 0.00810799 0)
(0.999711 -0.000186419 0)
(1.00012 -2.4207e-05 0)
(0.999741 0.000338809 0)
(0.999861 0.00173588 0)
(1.00008 0.00278567 0)
(1.0013 0.00375515 0)
(1.00161 0.00409702 0)
(1.00202 0.00546456 0)
(1.00229 0.00618182 0)
(1.00337 0.00685023 0)
(1.00416 0.00690134 0)
(1.00527 0.00722227 0)
(1.00582 0.00735386 0)
(1.00656 0.00755692 0)
(1.00676 0.00767885 0)
(1.00742 0.00777714 0)
(1.00776 0.00792187 0)
(1.00854 0.00789256 0)
(1.00891 0.00781362 0)
(1.00913 0.00781322 0)
(0.999726 -0.000160024 0)
(1.00014 3.84282e-05 0)
(0.999801 0.000387076 0)
(0.999998 0.00164376 0)
(1.00015 0.00266704 0)
(1.00127 0.00370433 0)
(1.00167 0.00399762 0)
(1.00216 0.00517423 0)
(1.00238 0.00581122 0)
(1.00332 0.00652784 0)
(1.00405 0.00663288 0)
(1.00514 0.00692847 0)
(1.0057 0.00701942 0)
(1.00644 0.00720605 0)
(1.00663 0.0073617 0)
(1.00728 0.00745932 0)
(1.00763 0.00755934 0)
(1.0083 0.0076008 0)
(1.00868 0.007526 0)
(1.00898 0.00748304 0)