/*--------------------------------*- C++ -*----------------------------------*\
| =========                 |                                                 |
| \\      /  F ield         | OpenFOAM: The Open Source CFD Toolbox           |
|  \\    /   O peration     | Version:  v1912                                 |
|   \\  /    A nd           | Website:  www.openfoam.com                      |
|    \\/     M anipulation  |                                                 |
\*---------------------------------------------------------------------------*/
FoamFile
{
    version     2.0;
    format      ascii;
    class       volScalarField;
    location    "7";
    object      p;
}
// * * * * * * * * * * * * * * * * * * * * * * * * * * * * * * * * * * * * * //

dimensions      [0 2 -2 0 0 0 0];


internalField   nonuniform List<scalar> 
9600
(
1.39524e-10
0.00382475
0.00360904
0.0014834
0.00142959
-0.000261398
0.00131432
0.00181026
0.0050105
0.0045331
0.00473627
0.0016531
-0.00106902
-0.000690405
-0.00445743
-0.000892176
-0.00344866
-0.00113757
-0.00413725
-0.00289559
-3.96572e-06
0.00382816
0.00360728
0.00148294
0.00143465
-0.000253983
0.00132055
0.00180828
0.00501523
0.00450008
0.00473364
0.00161785
-0.00106003
-0.000703846
-0.00443104
-0.000877383
-0.00342402
-0.00111749
-0.00410474
-0.00291876
-8.89906e-06
0.00383348
0.0036058
0.00148349
0.0014405
-0.00024902
0.00132756
0.00180178
0.00500749
0.00445513
0.00471198
0.00158893
-0.00105568
-0.000697075
-0.00436023
-0.000897692
-0.00336733
-0.00108658
-0.00408344
-0.00293614
-1.4367e-05
0.00383762
0.00360336
0.00148416
0.0014464
-0.000245611
0.00133097
0.00179217
0.00499706
0.00439969
0.00468191
0.0015644
-0.00104805
-0.000672243
-0.00425483
-0.000949162
-0.00329435
-0.00116555
-0.00405191
-0.00298559
-2.04153e-05
0.00383997
0.00359936
0.00148487
0.00145282
-0.000244395
0.00133329
0.00178247
0.00498645
0.00433969
0.00464786
0.00154695
-0.00103646
-0.000637276
-0.00413267
-0.00101682
-0.00322571
-0.00125518
-0.0040131
-0.00307584
-2.68921e-05
0.00384076
0.00359383
0.0014857
0.00145958
-0.000245087
0.00133685
0.00177175
0.00497437
0.00427749
0.00461255
0.00153468
-0.00101992
-0.000600282
-0.00400352
-0.0010942
-0.0031596
-0.00134205
-0.00398276
-0.00318935
-3.34157e-05
0.00384036
0.00358706
0.00148672
0.0014666
-0.000246907
0.00134152
0.0017591
0.00496025
0.00421369
0.00457802
0.00152599
-0.000998732
-0.000564458
-0.00387087
-0.0011763
-0.00309501
-0.00142339
-0.0039653
-0.00331885
-3.95115e-05
0.00383912
0.00357951
0.00148805
0.00147404
-0.000248127
0.00134826
0.00174524
0.00494341
0.00414652
0.00454531
0.00152051
-0.000973092
-0.000531828
-0.00373672
-0.00125742
-0.00303392
-0.00150238
-0.00395304
-0.00345439
-4.47921e-05
0.00383738
0.00357163
0.00148978
0.00148226
-0.000245334
0.00135983
0.00173138
0.00492307
0.0040737
0.00451513
0.00151857
-0.000943358
-0.000502849
-0.00360226
-0.00133325
-0.00298005
-0.0015798
-0.00393869
-0.00359999
-4.91121e-05
0.00383545
0.00356383
0.00149196
0.00149147
-0.00023472
0.00137909
0.00171859
0.00489904
0.00399395
0.00448752
0.00152024
-0.000909975
-0.000476291
-0.00346896
-0.00140153
-0.00293527
-0.00165355
-0.00392262
-0.00376269
-5.26263e-05
0.00383353
0.00355638
0.00149462
0.00150176
-0.00021396
0.00140723
0.00170755
0.00487168
0.00390817
0.00446156
0.00152516
-0.000873394
-0.000450427
-0.00333846
-0.00146021
-0.00289907
-0.00172395
-0.00390639
-0.00394237
-5.56846e-05
0.00383165
0.0035495
0.00149776
0.00151315
-0.000183377
0.00144312
0.00169817
0.00484145
0.00381893
0.00443539
0.00153294
-0.000834236
-0.000423668
-0.00321245
-0.00150811
-0.00286924
-0.00179279
-0.0038866
-0.00412032
-5.8625e-05
0.00382965
0.00354327
0.00150132
0.00152548
-0.000145702
0.00148364
0.00168962
0.00480857
0.00372922
0.00440667
0.00154317
-0.000793443
-0.000394264
-0.00309264
-0.00154579
-0.00284232
-0.00186117
-0.00385871
-0.00432443
-6.16021e-05
0.00382724
0.00353761
0.00150525
0.00153858
-0.000104363
0.00152523
0.00168119
0.00477293
0.00364093
0.00437292
0.00155539
-0.000752427
-0.000361005
-0.00298022
-0.001574
-0.00281454
-0.00193124
-0.00381935
-0.00453109
-6.45245e-05
0.00382409
0.00353234
0.00150944
0.00155244
-6.17127e-05
0.00156557
0.00167287
0.00473413
0.00355407
0.00433202
0.00156917
-0.000712776
-0.000324151
-0.00287587
-0.0015933
-0.00278187
-0.00200648
-0.00376625
-0.00472852
-6.71372e-05
0.0038199
0.00352727
0.00151365
0.00156704
-1.85628e-05
0.00160395
0.00166547
0.00469154
0.00346747
0.00428285
0.00158401
-0.000675759
-0.00028423
-0.00277998
-0.00160545
-0.00274115
-0.00209059
-0.00369967
-0.00490355
-6.91769e-05
0.00381452
0.00352232
0.00151762
0.00158246
2.54646e-05
0.00164066
0.00166014
0.00464438
0.00337993
0.00422508
0.00159977
-0.000642237
-0.00024162
-0.00269191
-0.00161307
-0.00269129
-0.00218658
-0.0036226
-0.00504458
-7.04677e-05
0.00380785
0.00351747
0.00152114
0.00159871
7.10942e-05
0.00167631
0.00165763
0.00459177
0.00329117
0.0041585
0.00161717
-0.000612853
-0.00019665
-0.00261021
-0.00161933
-0.00263137
-0.00229441
-0.00354171
-0.00514511
-7.09275e-05
0.00379983
0.00351281
0.00152414
0.00161585
0.000118694
0.00171117
0.00165805
0.0045329
0.00320214
0.00408271
0.00163758
-0.000587875
-0.000149682
-0.00253283
-0.00162809
-0.00255989
-0.0024113
-0.00346549
-0.00520347
-7.05223e-05
0.00379038
0.00350849
0.00152659
0.00163393
0.000168237
0.00174493
0.00166119
0.00446714
0.00311462
0.00399736
0.00166213
-0.000567114
-0.000101951
-0.00245678
-0.00164347
-0.00247541
-0.00253296
-0.00340249
-0.00521966
-6.92146e-05
0.00377934
0.00350466
0.00152848
0.00165295
0.00021947
0.00177705
0.00166672
0.00439393
0.00303069
0.00390186
0.00169098
-0.000550002
-5.56715e-05
-0.00237859
-0.00166875
-0.00237784
-0.00265309
-0.00336145
-0.00519432
-6.69252e-05
0.00376651
0.00350147
0.0015298
0.00167287
0.000272065
0.00180687
0.00167451
0.00431279
0.00295194
0.00379618
0.00172366
-0.000535464
-1.35558e-05
-0.00229493
-0.00170537
-0.00226998
-0.00276389
-0.0033483
-0.00513005
-6.35241e-05
0.00375161
0.00349904
0.0015305
0.00169368
0.000325761
0.00183361
0.0016847
0.00422324
0.00287932
0.00368041
0.00175954
-0.000521879
2.14439e-05
-0.00220338
-0.00175361
-0.00215675
-0.00285645
-0.00336528
-0.00503383
-5.88434e-05
0.00373432
0.00349753
0.00153058
0.00171526
0.000380452
0.00185657
0.00169753
0.00412474
0.00281325
0.00355535
0.00179754
-0.000507178
4.63709e-05
-0.00210274
-0.00181245
-0.00204494
-0.00292288
-0.0034098
-0.00491646
-5.26804e-05
0.00371428
0.00349706
0.00153006
0.00173746
0.000436218
0.00187493
0.00171329
0.00401704
0.00275364
0.00342247
0.00183571
-0.000488573
5.8836e-05
-0.00199316
-0.00187865
-0.00194218
-0.00295777
-0.00347566
-0.0047907
-4.47923e-05
0.00369109
0.00349774
0.00152899
0.0017601
0.000493258
0.00188785
0.00173236
0.00390012
0.00269987
0.00328394
0.00187119
-0.000463472
5.77066e-05
-0.00187625
-0.00194747
-0.00185486
-0.00295768
-0.00355546
-0.00467042
-3.49109e-05
0.00366432
0.00349968
0.00152743
0.00178298
0.000551803
0.00189455
0.00175507
0.00377395
0.00265107
0.0031425
0.00190112
-0.000430766
4.27872e-05
-0.00175419
-0.00201346
-0.00178769
-0.00292331
-0.00364029
-0.00456662
-2.2766e-05
0.0036335
0.00350298
0.00152557
0.00180579
0.000612202
0.00189438
0.00178117
0.00363897
0.0026064
0.0030012
0.00192295
-0.000389707
1.5209e-05
-0.00163028
-0.00207183
-0.0017432
-0.00285863
-0.00371961
-0.00448594
-8.06338e-06
0.00359815
0.0035077
0.00152366
0.00182812
0.000675015
0.00188671
0.00180998
0.00349652
0.00256438
0.00286388
0.00193439
-0.00034021
-2.24307e-05
-0.00150868
-0.00211842
-0.00172154
-0.00276951
-0.00378298
-0.00443265
9.52041e-06
0.0035578
0.0035139
0.00152199
0.00184946
0.000740894
0.00187111
0.00184087
0.00334855
0.00252248
0.00273409
0.00193366
-0.000283764
-6.68122e-05
-0.00139282
-0.00215019
-0.00172155
-0.00266315
-0.00382047
-0.0044068
3.03264e-05
0.00351203
0.00352154
0.00152098
0.00186911
0.000810364
0.00184751
0.00187289
0.00319735
0.00247796
0.00261418
0.00192059
-0.00022277
-0.000114868
-0.00128505
-0.00216556
-0.00174075
-0.00254704
-0.00382367
-0.00440393
5.47239e-05
0.00346033
0.00353049
0.00152121
0.00188626
0.000883903
0.00181624
0.00190458
0.00304583
0.00242808
0.00250561
0.00189716
-0.000160553
-0.000164215
-0.00118689
-0.00216311
-0.0017745
-0.00243018
-0.00378788
-0.00441587
8.31055e-05
0.00340224
0.00354048
0.00152339
0.00189996
0.0009621
0.00177814
0.00193369
0.00289728
0.0023715
0.00240905
0.00186617
-0.000100297
-0.00021329
-0.00109977
-0.00214201
-0.00181701
-0.00232147
-0.00371198
-0.00442865
0.000115858
0.00333745
0.00355114
0.00152839
0.00190889
0.00104533
0.00173486
0.00195729
0.00275494
0.00230172
0.00232277
0.00183116
-4.42796e-05
-0.000261468
-0.00102424
-0.00210278
-0.00186244
-0.00222757
-0.0035988
-0.00442488
0.000153359
0.00326575
0.00356184
0.0015373
0.00191181
0.00113329
0.00168838
0.00197249
0.0026217
0.00222106
0.00224358
0.00179587
6.86163e-06
-0.000309293
-0.000960183
-0.00204644
-0.00190475
-0.00215237
-0.00345702
-0.00438966
0.000196
0.00318699
0.00357172
0.0015512
0.00190805
0.00122551
0.00164086
0.00197631
0.00249921
0.00213303
0.00216824
0.00176222
5.40724e-05
-0.0003574
-0.000908574
-0.0019741
-0.00193772
-0.00209585
-0.00329994
-0.00431291
0.00024411
0.00310118
0.00357994
0.00157099
0.00189666
0.00135739
0.00159562
0.00196684
0.00238772
0.0020409
0.00209366
0.00173073
9.81745e-05
-0.000405961
-0.000870617
-0.00188853
-0.00195509
-0.00205303
-0.00314035
-0.00419282
0.000298032
0.00300858
0.00358509
0.00159759
0.00187741
0.0014562
0.0015554
0.00194323
0.00228705
0.00194636
0.00201604
0.00170169
0.000141018
-0.000454748
-0.000846787
-0.00179383
-0.00195389
-0.00201704
-0.0029855
-0.00403626
0.000357975
0.00291001
0.00358543
0.0016314
0.00185099
0.00155312
0.00152282
0.00190488
0.00219599
0.00185256
0.00193231
0.00167274
0.000184893
-0.000502571
-0.000837188
-0.00169297
-0.00193423
-0.00198283
-0.00283526
-0.00385314
0.000424075
0.00280629
0.00357892
0.00167303
0.00181841
0.00164616
0.00150104
0.00185366
0.00211107
0.00176315
0.00184352
0.00164225
0.000230964
-0.000549118
-0.000844951
-0.00158891
-0.00189114
-0.0019449
-0.00269134
-0.00365634
0.000496353
0.00269999
0.00356295
0.0017222
0.00178255
0.00173074
0.00149091
0.00179271
0.00202984
0.00167894
0.00175006
0.00160852
0.000280685
-0.000590355
-0.000873271
-0.00149281
-0.00182411
-0.00189139
-0.00254264
-0.00345258
0.000574838
0.0025925
0.00353544
0.00177825
0.00174504
0.00180596
0.00149411
0.00172381
0.00194911
0.00160346
0.00165393
0.00156804
0.000332478
-0.000621251
-0.000917712
-0.00141663
-0.00174787
-0.00182644
-0.00237828
-0.00321499
0.000659403
0.00248534
0.00349362
0.00184054
0.00170912
0.00186847
0.00151059
0.00165182
0.00186604
0.00153554
0.001558
0.00152084
0.00038632
-0.00063728
-0.000971384
-0.00136365
-0.00167437
-0.00176114
-0.00221118
-0.00293161
0.000749594
0.00238084
0.00343586
0.00190656
0.00167819
0.0019179
0.0015383
0.00158007
0.00177995
0.00147473
0.0014643
0.00146419
0.000439344
-0.000630168
-0.00101635
-0.00131587
-0.00158655
-0.00169398
-0.0020731
-0.00270401
0.00084488
0.00228059
0.00336149
0.00197478
0.00165389
0.00195356
0.00157544
0.00151213
0.00168961
0.00142036
0.00137684
0.00140062
0.000488564
-0.000601818
-0.00104396
-0.00126381
-0.00147755
-0.0016296
-0.0020074
-0.00257362
0.000943858
0.00218717
0.0032707
0.00204226
0.00163867
0.00197571
0.00161809
0.00145222
0.00159641
0.00136861
0.00129918
0.00133228
0.000533753
-0.000550073
-0.001054
-0.00122251
-0.00137631
-0.00155224
-0.00193814
-0.00250772
0.00104488
0.00210219
0.00316623
0.00210533
0.00163274
0.00198658
0.00166317
0.00140108
0.00150168
0.00132092
0.00123137
0.00125905
0.000573113
-0.000479348
-0.00105184
-0.0012201
-0.00133477
-0.00151114
-0.00186487
-0.00229149
0.00114595
0.00202758
0.00305127
0.00216107
0.00163616
0.00198622
0.00170887
0.00136342
0.00140745
0.00127248
0.00117313
0.00118898
0.000602099
-0.000401804
-0.00102313
-0.00120073
-0.00127935
-0.00143332
-0.0018098
-0.00229286
0.00124502
0.00196471
0.00293119
0.00220495
0.00164658
0.00197964
0.00175206
0.00133707
0.00131634
0.00122397
0.0011277
0.00112111
0.000613566
-0.00032243
-0.000976772
-0.0011832
-0.00125456
-0.00139353
-0.00175129
-0.00221036
0.00134044
0.00191458
0.00280949
0.00223492
0.00166322
0.00196682
0.00179007
0.00132484
0.00123224
0.00117141
0.00109044
0.00105945
0.000612385
-0.000250191
-0.000924912
-0.00116915
-0.00124254
-0.00136241
-0.00164722
-0.00207173
0.00143092
0.00187715
0.00269047
0.00225063
0.00168116
0.00195034
0.00182527
0.00132428
0.00115388
0.00111648
0.00106045
0.00100498
0.000596517
-0.000190788
-0.000867102
-0.0011467
-0.00121547
-0.00131659
-0.00155182
-0.00193457
0.0015158
0.00185141
0.00257771
0.00225047
0.00169813
0.00193261
0.0018543
0.00133209
0.00108688
0.00105866
0.00102965
0.000959733
0.000577958
-0.000138838
-0.000800958
-0.00111332
-0.00118133
-0.00127197
-0.00148111
-0.00178444
0.00159469
0.00183607
0.00247308
0.0022405
0.00171256
0.00191038
0.00187672
0.00135184
0.00103046
0.00099448
0.00100066
0.000929111
0.000562315
-9.93682e-05
-0.000732987
-0.00106623
-0.00114532
-0.00122041
-0.00141051
-0.0016436
0.00166755
0.00182904
0.00237906
0.00222097
0.00172089
0.00188435
0.00189407
0.00137841
0.000986217
0.000931352
0.000964809
0.000903316
0.000554036
-6.08957e-05
-0.000660642
-0.00100823
-0.00111013
-0.00116463
-0.00133105
-0.00152189
0.00173468
0.00182906
0.00229572
0.00219424
0.00172462
0.00185294
0.00190137
0.00141151
0.000959255
0.000868225
0.000919989
0.000884359
0.000560822
-1.78434e-05
-0.000592358
-0.000946197
-0.00106737
-0.00110595
-0.00124298
-0.00141334
0.00179634
0.00183456
0.00223579
0.00216795
0.00172399
0.00181411
0.00189794
0.0014495
0.000948851
0.000811266
0.000870744
0.000863786
0.000573995
2.98045e-05
-0.000521362
-0.000873911
-0.00101421
-0.00105255
-0.00115223
-0.00129976
0.00185256
0.00184403
0.00217293
0.00214097
0.00171542
0.00176816
0.0018807
0.00148774
0.000957507
0.000766851
0.000813421
0.000834393
0.000593
9.01037e-05
-0.000440997
-0.000796301
-0.00095569
-0.00100074
-0.00106005
-0.00117582
0.0019051
0.00185629
0.00211858
0.00211585
0.00171175
0.0017159
0.00184665
0.00152299
0.000985109
0.000737972
0.000754486
0.000797194
0.000612004
0.000159458
-0.000352965
-0.000713201
-0.000886116
-0.00094297
-0.000977366
-0.00105202
0.00195337
0.00187089
0.00207101
0.00209274
0.00171202
0.00166042
0.00179564
0.00155091
0.00102961
0.000729051
0.000698617
0.000751867
0.000621433
0.000231813
-0.000253323
-0.000618961
-0.000806342
-0.000877972
-0.000902587
-0.000931291
0.00199726
0.00188754
0.00202899
0.00206895
0.00171746
0.00160795
0.00173033
0.00156603
0.001086
0.000742633
0.000662264
0.000703548
0.000619849
0.000300444
-0.000144023
-0.000512291
-0.000718696
-0.000803233
-0.000826916
-0.000821656
0.00203677
0.0019058
0.0019921
0.00204179
0.00172722
0.00156601
0.00165705
0.00156448
0.00114603
0.000777981
0.000644658
0.000660024
0.000607786
0.000357251
-3.34637e-05
-0.000392778
-0.000619859
-0.000720676
-0.000745269
-0.000720602
0.00207178
0.00192483
0.00196056
0.00201129
0.0017382
0.00153844
0.00158377
0.0015456
0.00120184
0.000830565
0.000648075
0.000629061
0.000590564
0.000400362
6.96259e-05
-0.000265324
-0.000505725
-0.000629712
-0.000658454
-0.000620475
0.00210216
0.00194373
0.0019348
0.00197821
0.00174657
0.00152522
0.0015179
0.00151123
0.00124671
0.000895139
0.000673265
0.000615656
0.00057665
0.000431748
0.00016051
-0.000139687
-0.000378342
-0.000525324
-0.000568075
-0.00051911
0.00212785
0.00196162
0.00191478
0.00194426
0.0017506
0.00152441
0.0014653
0.00146775
0.00127623
0.000964142
0.00071897
0.000621583
0.000569123
0.000456601
0.000239381
-2.30662e-05
-0.000247099
-0.000404474
-0.000469675
-0.000418235
0.00214888
0.0019777
0.0019002
0.00191169
0.00174947
0.00153155
0.00142857
0.00142356
0.00129072
0.00102856
0.000780807
0.00064944
0.000574239
0.000478921
0.000309132
8.42882e-05
-0.000122187
-0.000272806
-0.00035633
-0.000316224
0.00216557
0.00199123
0.00189049
0.00188239
0.00174359
0.00154188
0.00140744
0.00138581
0.00129308
0.00108415
0.00085036
0.000698096
0.000597459
0.000503033
0.000371122
0.000185979
-5.34051e-06
-0.00014359
-0.000229354
-0.000206645
0.00217828
0.00200169
0.00188441
0.001858
0.00173439
0.00155196
0.00139995
0.00135943
0.00128897
0.00112975
0.000922152
0.000760735
0.000640953
0.000536226
0.000425305
0.0002822
0.000108332
-2.20814e-05
-9.74023e-05
-8.52448e-05
0.00218704
0.00200891
0.00188039
0.00183873
0.00172334
0.00156035
0.00140215
0.00134652
0.00128509
0.00116481
0.000992583
0.000832458
0.000701349
0.000586985
0.000477552
0.00036944
0.000221974
9.45184e-05
3.08064e-05
4.48931e-05
0.00219213
0.00201288
0.00187699
0.00182431
0.00171232
0.00156628
0.00141037
0.00134624
0.00128805
0.00119275
0.0010568
0.000910545
0.000772548
0.000655341
0.000540757
0.000448657
0.000331916
0.000210721
0.000153405
0.000176429
0.00219328
0.00201361
0.00187335
0.00181379
0.00170323
0.0015706
0.00142152
0.00135571
0.00130052
0.00122125
0.00111433
0.000990965
0.000853255
0.000735134
0.000621482
0.000530772
0.000437576
0.000328886
0.000273303
0.000306594
0.00219071
0.00201129
0.00186873
0.00180605
0.00169627
0.00157365
0.00143505
0.00137214
0.00132065
0.00125478
0.00116857
0.00107035
0.000944976
0.000821459
0.00070355
0.000610545
0.000532574
0.000442326
0.000389751
0.000429364
0.00218389
0.00200547
0.00186223
0.0018004
0.00169274
0.00157614
0.00144873
0.00139522
0.00134931
0.00129334
0.00122168
0.00114323
0.00104579
0.000944234
0.000831735
0.000733049
0.000652226
0.000570685
0.000518757
0.000556408
0.00217312
0.0019963
0.00185354
0.00179378
0.00169105
0.00158139
0.00146186
0.00141799
0.00138581
0.00134072
0.00128217
0.00121152
0.001113
0.00102003
0.000918521
0.000820935
0.000749515
0.000683268
0.000641171
0.000675234
0.00215749
0.00198306
0.00184279
0.00178713
0.00168927
0.00158822
0.00147933
0.00143915
0.00141772
0.00138971
0.00135888
0.00133767
0.00127312
0.00120684
0.00112229
0.00101155
0.000920889
0.000842646
0.00078557
0.000795914
0.0021356
0.00196383
0.00182839
0.00178112
0.00168962
0.00159586
0.00149969
0.00146697
0.00144585
0.00140825
0.00135152
0.00133355
0.00129444
0.00125339
0.0012305
0.00117443
0.00111888
0.0010785
0.00105196
0.00107732
0.0021086
0.00194091
0.00180826
0.00176912
0.00169067
0.0016069
0.00151737
0.00150069
0.00151899
0.00154727
0.00154982
0.00156441
0.00155612
0.00150672
0.00144363
0.00133851
0.0012124
0.00110927
0.00103439
0.00101255
0.00207336
0.0019009
0.00178056
0.00175267
0.0016935
0.00162497
0.00152421
0.00145129
0.00138335
0.00133394
0.00133143
0.00143144
0.00157216
0.00170504
0.0018081
0.00188273
0.00193921
0.00203479
0.00216964
0.00229306
0.00202435
0.00187179
0.00175891
0.00175364
0.00171628
0.00166584
0.00159876
0.00159879
0.00166141
0.00173556
0.00176112
0.00179413
0.00179394
0.00175727
0.00171574
0.00164956
0.00153847
0.00140347
0.00128767
0.00122277
0.0019394
0.00177108
0.00170707
0.001762
0.0017675
0.00173061
0.00165656
0.00160898
0.0015951
0.00161856
0.00160785
0.00164057
0.00173928
0.00184117
0.00194902
0.00208321
0.002229
0.00236376
0.0024747
0.0025447
0.00189873
0.00174604
0.00168047
0.00175197
0.00177453
0.00175169
0.00169678
0.00169967
0.00175758
0.00186889
0.00192612
0.00194497
0.00199285
0.00205238
0.00209575
0.00214879
0.00220822
0.00225922
0.00228806
0.00227388
-0.00118666
-0.00535282
-0.00976084
-0.0136303
-0.0148544
-0.0140886
-0.0125771
-0.0104226
-0.00809109
-0.00616921
-0.00471537
-0.00371539
-0.00312991
-0.00259381
-0.001856
-0.00112219
-0.000613079
-0.00023855
0.000224451
0.000771253
0.00124796
0.00149702
0.00139367
0.00106527
0.000862291
0.00118931
0.00204416
0.00295257
0.00355578
0.00379333
0.00392818
0.00425312
0.0046915
0.00511011
0.00544492
0.00570644
0.00603667
0.0065117
0.0070679
0.00762257
0.00811017
0.00853506
0.00895318
0.00939079
0.00985054
0.0103102
0.0107874
0.0112532
0.0117191
0.0122022
0.0127067
0.0132292
0.0137735
0.0143144
0.0148503
0.0153697
0.0158979
0.016469
0.0170441
0.0176215
0.0182337
0.0188806
0.0195059
0.0201487
0.020836
0.0215033
0.0221251
0.0227762
0.0234383
0.0241134
0.0248331
0.0256048
0.0263963
0.0271775
0.0279343
0.0286593
0.0293952
0.0302086
0.0310365
0.0318726
0.0327396
0.0336297
0.0345096
0.0354222
0.036321
0.0372827
0.03825
0.0391827
0.0401268
0.0411125
0.0422045
0.0432453
0.044388
0.0454329
0.0465641
0.0476479
0.0488016
0.050135
0.0509599
0.0520617
-0.0013146
-0.00539168
-0.00965742
-0.0134458
-0.0147413
-0.0140384
-0.012551
-0.0104077
-0.00808124
-0.00616205
-0.00470883
-0.00370862
-0.00312372
-0.00258848
-0.00185067
-0.00111641
-0.000607446
-0.000233606
0.000228845
0.000775454
0.00125213
0.00150125
0.00139764
0.00106842
0.000864344
0.00119078
0.00204592
0.0029547
0.00355797
0.00379526
0.0039296
0.00425432
0.00469274
0.00511137
0.00544616
0.00570747
0.00603745
0.00651242
0.00706863
0.00762331
0.0081109
0.00853572
0.00895377
0.00939134
0.00985108
0.0103107
0.0107879
0.0112537
0.0117195
0.0122026
0.0127071
0.0132296
0.0137739
0.0143148
0.0148506
0.0153701
0.0158982
0.0164693
0.0170444
0.0176218
0.0182339
0.0188809
0.0195062
0.0201489
0.0208362
0.0215036
0.0221254
0.0227764
0.0234385
0.0241136
0.0248333
0.025605
0.0263965
0.0271777
0.0279345
0.0286595
0.0293953
0.0302088
0.0310367
0.0318727
0.0327398
0.0336298
0.0345098
0.0354223
0.0363211
0.0372828
0.0382501
0.0391829
0.040127
0.0411126
0.0422046
0.0432454
0.0443881
0.045433
0.0465642
0.047648
0.0488017
0.0501351
0.0509601
0.0520616
-0.00153898
-0.00558369
-0.00955981
-0.0131433
-0.0145556
-0.0139752
-0.0125158
-0.0103785
-0.00805978
-0.00614839
-0.00470057
-0.00370293
-0.00311902
-0.00258431
-0.00184683
-0.00111273
-0.000603683
-0.000229779
0.000232722
0.000779353
0.00125606
0.00150521
0.0014012
0.00107092
0.00086549
0.00119153
0.00204755
0.00295703
0.00356023
0.00379696
0.00393067
0.00425528
0.00469382
0.00511251
0.00544729
0.00570829
0.00603801
0.00651297
0.00706928
0.00762402
0.00811156
0.00853628
0.00895426
0.00939179
0.00985152
0.0103112
0.0107883
0.0112541
0.0117199
0.012203
0.0127074
0.0132299
0.0137742
0.0143151
0.014851
0.0153704
0.0158984
0.0164696
0.0170447
0.0176221
0.0182342
0.0188811
0.0195064
0.0201492
0.0208364
0.0215038
0.0221256
0.0227766
0.0234387
0.0241138
0.0248335
0.0256052
0.0263966
0.0271778
0.0279347
0.0286597
0.0293955
0.0302089
0.0310368
0.0318728
0.0327399
0.03363
0.0345099
0.0354224
0.0363212
0.0372829
0.0382502
0.039183
0.0401271
0.0411127
0.0422047
0.0432455
0.0443882
0.0454331
0.0465643
0.0476481
0.0488017
0.0501352
0.0509602
0.0520616
-0.00180249
-0.00577916
-0.00944011
-0.0127548
-0.0142923
-0.0138712
-0.0124494
-0.0103229
-0.00801978
-0.00612347
-0.00468686
-0.00369538
-0.00311286
-0.0025785
-0.00184294
-0.00111085
-0.00060198
-0.000227062
0.000236349
0.000783357
0.00126028
0.00150964
0.00140532
0.00107382
0.000866824
0.00119265
0.00204994
0.00296014
0.00356301
0.003799
0.00393201
0.00425647
0.00469507
0.00511385
0.00544864
0.00570928
0.00603863
0.00651362
0.00707009
0.00762489
0.00811237
0.00853693
0.00895482
0.00939228
0.00985199
0.0103116
0.0107887
0.0112545
0.0117203
0.0122034
0.0127078
0.0132302
0.0137746
0.0143154
0.0148513
0.0153707
0.0158987
0.0164699
0.0170449
0.0176223
0.0182344
0.0188814
0.0195067
0.0201494
0.0208367
0.0215041
0.0221258
0.0227768
0.0234389
0.024114
0.0248337
0.0256054
0.0263968
0.027178
0.0279349
0.0286599
0.0293956
0.030209
0.0310369
0.031873
0.03274
0.0336301
0.03451
0.0354226
0.0363213
0.037283
0.0382503
0.0391831
0.0401271
0.0411128
0.0422048
0.0432456
0.0443883
0.0454332
0.0465644
0.0476482
0.0488018
0.0501354
0.0509605
0.0520616
-0.00205499
-0.00593868
-0.00929116
-0.0123388
-0.0139952
-0.0137443
-0.0123652
-0.0102491
-0.00796435
-0.00608745
-0.00466655
-0.00368446
-0.00310346
-0.00256901
-0.00183747
-0.00111017
-0.000602202
-0.000225434
0.000239386
0.000786652
0.00126384
0.00151387
0.00140992
0.00107745
0.000868835
0.00119474
0.00205353
0.00296426
0.00356649
0.00380179
0.00393423
0.00425831
0.00469669
0.00511552
0.00545037
0.0057106
0.00603953
0.00651454
0.00707119
0.00762604
0.0081134
0.00853776
0.00895552
0.00939288
0.00985256
0.0103122
0.0107893
0.011255
0.0117208
0.0122038
0.0127082
0.0132306
0.013775
0.0143158
0.0148516
0.0153711
0.015899
0.0164702
0.0170452
0.0176226
0.0182346
0.0188816
0.0195069
0.0201496
0.0208369
0.0215044
0.0221261
0.0227771
0.0234391
0.0241142
0.0248339
0.0256056
0.026397
0.0271782
0.0279351
0.0286601
0.0293957
0.0302092
0.0310371
0.0318731
0.0327402
0.0336302
0.0345101
0.0354227
0.0363214
0.0372831
0.0382505
0.0391832
0.0401272
0.0411128
0.0422049
0.0432457
0.0443884
0.0454333
0.0465645
0.0476483
0.0488018
0.0501356
0.0509609
0.0520616
-0.00228107
-0.00605657
-0.00914332
-0.0119272
-0.013682
-0.0136056
-0.0122758
-0.0101689
-0.00790157
-0.00604485
-0.00464156
-0.00367048
-0.00309054
-0.00255537
-0.00182947
-0.00110955
-0.000603413
-0.000224348
0.000241927
0.000788758
0.00126562
0.0015166
0.00141422
0.00108165
0.000871732
0.00119813
0.00205848
0.00296922
0.00357048
0.00380561
0.00393805
0.00426138
0.00469899
0.00511775
0.00545265
0.00571239
0.00604083
0.00651586
0.00707272
0.00762759
0.00811476
0.00853889
0.00895647
0.00939368
0.00985328
0.0103129
0.0107899
0.0112555
0.0117213
0.0122043
0.0127086
0.0132311
0.0137755
0.0143163
0.0148521
0.0153715
0.0158993
0.0164705
0.0170455
0.0176229
0.0182349
0.0188819
0.0195072
0.0201498
0.0208372
0.0215047
0.0221263
0.0227773
0.0234393
0.0241144
0.0248341
0.0256058
0.0263973
0.0271785
0.0279353
0.0286603
0.0293958
0.0302093
0.0310373
0.0318732
0.0327403
0.0336304
0.0345103
0.0354228
0.0363215
0.0372832
0.0382506
0.0391834
0.0401273
0.0411129
0.042205
0.0432457
0.0443886
0.0454334
0.0465645
0.0476484
0.0488018
0.0501359
0.0509614
0.0520617
-0.00247668
-0.00615045
-0.00901884
-0.0115287
-0.0133501
-0.0134526
-0.0121835
-0.0100863
-0.00783504
-0.00599859
-0.00461384
-0.00365457
-0.00307524
-0.00253865
-0.00181916
-0.00110818
-0.000604647
-0.000223134
0.000244399
0.000789819
0.00126523
0.00151685
0.00141703
0.00108551
0.000875117
0.00120287
0.0020649
0.00297482
0.00357451
0.00381026
0.00394376
0.00426617
0.00470243
0.00512093
0.00545578
0.00571484
0.00604259
0.00651762
0.00707473
0.00762959
0.00811653
0.00854042
0.00895781
0.00939479
0.00985426
0.0103138
0.0107907
0.0112562
0.0117219
0.0122049
0.0127092
0.0132316
0.0137761
0.0143169
0.0148525
0.0153719
0.0158998
0.0164708
0.0170458
0.0176232
0.0182352
0.0188823
0.0195075
0.02015
0.0208374
0.021505
0.0221267
0.0227775
0.0234395
0.0241146
0.0248343
0.025606
0.0263975
0.0271787
0.0279356
0.0286605
0.029396
0.0302095
0.0310375
0.0318734
0.0327405
0.0336305
0.0345105
0.035423
0.0363217
0.0372833
0.0382508
0.0391835
0.0401274
0.041113
0.0422051
0.0432458
0.0443887
0.0454335
0.0465646
0.0476485
0.0488018
0.0501361
0.0509621
0.052062
-0.0026551
-0.00623588
-0.00892206
-0.011138
-0.012992
-0.0132818
-0.0120897
-0.0100042
-0.00776658
-0.00594982
-0.00458418
-0.00363749
-0.00305887
-0.00252032
-0.00180719
-0.00110589
-0.000605555
-0.00022171
0.000246856
0.000790083
0.0012629
0.00151441
0.00141748
0.00108775
0.000877892
0.00120849
0.00207293
0.00298121
0.00357829
0.00381519
0.00395098
0.00427263
0.00470724
0.00512545
0.00546018
0.00571829
0.00604495
0.00651976
0.00707713
0.00763197
0.0081187
0.0085424
0.00895958
0.00939629
0.00985561
0.0103151
0.0107919
0.0112571
0.0117228
0.0122057
0.0127098
0.0132323
0.0137769
0.0143176
0.0148532
0.0153726
0.0159003
0.0164713
0.0170462
0.0176235
0.0182356
0.0188826
0.0195078
0.0201503
0.0208377
0.0215054
0.022127
0.0227778
0.0234396
0.0241148
0.0248346
0.0256062
0.0263978
0.027179
0.0279358
0.0286608
0.0293962
0.0302097
0.0310377
0.0318736
0.0327407
0.0336307
0.0345107
0.0354232
0.0363218
0.0372835
0.038251
0.0391837
0.0401275
0.041113
0.0422053
0.0432459
0.0443889
0.0454337
0.0465647
0.0476486
0.0488018
0.0501364
0.0509631
0.0520625
-0.00283015
-0.00631122
-0.008839
-0.0107502
-0.0126101
-0.0130951
-0.0119968
-0.00992431
-0.00769692
-0.00589864
-0.00455262
-0.00361957
-0.00304221
-0.00250126
-0.00179407
-0.00110276
-0.000606215
-0.00022032
0.000249005
0.000789425
0.00125875
0.00150951
0.00141548
0.00108761
0.000878782
0.00121395
0.0020824
0.00298893
0.00358217
0.00382003
0.0039589
0.00428011
0.00471318
0.00513138
0.00546607
0.00572298
0.00604809
0.00652232
0.00707978
0.00763455
0.00812113
0.00854476
0.00896177
0.00939816
0.00985731
0.0103169
0.0107934
0.0112585
0.011724
0.0122066
0.0127106
0.0132331
0.0137778
0.0143185
0.014854
0.0153734
0.0159011
0.0164718
0.0170466
0.0176239
0.0182359
0.018883
0.0195082
0.0201506
0.020838
0.0215059
0.0221275
0.0227781
0.0234397
0.0241149
0.0248348
0.0256065
0.0263981
0.0271793
0.0279362
0.0286611
0.0293964
0.03021
0.0310379
0.0318738
0.0327409
0.033631
0.0345109
0.0354234
0.036322
0.0372837
0.0382512
0.0391839
0.0401276
0.0411131
0.0422055
0.0432461
0.0443891
0.0454338
0.0465647
0.0476488
0.0488018
0.0501367
0.0509642
0.0520632
-0.00300374
-0.00636098
-0.00876035
-0.0103759
-0.012213
-0.0128931
-0.0119042
-0.00984693
-0.00762616
-0.00584507
-0.00451942
-0.00360116
-0.00302557
-0.00248188
-0.00178017
-0.00109903
-0.000606818
-0.000219153
0.000250609
0.000787549
0.00125261
0.00150225
0.00141135
0.00108516
0.000877071
0.00121797
0.00209255
0.00299825
0.00358689
0.00382495
0.00396696
0.00428792
0.00471977
0.00513843
0.00547328
0.0057289
0.00605213
0.00652541
0.00708267
0.00763717
0.00812361
0.00854732
0.00896425
0.00940032
0.0098593
0.0103189
0.0107954
0.0112603
0.0117257
0.012208
0.0127116
0.013234
0.0137787
0.0143194
0.0148549
0.0153746
0.0159021
0.0164726
0.0170472
0.0176244
0.0182363
0.0188833
0.0195085
0.0201508
0.0208383
0.0215063
0.0221281
0.0227785
0.0234399
0.0241151
0.0248351
0.0256067
0.0263984
0.0271796
0.0279365
0.0286615
0.0293967
0.0302103
0.0310382
0.031874
0.0327412
0.0336312
0.0345112
0.0354237
0.0363222
0.0372839
0.0382515
0.0391841
0.0401277
0.0411131
0.0422057
0.0432462
0.0443893
0.045434
0.0465648
0.047649
0.0488017
0.0501369
0.0509657
0.0520642
-0.00317075
-0.0063787
-0.00869063
-0.0100278
-0.0118049
-0.0126718
-0.0118094
-0.0097724
-0.00755531
-0.00578988
-0.00448523
-0.0035826
-0.00300906
-0.00246237
-0.00176583
-0.00109489
-0.000607419
-0.000218222
0.000251604
0.000784144
0.00124418
0.00149256