/*--------------------------------*- C++ -*----------------------------------*\
| =========                 |                                                 |
| \\      /  F ield         | OpenFOAM: The Open Source CFD Toolbox           |
|  \\    /   O peration     | Version:  v1912                                 |
|   \\  /    A nd           | Website:  www.openfoam.com                      |
|    \\/     M anipulation  |                                                 |
\*---------------------------------------------------------------------------*/
FoamFile
{
    version     2.0;
    format      ascii;
    class       surfaceScalarField;
    location    "7";
    object      phi;
}
// * * * * * * * * * * * * * * * * * * * * * * * * * * * * * * * * * * * * * //

dimensions      [0 3 -1 0 0 0 0];
oriented        oriented;


internalField   nonuniform List<scalar> 
19000
(
1.14622e-06
-1.29741e-06
1.17583e-06
1.12104e-06
1.16626e-06
5.84188e-08
1.17402e-06
-7.92723e-07
1.20111e-06
-3.24452e-07
1.21642e-06
-5.68753e-08
1.23252e-06
1.379e-06
1.21924e-06
1.08194e-06
1.22217e-06
1.54708e-06
1.13801e-06
-1.15591e-06
1.15819e-06
1.62322e-07
1.07227e-06
-1.12138e-06
1.1251e-06
-8.26384e-07
1.07216e-06
-9.66202e-07
1.11465e-06
-1.22493e-06
1.15402e-06
-4.12061e-07
1.16481e-06
-7.56781e-07
1.20274e-06
6.9486e-08
1.21094e-06
-1.43157e-07
3.11581e-07
1.24017e-06
1.2062e-06
-1.27934e-06
1.23328e-06
1.09396e-06
1.22352e-06
6.81776e-08
1.23107e-06
-8.0027e-07
1.25893e-06
-3.52319e-07
1.27759e-06
-7.55312e-08
1.28834e-06
1.36825e-06
1.27923e-06
1.09105e-06
1.27826e-06
1.54805e-06
1.2069e-06
-1.08456e-06
1.20983e-06
1.59391e-07
1.14828e-06
-1.05983e-06
1.18012e-06
-8.58225e-07
1.1511e-06
-9.37178e-07
1.17888e-06
-1.25272e-06
1.2315e-06
-4.64675e-07
1.22389e-06
-7.49176e-07
1.28795e-06
5.42813e-09
1.26687e-06
-1.22071e-07
2.53612e-07
1.32483e-06
1.26844e-06
-1.265e-06
1.29544e-06
1.06696e-06
1.28108e-06
8.25353e-08
1.28803e-06
-8.07225e-07
1.32003e-06
-3.84316e-07
1.34001e-06
-9.55086e-08
1.3495e-06
1.35876e-06
1.34197e-06
1.09858e-06
1.33971e-06
1.55031e-06
1.27967e-06
-1.02452e-06
1.27347e-06
1.65589e-07
1.23453e-06
-1.02089e-06
1.24348e-06
-8.67176e-07
1.23907e-06
-9.32767e-07
1.24168e-06
-1.25533e-06
1.29199e-06
-5.14987e-07
1.282e-06
-7.39184e-07
1.32996e-06
-4.25306e-08
1.32582e-06
-1.17937e-07
2.25413e-07
1.35402e-06
1.33361e-06
-1.2545e-06
1.35979e-06
1.04078e-06
1.33863e-06
1.037e-07
1.34413e-06
-8.12726e-07
1.3823e-06
-4.22482e-07
1.40542e-06
-1.18638e-07
1.41589e-06
1.3483e-06
1.41005e-06
1.10442e-06
1.40554e-06
1.55482e-06
1.35341e-06
-9.72385e-07
1.34089e-06
1.78103e-07
1.31427e-06
-9.9426e-07
1.3079e-06
-8.60809e-07
1.31319e-06
-9.38055e-07
1.3009e-06
-1.24304e-06
1.34329e-06
-5.57379e-07
1.3432e-06
-7.39087e-07
1.37474e-06
-7.4073e-08
1.38129e-06
-1.24489e-07
2.01141e-07
1.40556e-06
1.40122e-06
-1.24737e-06
1.42585e-06
1.01614e-06
1.39807e-06
1.31487e-07
1.40104e-06
-8.15698e-07
1.4453e-06
-4.66741e-07
1.47393e-06
-1.47266e-07
1.48818e-06
1.33404e-06
1.48313e-06
1.10947e-06
1.47574e-06
1.56222e-06
1.42635e-06
-9.23e-07
1.41276e-06
1.91698e-07
1.39133e-06
-9.72829e-07
1.37811e-06
-8.47594e-07
1.38336e-06
-9.43306e-07
1.36548e-06
-1.22516e-06
1.3998e-06
-5.91697e-07
1.40657e-06
-7.45863e-07
1.43604e-06
-1.03535e-07
1.44476e-06
-1.33216e-07
1.75914e-07
1.46999e-06
1.47072e-06
-1.24241e-06
1.49347e-06
9.9339e-07
1.46161e-06
1.63355e-07
1.46157e-06
-8.15664e-07
1.50916e-06
-5.14333e-07
1.54486e-06
-1.82958e-07
1.56506e-06
1.31383e-06
1.55965e-06
1.11488e-06
1.54858e-06
1.57329e-06
1.49956e-06
-8.73975e-07
1.48735e-06
2.03902e-07
1.46613e-06
-9.51602e-07
1.45017e-06
-8.31642e-07
1.45255e-06
-9.45678e-07
1.43441e-06
-1.20702e-06
1.46318e-06
-6.20472e-07
1.47134e-06
-7.54022e-07
1.50392e-06
-1.36114e-07
1.51562e-06
-1.44918e-07
1.49945e-07
1.54159e-06
1.54174e-06
-1.23793e-06
1.56283e-06
9.72292e-07
1.53065e-06
1.9554e-07
1.52776e-06
-8.12777e-07
1.57383e-06
-5.60406e-07
1.61576e-06
-2.24887e-07
1.64298e-06
1.28661e-06
1.63673e-06
1.12113e-06
1.62301e-06
1.58702e-06
1.57444e-06
-8.25412e-07
1.56562e-06
2.12721e-07
1.54276e-06
-9.28733e-07
1.52465e-06
-8.13535e-07
1.52335e-06
-9.44376e-07
1.50614e-06
-1.18981e-06
1.53122e-06
-6.45559e-07
1.53896e-06
-7.61762e-07
1.57289e-06
-1.70041e-07
1.58785e-06
-1.59877e-07
1.21699e-07
1.6161e-06
1.6143e-06
-1.2321e-06
1.63436e-06
9.52229e-07
1.6055e-06
2.24405e-07
1.60013e-06
-8.07409e-07
1.63904e-06
-5.99314e-07
1.68325e-06
-2.691e-07
1.71713e-06
1.25273e-06
1.71171e-06
1.12655e-06
1.69813e-06
1.60059e-06
1.65168e-06
-7.78962e-07
1.64781e-06
2.16593e-07
1.62244e-06
-9.03367e-07
1.6018e-06
-7.92892e-07
1.59585e-06
-9.38423e-07
1.57942e-06
-1.17338e-06
1.60237e-06
-6.68511e-07
1.61047e-06
-7.69862e-07
1.64382e-06
-2.03393e-07
1.66031e-06
-1.76369e-07
9.08945e-08
1.69112e-06
1.68898e-06
-1.2235e-06
1.70879e-06
9.32411e-07
1.68569e-06
2.47509e-07
1.67821e-06
-7.99931e-07
1.70521e-06
-6.26311e-07
1.74554e-06
-3.09438e-07
1.78439e-06
1.21388e-06
1.78365e-06
1.12729e-06
1.77424e-06
1.61001e-06
1.73165e-06
-7.36374e-07
1.73399e-06
2.14256e-07
1.70614e-06
-8.75518e-07
1.68288e-06
-7.69631e-07
1.67093e-06
-9.26481e-07
1.65427e-06
-1.15672e-06
1.6758e-06
-6.90042e-07
1.68565e-06
-7.7971e-07
1.71843e-06
-2.36175e-07
1.73526e-06
-1.93199e-07
5.85601e-08
1.7676e-06
1.76677e-06
-1.21155e-06
1.78721e-06
9.11971e-07
1.77055e-06
2.64167e-07
1.76128e-06
-7.90659e-07
1.77406e-06
-6.39089e-07
1.80464e-06
-3.40013e-07
1.84599e-06
1.17253e-06
1.85453e-06
1.11875e-06
1.85265e-06
1.61189e-06
1.81463e-06
-6.98355e-07
1.8236e-06
2.05282e-07
1.79369e-06
-8.45604e-07
1.76887e-06
-7.44814e-07
1.7502e-06
-9.07805e-07
1.73172e-06
-1.13824e-06
1.75111e-06
-7.09424e-07
1.76347e-06
-7.92075e-07
1.79704e-06
-2.69747e-07
1.81456e-06
-2.10722e-07
2.53823e-08
1.84774e-06
1.84884e-06
-1.19664e-06
1.87077e-06
8.90032e-07
1.85961e-06
2.75335e-07
1.84875e-06
-7.79806e-07
1.84809e-06
-6.38424e-07
1.86606e-06
-3.57982e-07
1.90772e-06
1.13087e-06
1.92842e-06
1.09805e-06
1.9353e-06
1.60502e-06
1.90104e-06
-6.64104e-07
1.91593e-06
1.90398e-07
1.88448e-06
-8.14152e-07
1.86034e-06
-7.20677e-07
1.83544e-06
-8.82904e-07
1.81375e-06
-1.11656e-06
1.82885e-06
-7.2452e-07
1.84287e-06
-8.06092e-07
1.87858e-06
-3.05462e-07
1.89823e-06
-2.30371e-07
-9.21553e-09
1.93283e-06
1.93605e-06
-1.17985e-06
1.96012e-06
8.65971e-07
1.95256e-06
2.82891e-07
1.94018e-06
-7.67424e-07
1.92933e-06
-6.27581e-07
1.93613e-06
-3.64773e-07
1.9769e-06
1.09009e-06
2.00916e-06
1.06579e-06
2.02368e-06
1.59049e-06
1.99127e-06
-6.3169e-07
2.01032e-06
1.71348e-07
1.97772e-06
-7.81557e-07
1.95686e-06
-6.99817e-07
1.92753e-06
-8.53568e-07
1.90238e-06
-1.09141e-06
1.91072e-06
-7.32855e-07
1.9235e-06
-8.18877e-07
1.96141e-06
-3.43371e-07
1.98435e-06
-2.53308e-07
-4.67939e-08
2.02193e-06
2.02874e-06
-1.16241e-06
2.05493e-06
8.39779e-07
2.04921e-06
2.88616e-07
2.03528e-06
-7.535e-07
2.01848e-06
-6.1078e-07
2.01853e-06
-3.6482e-07
2.05818e-06
1.05044e-06
2.09808e-06
1.0259e-06
2.11807e-06
1.5705e-06
2.0854e-06
-5.99013e-07
2.10652e-06
1.50229e-07
2.07303e-06
-7.48067e-07
2.05722e-06
-6.84011e-07
2.02591e-06
-8.22257e-07
1.99851e-06
-1.06401e-06
1.99879e-06
-7.33138e-07
2.00635e-06
-8.26441e-07
2.04455e-06
-3.81564e-07
2.0701e-06
-2.78867e-07
-8.83533e-08
2.11166e-06
2.12663e-06
-1.14503e-06
2.15422e-06
8.12191e-07
2.14943e-06
2.93405e-07
2.13408e-06
-7.38152e-07
2.11486e-06
-5.91554e-07
2.1128e-06
-3.62767e-07
2.15145e-06
1.0118e-06
2.19365e-06
9.83693e-07
2.21748e-06
1.54667e-06
2.18319e-06
-5.64731e-07
2.20477e-06
1.28649e-07
2.17067e-06
-7.13958e-07
2.16012e-06
-6.73464e-07
2.12912e-06
-7.91258e-07
2.10132e-06
-1.03621e-06
2.09437e-06
-7.2619e-07
2.09348e-06
-8.25548e-07
2.12866e-06
-4.16747e-07
2.15378e-06
-3.03983e-07
-1.32479e-07
2.1979e-06
2.2292e-06
-1.12775e-06
2.25701e-06
7.8438e-07
2.25328e-06
2.97136e-07
2.23693e-06
-7.218e-07
2.21716e-06
-5.71787e-07
2.21553e-06
-3.61133e-07
2.25307e-06
9.74256e-07
2.29318e-06
9.43577e-07
2.32049e-06
1.51936e-06
2.28446e-06
-5.28699e-07
2.30585e-06
1.07252e-07
2.27157e-06
-6.79672e-07
2.26507e-06
-6.66967e-07
2.23589e-06
-7.6208e-07
2.20913e-06
-1.00945e-06
2.19742e-06
-7.14481e-07
2.1871e-06
-8.15233e-07
2.21607e-06
-4.45708e-07
2.23643e-06
-3.24352e-07
-1.75062e-07
2.27902e-06
2.33615e-06
-1.11002e-06
2.36314e-06
7.57397e-07
2.3611e-06
2.99173e-07
2.34441e-06
-7.05111e-07
2.32439e-06
-5.5177e-07
2.32309e-06
-3.59835e-07
2.35913e-06
9.38217e-07
2.39506e-06
9.07653e-07
2.42641e-06
1.48801e-06
2.38942e-06
-4.91706e-07
2.41085e-06
8.58223e-08
2.37691e-06
-6.45734e-07
2.37265e-06
-6.62706e-07
2.34587e-06
-7.35297e-07
2.3206e-06
-9.84174e-07
2.30691e-06
-7.00798e-07
2.28858e-06
-7.96896e-07
2.30956e-06
-4.6669e-07
2.32189e-06
-3.36679e-07
-2.10844e-07
2.35767e-06
2.4476e-06
-1.09123e-06
2.47327e-06
7.31728e-07
2.47341e-06
2.99034e-07
2.45709e-06
-6.88786e-07
2.43624e-06
-5.30929e-07
2.43376e-06
-3.57347e-07
2.46793e-06
9.04041e-07
2.49973e-06
8.7586e-07
2.53577e-06
1.45196e-06
2.49886e-06
-4.54799e-07
2.52092e-06
6.37671e-08
2.48771e-06
-6.1253e-07
2.48414e-06
-6.59132e-07
2.45956e-06
-7.10719e-07
2.43542e-06
-9.60033e-07
2.42176e-06
-6.87142e-07
2.39797e-06
-7.73101e-07
2.41114e-06
-4.79862e-07
2.41458e-06
-3.40121e-07
-2.35892e-07
2.43963e-06
2.564e-06
-1.07093e-06
2.5885e-06
7.07223e-07
2.59079e-06
2.96747e-07
2.57535e-06
-6.73343e-07
2.55304e-06
-5.08617e-07
2.54788e-06
-3.52196e-07
2.58022e-06
8.71702e-07
2.60908e-06
8.47005e-07
2.64989e-06
1.41115e-06
2.61373e-06
-4.18631e-07
2.63689e-06
4.06006e-08
2.60455e-06
-5.80185e-07
2.60077e-06
-6.55355e-07
2.57783e-06
-6.87781e-07
2.5541e-06
-9.363e-07
2.5414e-06
-6.74439e-07
2.51443e-06
-7.46131e-07
2.52139e-06
-4.86825e-07
2.51728e-06
-3.36012e-07
-2.49182e-07
2.53057e-06
2.68589e-06
-1.04899e-06
2.70978e-06
6.83336e-07
2.71373e-06
2.92795e-07
2.69943e-06
-6.5905e-07
2.67533e-06
-4.84515e-07
2.66689e-06
-3.43756e-07
2.69787e-06
8.40724e-07
2.72507e-06
8.19807e-07
2.77016e-06
1.36606e-06
2.73478e-06
-3.83252e-07
2.75918e-06
1.62029e-08
2.72762e-06
-5.4863e-07
2.72333e-06
-6.51065e-07
2.70151e-06
-6.65962e-07
2.67742e-06
-9.12206e-07
2.66587e-06
-6.6289e-07
2.63704e-06
-7.17304e-07
2.63973e-06
-4.89514e-07
2.63068e-06
-3.26966e-07
-2.52164e-07
2.63367e-06
2.81373e-06
-1.02545e-06
2.83763e-06
6.59429e-07
2.84258e-06
2.87844e-07
2.82951e-06
-6.45978e-07
2.80367e-06
-4.58671e-07
2.79211e-06
-3.32202e-07
2.82242e-06
8.10416e-07
2.84879e-06
7.93439e-07
2.89743e-06
1.31742e-06
2.86248e-06
-3.48305e-07
2.88783e-06
-9.15293e-09
2.85698e-06
-5.17775e-07
2.85215e-06
-6.46232e-07
2.83119e-06
-6.45003e-07
2.80607e-06
-8.87084e-07
2.79557e-06
-6.52392e-07
2.76545e-06
-6.87189e-07
2.76519e-06
-4.89252e-07
2.75403e-06
-3.15802e-07
-2.47428e-07
2.74929e-06
2.94786e-06
-1.00041e-06
2.97231e-06
6.34974e-07
2.97765e-06
2.82506e-07
2.96578e-06
-6.34104e-07
2.93846e-06
-4.31357e-07
2.92433e-06
-3.18072e-07
2.9546e-06
7.8015e-07
2.98044e-06
7.676e-07
3.03199e-06
1.26586e-06
2.99706e-06
-3.13368e-07
3.02282e-06
-3.49138e-08
2.99268e-06
-4.87639e-07
2.98732e-06
-6.40876e-07
2.96725e-06
-6.24927e-07
2.94055e-06
-8.60383e-07
2.93095e-06
-6.42794e-07
2.8999e-06
-6.56141e-07
2.89713e-06
-4.86486e-07
2.8861e-06
-3.04765e-07
-2.37604e-07
2.87627e-06
3.08856e-06
-9.73965e-07
3.11393e-06
6.09607e-07
3.11919e-06
2.7724e-07
3.10845e-06
-6.23362e-07
3.08005e-06
-4.02955e-07
3.06389e-06
-3.01917e-07
3.09449e-06
7.49549e-07
3.11973e-06
7.42361e-07
3.17382e-06
1.21178e-06
3.13866e-06
-2.78212e-07
3.16413e-06
-6.03867e-08
3.13488e-06
-4.58385e-07
3.12894e-06
-6.34939e-07
3.10994e-06
-6.05927e-07
3.08127e-06
-8.31706e-07
3.07236e-06
-6.33892e-07
3.04083e-06
-6.24607e-07
3.03536e-06
-4.81017e-07
3.02592e-06
-2.95327e-07
-2.24819e-07
3.01314e-06
3.23611e-06
-9.46166e-07
3.26261e-06
5.83104e-07
3.26749e-06
2.72366e-07
3.25779e-06
-6.13661e-07
3.22874e-06
-3.7391e-07
3.21099e-06
-2.84165e-07
3.24202e-06
7.18517e-07
3.26638e-06
7.18001e-07
3.32278e-06
1.15538e-06
3.28745e-06
-2.42883e-07
3.31192e-06
-8.48578e-08
3.28383e-06
-4.30296e-07
3.27713e-06
-6.2824e-07
3.25946e-06
-5.88257e-07
3.22862e-06
-8.00864e-07
3.22009e-06
-6.25363e-07
3.18865e-06
-5.93161e-07
3.18011e-06
-4.7248e-07
3.17294e-06
-2.88152e-07
-2.10756e-07
3.15887e-06
3.39082e-06
-9.17052e-07
3.41858e-06
5.55346e-07
3.42283e-06
2.68108e-07
3.41403e-06
-6.04861e-07
3.38484e-06
-3.44713e-07
3.36581e-06
-2.65145e-07
3.39716e-06
6.8717e-07
3.42029e-06
6.9487e-07
3.47885e-06
1.09682e-06
3.44364e-06
-2.07673e-07
3.46647e-06
-1.07683e-07
3.43988e-06
-4.03706e-07
3.4321e-06
-6.2046e-07
3.41598e-06
-5.72141e-07
3.38305e-06
-7.67936e-07
3.37441e-06
-6.16718e-07
3.34372e-06
-5.62469e-07
3.33191e-06
-4.60672e-07
3.32696e-06
-2.83209e-07
-1.9672e-07
3.31293e-06
3.55302e-06
-8.86664e-07
3.58208e-06
5.26285e-07
3.58556e-06
2.64635e-07
3.57745e-06
-5.96754e-07
3.54861e-06
-3.15876e-07
3.52861e-06
-2.45141e-07
3.56006e-06
6.55723e-07
3.58164e-06
6.73283e-07
3.64214e-06
1.03633e-06
3.60751e-06
-1.73049e-07
3.62816e-06
-1.28335e-07
3.6034e-06
-3.78941e-07
3.59409e-06
-6.11149e-07
3.57965e-06
-5.57703e-07
3.545e-06
-7.3328e-07
3.53566e-06
-6.07381e-07
3.50636e-06
-5.33168e-07
3.49149e-06
-4.45809e-07
3.48809e-06
-2.7981e-07
-1.83746e-07
3.47512e-06
3.7231e-06
-8.55056e-07
3.75346e-06
4.95918e-07
3.75602e-06
2.62078e-07
3.74831e-06
-5.89047e-07
3.72034e-06
-2.87899e-07
3.69964e-06
-2.2444e-07
3.731e-06
6.24364e-07
3.75085e-06
6.53427e-07
3.81291e-06
9.74279e-07
3.77944e-06
-1.39582e-07
3.7975e-06
-1.46401e-07
3.77483e-06
-3.56264e-07
3.76348e-06
-5.99802e-07
3.75069e-06
-5.4491e-07
3.71486e-06
-6.97457e-07
3.70428e-06
-5.96798e-07
3.67685e-06
-5.05742e-07
3.65938e-06
-4.28337e-07
3.65664e-06
-2.77067e-07
-1.72576e-07
3.64547e-06
3.90143e-06
-8.22302e-07
3.93308e-06
4.64274e-07
3.93462e-06
2.60539e-07
3.92693e-06
-5.81363e-07
3.90025e-06
-2.61216e-07
3.87915e-06
-2.03338e-07
3.91036e-06
5.93154e-07
3.92851e-06
6.3528e-07
3.99154e-06
9.1124e-07
3.95984e-06
-1.07879e-07
3.975e-06
-1.61562e-07
3.9546e-06
-3.35861e-07
3.94076e-06
-5.85961e-07
3.92935e-06
-5.33502e-07
3.89304e-06
-6.61147e-07
3.88076e-06
-5.84513e-07
3.85552e-06
-4.80505e-07
3.83604e-06
-4.08854e-07
3.83307e-06
-2.741e-07
-1.63635e-07
3.82413e-06
4.08844e-06
-7.88495e-07
4.12133e-06
4.31385e-07
4.12179e-06
2.60079e-07
4.11368e-06
-5.73253e-07
4.08863e-06
-2.36167e-07
4.06739e-06
-1.82097e-07
4.09857e-06
5.61974e-07
4.11527e-06
6.18588e-07
4.17854e-06
8.47968e-07
4.14917e-06
-7.85121e-08
4.16117e-06
-1.73556e-07
4.14314e-06
-3.17839e-07
4.12654e-06
-5.69353e-07
4.11603e-06
-5.22995e-07
4.07991e-06
-6.2503e-07
4.0656e-06
-5.70203e-07
4.04268e-06
-4.57588e-07
4.02184e-06
-3.88015e-07
4.01795e-06
-2.70202e-07
-1.57036e-07
4.01135e-06
4.28454e-06
-7.53734e-07
4.31864e-06
3.97283e-07
4.31802e-06
2.60703e-07
4.309e-06
-5.64235e-07
4.28582e-06
-2.12985e-07
4.26462e-06
-1.60902e-07
4.29606e-06
5.30543e-07
4.31176e-06
6.02884e-07
4.3744e-06
7.85323e-07
4.34787e-06
-5.19837e-08
4.35647e-06
-1.82155e-07
4.34081e-06
-3.02178e-07
4.32147e-06
-5.50007e-07
4.31119e-06
-5.1272e-07
4.27586e-06
-5.89695e-07
4.25935e-06
-5.537e-07
4.23867e-06
-4.36907e-07
4.21718e-06
-3.66521e-07
4.21185e-06
-2.64872e-07
-1.5263e-07
4.20744e-06
4.49016e-06
-7.18116e-07
4.52544e-06
3.61999e-07
4.52381e-06
2.62336e-07
4.51341e-06
-5.53841e-07
4.49223e-06
-1.91805e-07
4.47114e-06
-1.39808e-07
4.50316e-06
4.98525e-07
4.51848e-06
5.87559e-07
4.57961e-06
7.24191e-07
4.55635e-06
-2.87212e-08
4.56136e-06
-1.8716e-07
4.5479e-06
-2.88719e-07
4.52616e-06
-5.28268e-07
4.51541e-06
-5.0197e-07
4.48127e-06
-5.55555e-07
4.46256e-06
-5.34994e-07
4.44385e-06
-4.1819e-07
4.42241e-06
-3.45086e-07
4.41534e-06
-2.57804e-07
-1.50026e-07
4.41274e-06
4.70573e-06
-6.81727e-07
4.74214e-06
3.25586e-07
4.73966e-06
2.64813e-07
4.72748e-06
-5.41662e-07
4.70841e-06
-1.7273e-07
4.68729e-06
-1.18688e-07
4.72018e-06
4.65638e-07
4.7358e-06
5.71938e-07
4.79458e-06
6.65411e-07
4.77496e-06
-9.10479e-09
4.77622e-06
-1.88424e-07
4.76467e-06
-2.77163e-07
4.74111e-06
-5.04715e-07
4.72928e-06
-4.9014e-07
4.6966e-06
-5.22871e-07
4.67582e-06
-5.14218e-07
4.65863e-06
-4.00994e-07
4.6379e-06
-3.24356e-07
4.62899e-06
-2.48901e-07
-1.48605e-07
4.62757e-06
4.93172e-06
-6.44648e-07
4.96916e-06
2.88146e-07
4.96609e-06
2.67879e-07
4.95182e-06
-5.27393e-07
4.93495e-06
-1.55852e-07
4.91354e-06
-9.72853e-08
4.94739e-06
4.31789e-07
4.96397e-06
5.55365e-07
5.01963e-06
6.09742e-07
5.00398e-06
6.5543e-09
5.00156e-06
-1.86008e-07
4.9914e-06
-2.67005e-07
4.96674e-06
-4.80054e-07
4.95344e-06
-4.76837e-07
4.92231e-06
-4.91738e-07
4.89969e-06
-4.91607e-07
4.88354e-06
-3.84842e-07
4.86397e-06
-3.04784e-07
4.85339e-06
-2.38325e-07
-1.47574e-07
4.85236e-06
5.16863e-06
-6.06958e-07
5.20692e-06
2.4985e-07
5.2036e-06
2.71202e-07
5.18704e-06
-5.10832e-07
5.17248e-06
-1.41289e-07
5.1505e-06
-7.53081e-08
5.18515e-06
3.97141e-07
5.20323e-06
5.3728e-07
5.25517e-06
5.57803e-07
5.24356e-06
1.81607e-08
5.23796e-06
-1.80404e-07
5.2285e-06
-2.57545e-07
5.2034e-06
-4.54951e-07
5.18852e-06
-4.61958e-07
5.15888e-06
-4.62099e-07
5.13474e-06
-4.67473e-07
5.11916e-06
-3.69261e-07
5.10103e-06
-2.86652e-07
5.08911e-06
-2.26399e-07
-1.46094e-07
5.08763e-06
5.41698e-06
-5.6875e-07
5.45588e-06
2.10956e-07
5.45268e-06
2.74392e-07
5.43373e-06
-4.91873e-07
5.42159e-06
-1.29153e-07
5.3989e-06
-5.26217e-08
5.43388e-06
3.62167e-07
5.45389e-06
5.17265e-07
5.50166e-06
5.10039e-07
5.49392e-06
2.59007e-08
5.48593e-06
-1.72415e-07
5.4765e-06
-2.48117e-07
5.45143e-06
-4.29884e-07
5.43511e-06
-4.45631e-07
5.40685e-06
-4.33847e-07
5.38157e-06
-4.42187e-07
5.36612e-06
-3.53811e-07
5.34949e-06
-2.70026e-07
5.33679e-06
-2.13694e-07
-1.43386e-07
5.33408e-06
5.67735e-06
-5.30145e-07
5.7165e-06
1.71804e-07
5.71388e-06
2.77018e-07
5.69248e-06
-4.70475e-07
5.68285e-06
-1.19521e-07
5.65971e-06
-2.94861e-08
5.69412e-06
3.27762e-07
5.71634e-06
4.95041e-07
5.7597e-06
4.66681e-07
5.75539e-06
3.02161e-08
5.74591e-06
-1.62939e-07
5.73605e-06
-2.3826e-07
5.7113e-06
-4.05137e-07
5.69376e-06
-4.28088e-07
5.66684e-06
-4.06921e-07
5.64076e-06
-4.16108e-07
5.6251e-06
-3.38151e-07
5.60984e-06
-2.54768e-07
5.59701e-06
-2.00861e-07
-1.3916e-07
5.59278e-06
5.95035e-06
-4.91302e-07
5.98936e-06
1.32798e-07
5.98776e-06
2.78614e-07
5.96389e-06
-4.46607e-07
5.95676e-06
-1.12394e-07
5.93363e-06
-6.35401e-09
5.96651e-06
2.94885e-07
5.99107e-06
4.70476e-07
6.03012e-06
4.2763e-07
6.0285e-06
3.18437e-08
6.01838e-06
-1.52825e-07
6.00784e-06
-2.27719e-07
5.98351e-06
-3.808e-07
5.96505e-06
-4.0963e-07
5.93943e-06
-3.81298e-07
5.91293e-06
-3.89609e-07
5.89679e-06
-3.22015e-07
5.88267e-06
-2.40648e-07
5.87025e-06
-1.88443e-07
-1.33447e-07
5.86454e-06
6.2366e-06
-4.52418e-07
6.27502e-06
9.43808e-08
6.27496e-06
2.78675e-07
6.24858e-06
-4.20222e-07
6.24382e-06
-1.07638e-07
6.22123e-06
1.62351e-08
6.25171e-06
2.64401e-07
6.27863e-06
4.43563e-07
6.31371e-06
3.92543e-07
6.3139e-06
3.16534e-08
6.30388e-06
-1.42804e-07
6.29261e-06
-2.1645e-07
6.26865e-06
-3.56835e-07
6.24952e-06
-3.90498e-07
6.22523e-06
-3.57008e-07
6.19862e-06
-3.62999e-07
6.18191e-06
-3.05306e-07
6.16868e-06
-2.27418e-07
6.15689e-06
-1.76655e-07
-1.26758e-07
6.1502e-06
6.53678e-06
-4.1373e-07
6.57415e-06
5.70142e-08
6.57615e-06
2.76677e-07
6.54719e-06
-3.91269e-07
6.54454e-06
-1.04982e-07
6.5231e-06
3.76724e-08
6.55043e-06
2.37074e-07
6.57958e-06
4.14413e-07
6.61119e-06
3.60932e-07
6.6124e-06
3.04456e-08
6.60293e-06
-1.33339e-07
6.59112e-06
-2.04639e-07
6.56743e-06
-3.33142e-07
6.54781e-06
-3.7088e-07
6.5248e-06
-3.33999e-07
6.4984e-06
-3.36598e-07
6.48117e-06
-2.88077e-07
6.46853e-06
-2.1478e-07
6.45736e-06
-1.65482e-07
-1.19729e-07
6.45033e-06
6.85156e-06
-3.75495e-07
6.88742e-06
2.11462e-08
6.89199e-06
2.72115e-07
6.86044e-06
-3.59725e-07
6.85945e-06
-1.0399e-07
6.83983e-06
5.72937e-08
6.86341e-06
2.13494e-07
6.89451e-06
3.83314e-07
6.92325e-06
3.32188e-07
6.92482e-06
2.88767e-08
6.91614e-06
-1.24662e-07
6.90409e-06
-1.92588e-07
6.88057e-06
-3.09614e-07
6.8606e-06
-3.50916e-07
6.83882e-06
-3.12222e-07
6.81289e-06
-3.10668e-07
6.79516e-06
-2.70343e-07
6.78292e-06
-2.02543e-07
6.77225e-06
-1.54806e-07
-1.12873e-07
6.76539e-06
7.18163e-06
-3.37991e-07
7.21555e-06
-1.27732e-08
7.22305e-06
2.64613e-07
7.1891e-06
-3.2577e-07
7.18919e-06
-1.04085e-07
7.172e-06
7.44874e-08
7.19158e-06
1.93917e-07
7.22405e-06
3.50838e-07
7.25057e-06
3.05672e-07
7.25202e-06
2.74231e-08
7.24418e-06
-1.1682e-07
7.23224e-06
-1.80647e-07
7.20894e-06
-2.86316e-07
7.18865e-06
-3.3062e-07
7.16807e-06
-2.91642e-07
7.14277e-06
-2.8537e-07
7.12441e-06
-2.51982e-07
7.11238e-06
-1.90518e-07
7.10214e-06
-1.44561e-07
-1.0641e-07
7.09568e-06
7.52773e-06
-3.015e-07
7.55929e-06
-4.43251e-08
7.56987e-06
2.54026e-07
7.53393e-06
-2.89823e-07
7.53445e-06
-1.04614e-07
7.52023e-06
8.87107e-08
7.536e-06
1.7815e-07
7.5689e-06
3.17934e-07
7.59386e-06
2.80718e-07
7.59486e-06
2.64153e-08
7.58775e-06
-1.09708e-07
7.57618e-06
-1.69071e-07
7.55334e-06
-2.6348e-07
7.53296e-06
-3.10244e-07
7.51338e-06
-2.72057e-07
7.48882e-06
-2.60806e-07
7.46952e-06
-2.32687e-07
7.45727e-06
-1.78268e-07
7.44755e-06
-1.34842e-07
-1.0039e-07
7.44153e-06
7.89061e-06
-2.66303e-07
7.91934e-06
-7.30479e-08
7.93294e-06
2.40421e-07
7.89576e-06
-2.52645e-07
7.89602e-06
-1.0487e-07
7.88513e-06
9.96061e-08
7.89751e-06
1.65768e-07
7.92981e-06
2.85628e-07
7.95375e-06
2.56778e-07
7.9542e-06
2.59659e-08
7.94762e-06
-1.03123e-07
7.93664e-06
-1.58092e-07
7.91447e-06
-2.41313e-07
7.89421e-06
-2.89982e-07
7.87656e-06
-2.54403e-07
7.85275e-06
-2.37e-07
7.83158e-06
-2.11513e-07
7.81742e-06
-1.64116e-07
7.80755e-06
-1.24973e-07
-9.64946e-08
7.80366e-06
8.27106e-06
-2.32686e-07
8.29651e-06
-9.84949e-08
8.31281e-06
2.2412e-07
8.27539e-06
-2.1522e-07
8.27475e-06
-1.04235e-07
8.26737e-06
1.06987e-07
8.27683e-06
1.56309e-07
8.30768e-06
2.54775e-07
8.33103e-06
2.33436e-07
8.33088e-06
2.61158e-08
8.32457e-06
-9.68147e-08
8.3143e-06
-1.47819e-07
8.29293e-06
-2.19944e-07
8.27257e-06
-2.6963e-07
8.25823e-06
-2.40056e-07
8.24253e-06
-2.21301e-07
8.22985e-06
-1.98829e-07
8.22313e-06
-1.57404e-07
8.21537e-06
-1.17207e-07
-8.66771e-08
8.20555e-06
8.66988e-06
-2.00908e-07
8.69154e-06
-1.20155e-07
8.7102e-06
2.05465e-07
8.67367e-06
-1.78691e-07
8.67154e-06
-1.02106e-07
8.66769e-06
1.10839e-07
8.67475e-06
1.49243e-07
8.70339e-06
2.26144e-07
8.72634e-06
2.10478e-07
8.72585e-06
2.66067e-08
8.71965e-06
-9.06083e-08
8.71002e-06
-1.38188e-07
8.68977e-06
-1.99703e-07
8.67017e-06
-2.50029e-07
8.65782e-06
-2.27701e-07
8.64316e-06
-2.06646e-07
8.62907e-06
-1.84737e-07
8.61953e-06
-1.47862e-07
8.61116e-06
-1.08838e-07
-8.00644e-08
8.60455e-06
9.08796e-06
-1.71245e-07
9.10525e-06
-1.37448e-07
9.12592e-06
1.8479e-07
9.09136e-06
-1.44128e-07
9.08743e-06
-9.81803e-08
9.08672e-06
1.11556e-07
9.09206e-06
1.43902e-07
9.11814e-06
2.00066e-07
9.14049e-06
1.88126e-07
9.13985e-06
2.72454e-08
9.13355e-06
-8.43029e-08
9.12492e-06
-1.29561e-07
9.10612e-06
-1.80903e-07
9.0861e-06
-2.30008e-07
9.07292e-06
-2.1452e-07
9.06028e-06
-1.94008e-07
9.04826e-06
-1.7272e-07
9.04041e-06
-1.40014e-07
9.03277e-06
-1.01195e-07
-7.00392e-08
9.02275e-06
9.52612e-06
-1.43903e-07
9.53837e-06
-1.49704e-07
9.56101e-06
1.62156e-07
9.52933e-06
-1.12451e-07
9.52334e-06
-9.21933e-08
9.52541e-06
1.09487e-07
9.52955e-06
1.39762e-07
9.55265e-06
1.76973e-07
9.57439e-06
1.66382e-07
9.57408e-06
2.75523e-08
9.56734e-06
-7.75614e-08
9.55954e-06
-1.21757e-07
9.54278e-06
-1.64149e-07
9.52222e-06
-2.09444e-07
9.50484e-06
-1.97143e-07
9.48597e-06
-1.75131e-07
9.46517e-06
-1.51929e-07
9.44837e-06
-1.23213e-07
9.44121e-06
-9.40299e-08
-6.93326e-08
9.4405e-06
9.9853e-06
-1.19072e-07
9.99221e-06
-1.56614e-07
1.00164e-05
1.38008e-07
9.98844e-06
-8.45302e-08
9.98035e-06
-8.4099e-08
9.98444e-06
1.05398e-07
9.98816e-06
1.36034e-07
1.00083e-05
1.56786e-07
1.00289e-05
1.45835e-07
1.00289e-05
2.75489e-08
1.0022e-05
-7.06349e-08
1.00144e-05
-1.14133e-07
9.99836e-06
-1.48163e-07
9.97857e-06
-1.89649e-07
9.96681e-06
-1.85381e-07
9.95865e-06
-1.66975e-07
9.95074e-06
-1.44017e-07
9.94406e-06
-1.16539e-07
9.93499e-06
-8.49568e-08
-5.75452e-08
9.9232e-06
1.04664e-05
-9.68341e-08
1.04682e-05
-1.5841e-07
1.04932e-05
1.13042e-07
1.04694e-05
-6.08003e-08
1.04594e-05
-7.41027e-08
1.04651e-05
9.97059e-08
1.04687e-05
1.32497e-07
1.04857e-05
1.39708e-07
1.05051e-05
1.26527e-07
1.05059e-05
2.67505e-08
1.04985e-05
-6.33224e-08
1.04908e-05
-1.06436e-07
1.04761e-05
-1.33419e-07
1.0456e-05
-1.69589e-07
1.04386e-05
-1.67916e-07
1.04223e-05
-1.50732e-07
1.0406e-05
-1.27698e-07
1.0392e-05
-1.0255e-07
1.03842e-05
-7.71008e-08
-5.66029e-08
1.03832e-05
1.09704e-05
-7.72352e-08
1.0968e-05
-1.55958e-07
1.09924e-05
8.85782e-08
1.09732e-05
-4.15486e-08
1.09619e-05
-6.28332e-08
1.09681e-05
9.34677e-08
1.0972e-05
1.28619e-07
1.09866e-05
1.2516e-07
1.10039e-05
1.09237e-07
1.1005e-05
2.56101e-08
1.09974e-05
-5.56969e-08
1.09892e-05
-9.82829e-08
1.09752e-05
-1.19442e-07
1.09553e-05
-1.49631e-07
1.09377e-05
-1.50375e-07
1.09234e-05
-1.36402e-07
1.09107e-05
-1.15023e-07
1.09009e-05
-9.26969e-08
1.0893e-05
-6.92178e-08
-5.11877e-08
1.08876e-05
1.14983e-05
-6.01807e-08
1.14928e-05
-1.50491e-07
1.15155e-05
6.59613e-08
1.15005e-05
-2.66142e-08
1.14887e-05
-5.09688e-08
1.1495e-05
8.70819e-08
1.14994e-05
1.24291e-07
1.15112e-05
1.13319e-07
1.15264e-05
9.40063e-08
1.1528e-05
2.40323e-08
1.15199e-05
-4.75411e-08
1.15108e-05
-8.91809e-08
1.14977e-05
-1.06395e-07
1.14793e-05
-1.31237e-07
1.14628e-05
-1.33873e-07
1.14495e-05
-1.2308e-07
1.14377e-05
-1.03252e-07
1.14286e-05
-8.3554e-08
1.14216e-05
-6.21829e-08
-4.61647e-08
1.14165e-05
1.20512e-05
-4.55558e-08
1.20438e-05
-1.43052e-07
1.20634e-05
4.62703e-08
1.20525e-05
-1.57037e-08
1.20409e-05
-3.93552e-08
1.20469e-05
8.10581e-08
1.20516e-05
1.19653e-07
1.20613e-05
1.0363e-07
1.20742e-05
8.10357e-08
1.20757e-05
2.25747e-08
1.20674e-05
-3.92142e-08
1.20578e-05
-7.9572e-08
1.20459e-05
-9.45449e-08
1.20293e-05
-1.14623e-07
1.20133e-05
-1.17891e-07
1.20005e-05
-1.1023e-07
1.19897e-05
-9.24887e-08
1.19813e-05
-7.51897e-08
1.19756e-05
-5.63927e-08
-4.09168e-08
1.19703e-05
1.26302e-05
-3.31515e-08
1.26216e-05
-1.34441e-07
1.2638e-05
2.98764e-08
1.26303e-05
-8.07851e-09
1.26197e-05
-2.86659e-08
1.26252e-05
7.54742e-08
1.263e-05
1.14895e-07
1.26376e-05
9.6053e-08
1.26483e-05
7.03301e-08
1.26499e-05
2.09364e-08
1.2642e-05
-3.12567e-08
1.26315e-05
-6.91254e-08
1.26202e-05
-8.32656e-08
1.26055e-05
-9.98936e-08
1.25906e-05
-1.03026e-07
1.25785e-05
-9.80455e-08
1.25685e-05
-8.25752e-08
1.25602e-05
-6.68098e-08
1.25551e-05
-5.13559e-08
-3.65042e-08
1.25507e-05
1.32365e-05
-2.27433e-08
1.32274e-05
-1.25315e-07
1.32404e-05
1.68969e-08
1.32353e-05
-2.98442e-09
1.3226e-05
-1.93575e-08
1.32311e-05
7.03018e-08
1.32358e-05
1.10229e-07
1.32416e-05
9.02293e-08
1.32502e-05
6.18047e-08
1.32517e-05
1.94318e-08
1.32442e-05
-2.37829e-08
1.32335e-05
-5.84444e-08
1.32227e-05
-7.24883e-08
1.32095e-05
-8.67026e-08
1.31959e-05
-8.93314e-08
1.3184e-05
-8.61637e-08
1.31749e-05
-7.34833e-08
1.31672e-05
-5.91559e-08
1.31623e-05
-4.64156e-08
-3.33543e-08
1.31591e-05
1.38715e-05
-1.40962e-08
1.38623e-05
-1.16097e-07
1.38722e-05
6.98646e-09
1.38688e-05
4.31799e-10
1.3861e-05
-1.15356e-08
1.3866e-05
6.52914e-08
1.38705e-05
1.05667e-07
1.38746e-05
8.61794e-08
1.38809e-05
5.54813e-08
1.38823e-05
1.80069e-08
1.38758e-05
-1.72838e-08
1.38654e-05
-4.79909e-08
1.38545e-05
-6.15906e-08
1.38423e-05
-7.4504e-08
1.38299e-05
-7.6987e-08
1.38189e-05
-7.51498e-08
1.38106e-05
-6.5172e-08
1.38038e-05
-5.23143e-08
1.37986e-05
-4.11938e-08
-3.08318e-08
1.3796e-05
1.45366e-05
-6.98227e-09
1.45276e-05
-1.07149e-07
1.45348e-05
-2.41599e-10
1.45322e-05
3.03352e-09
1.45259e-05
-5.20401e-09
1.4531e-05
6.017e-08
1.45355e-05
1.01208e-07
1.4538e-05
8.36957e-08
1.45423e-05
5.11266e-08
1.45434e-05
1.6929e-08
1.45379e-05
-1.17572e-08
1.45278e-05
-3.79469e-08
1.4517e-05
-5.08047e-08
1.45058e-05
-6.33008e-08
1.44948e-05
-6.59698e-08
1.44846e-05
-6.49266e-08
1.44766e-05
-5.71863e-08
1.44707e-05
-4.64253e-08
1.44658e-05
-3.62422e-08
-2.83424e-08
1.44633e-05
1.52331e-05
-1.21595e-09
1.52245e-05
-9.85811e-08
1.52296e-05
-5.31868e-09
1.52273e-05
5.36089e-09
1.5222e-05
6.08467e-11
1.52275e-05
5.47413e-08
1.5232e-05
9.66519e-08
1.52332e-05
8.25008e-08
1.52355e-05
4.88153e-08
1.52361e-05
1.63793e-08
1.52316e-05
-7.2582e-09
1.52225e-05
-2.89115e-08
1.52122e-05
-4.04678e-08
1.52015e-05
-5.25678e-08
1.51914e-05
-5.59006e-08
1.51821e-05
-5.56642e-08
1.51748e-05
-4.9828e-08
1.51696e-05
-4.12218e-08
1.51652e-05
-3.19173e-08
-2.53715e-08
1.51623e-05
1.59628e-05
3.36509e-09
1.59546e-05
-9.04173e-08
1.5958e-05
-8.69206e-09
1.59556e-05
7.70985e-09
1.59508e-05
4.84986e-09
1.59564e-05
4.91138e-08
1.59613e-05
9.18141e-08
1.59616e-05
8.21939e-08
1.59622e-05
4.81943e-08
1.5962e-05
1.65919e-08
1.59584e-05
-3.6742e-09
1.59507e-05
-2.11617e-08
1.59409e-05
-3.0736e-08
1.59307e-05
-4.23578e-08
1.59215e-05
-4.6708e-08
1.59133e-05
-4.74203e-08
1.59065e-05
-4.3061e-08
1.59016e-05
-3.62984e-08
1.5898e-05
-2.83563e-08
-2.23561e-08
1.5895e-05
1.67271e-05
6.87071e-09
1.67192e-05
-8.25223e-08
1.67214e-05
-1.08648e-08
1.67188e-05
1.02704e-08
1.67138e-05
9.86663e-09
1.67191e-05
4.38415e-08
1.67245e-05
8.63609e-08
1.67247e-05
8.20647e-08
1.67239e-05
4.89557e-08
1.67227e-05
1.77332e-08
1.67197e-05
-6.53442e-10
1.67134e-05
-1.48826e-08
1.67049e-05
-2.22235e-08
1.66954e-05
-3.28323e-08
1.66868e-05
-3.81429e-08
1.66793e-05
-3.99213e-08
1.66732e-05
-3.69506e-08
1.66686e-05
-3.17047e-08
1.66658e-05
-2.54798e-08
-1.96565e-08
1.66631e-05
1.75278e-05
9.40248e-09
1.75201e-05
-7.47829e-08
1.75213e-05
-1.20301e-08
1.75186e-05
1.29655e-08
1.75128e-05
1.56589e-08
1.7517e-05
3.96134e-08
1.75235e-05
7.98307e-08
1.75241e-05
8.14583e-08
1.75224e-05
5.07333e-08
1.75203e-05
1.98262e-08
1.75174e-05
2.23315e-09
1.75125e-05
-1.00408e-08
1.75056e-05
-1.52714e-08
1.7497e-05
-2.42164e-08
1.74889e-05
-3.01251e-08
1.7482e-05
-3.30043e-08
1.74766e-05
-3.15564e-08
1.74724e-05
-2.74962e-08
1.74699e-05
-2.29046e-08
-1.75135e-08
1.74677e-05
1.83667e-05
1.10906e-08
1.83591e-05
-6.71848e-08
1.83591e-05
-1.21065e-08
1.83568e-05
1.53194e-08
1.83502e-05
2.22605e-08
1.83527e-05
3.70844e-08
1.83602e-05
7.232e-08
1.8362e-05
7.97207e-08
1.83597e-05
5.30298e-08
1.83567e-05