/*--------------------------------*- C++ -*----------------------------------*\
| =========                 |                                                 |
| \\      /  F ield         | OpenFOAM: The Open Source CFD Toolbox           |
|  \\    /   O peration     | Version:  v1912                                 |
|   \\  /    A nd           | Website:  www.openfoam.com                      |
|    \\/     M anipulation  |                                                 |
\*---------------------------------------------------------------------------*/
FoamFile
{
    version     2.0;
    format      ascii;
    class       volVectorField;
    location    "7";
    object      U;
}
// * * * * * * * * * * * * * * * * * * * * * * * * * * * * * * * * * * * * * //

dimensions      [0 1 -1 0 0 0 0];


internalField   nonuniform List<vector> 
9600
(
(0.944086 -0.0131951 0)
(1.01991 0.0124246 0)
(0.990242 0.000600702 0)
(1.00447 -0.0102096 0)
(1.00648 -0.00427229 0)
(1.04493 -0.000669853 0)
(1.04298 0.0232986 0)
(1.06088 0.0195801 0)
(1.03178 0.030768 0)
(1.05613 -0.0263385 0)
(0.902898 0.00423896 0)
(1.06892 -0.0303773 0)
(0.778999 -0.0217344 0)
(1.13594 -0.0304534 0)
(0.709541 -0.0393631 0)
(1.18775 -0.0135283 0)
(0.796074 -0.0294395 0)
(1.18552 0.00428725 0)
(0.876817 -0.00647559 0)
(1.19116 0.0163105 0)
(0.950955 -0.0129516 0)
(1.01979 0.0121844 0)
(0.99443 0.00076135 0)
(1.00268 -0.0103029 0)
(1.00918 -0.00477677 0)
(1.04439 -0.00100228 0)
(1.04486 0.0229707 0)
(1.05734 0.0197038 0)
(1.03604 0.030462 0)
(1.04855 -0.0238093 0)
(0.932949 0.0035448 0)
(1.03436 -0.0273397 0)
(0.8503 -0.0237174 0)
(1.07336 -0.0283305 0)
(0.807406 -0.0410832 0)
(1.11764 -0.0155547 0)
(0.892907 -0.0294906 0)
(1.10711 0.00195631 0)
(0.993002 -0.00626847 0)
(1.07963 0.0144987 0)
(0.959089 -0.0127748 0)
(1.01942 0.0118444 0)
(0.999337 0.000890575 0)
(0.996755 -0.0104251 0)
(1.01188 -0.00519375 0)
(1.04321 -0.0013112 0)
(1.04809 0.0227064 0)
(1.05358 0.0198841 0)
(1.04204 0.0306852 0)
(1.04332 -0.0227901 0)
(0.960687 0.00379053 0)
(1.01711 -0.0266249 0)
(0.913483 -0.0241985 0)
(1.02545 -0.0282876 0)
(0.900698 -0.0412935 0)
(1.04155 -0.0177156 0)
(0.965361 -0.028583 0)
(1.03969 -0.00121727 0)
(1.02574 -0.00525857 0)
(1.04751 0.0120947 0)
(0.967008 -0.0126511 0)
(1.01888 0.0115196 0)
(1.00305 0.00108912 0)
(0.988062 -0.010512 0)
(1.01212 -0.00567608 0)
(1.04173 -0.00163935 0)
(1.05152 0.0226106 0)
(1.05297 0.0200664 0)
(1.04839 0.0307282 0)
(1.03979 -0.0214645 0)
(0.982265 0.00397492 0)
(1.00614 -0.0256985 0)
(0.953635 -0.0240737 0)
(0.995254 -0.0283105 0)
(0.949931 -0.0410344 0)
(0.995848 -0.0193997 0)
(0.992891 -0.0286114 0)
(1.01361 -0.00267377 0)
(1.02332 -0.00548173 0)
(1.0386 0.0103678 0)
(0.973995 -0.0125663 0)
(1.01799 0.0112279 0)
(1.00505 0.00138269 0)
(0.98003 -0.0105685 0)
(1.00955 -0.00625852 0)
(1.03983 -0.00201963 0)
(1.05518 0.0224595 0)
(1.05574 0.0201553 0)
(1.05378 0.0308413 0)
(1.03868 -0.0204195 0)
(0.994919 0.00432741 0)
(1.00461 -0.0251309 0)
(0.974969 -0.0237686 0)
(0.985564 -0.0285543 0)
(0.969388 -0.0405083 0)
(0.980705 -0.0207371 0)
(0.997018 -0.0289483 0)
(1.0078 -0.00371076 0)
(1.0233 -0.00592968 0)
(1.03501 0.0092218 0)
(0.97978 -0.0125092 0)
(1.01623 0.0109633 0)
(1.00569 0.00174701 0)
(0.975185 -0.0105882 0)
(1.00568 -0.00692497 0)
(1.03654 -0.00251981 0)
(1.05894 0.0221512 0)
(1.0596 0.0202358 0)
(1.05773 0.0310226 0)
(1.03778 -0.0193387 0)
(1.00268 0.00465081 0)
(1.00618 -0.0245626 0)
(0.984872 -0.0233401 0)
(0.983807 -0.0286116 0)
(0.975647 -0.0399349 0)
(0.978955 -0.0218377 0)
(0.994945 -0.0292187 0)
(1.00553 -0.00502125 0)
(1.02504 -0.00644048 0)
(1.03558 0.00818489 0)
(0.984393 -0.012465 0)
(1.01314 0.0107234 0)
(1.00571 0.00213766 0)
(0.974188 -0.010568 0)
(1.00207 -0.00761417 0)
(1.03053 -0.00313162 0)
(1.06091 0.0217255 0)
(1.0615 0.0203415 0)
(1.05931 0.0312763 0)
(1.03654 -0.0182815 0)
(1.00818 0.0049151 0)
(1.00954 -0.0239916 0)
(0.990482 -0.0228526 0)
(0.984244 -0.0286068 0)
(0.977781 -0.0393979 0)
(0.979987 -0.022726 0)
(0.992699 -0.0295172 0)
(1.00323 -0.00652034 0)
(1.02411 -0.00706746 0)
(1.03604 0.00696567 0)
(0.987931 -0.0124148 0)
(1.00881 0.0105042 0)
(1.00562 0.00251303 0)
(0.976336 -0.0105081 0)
(0.999322 -0.00823277 0)
(1.02115 -0.00381749 0)
(1.05808 0.0212013 0)
(1.05878 0.0204505 0)
(1.05814 0.0315595 0)
(1.03442 -0.0172526 0)
(1.01286 0.00507067 0)
(1.01347 -0.0233692 0)
(0.99449 -0.0223162 0)
(0.984752 -0.0285072 0)
(0.977925 -0.0388434 0)
(0.980306 -0.0235466 0)
(0.991128 -0.0298557 0)
(1.00125 -0.00794837 0)
(1.0214 -0.00776768 0)
(1.03437 0.00541571 0)
(0.990422 -0.0123419 0)
(1.00398 0.0102955 0)
(1.00558 0.00283262 0)
(0.980371 -0.0104157 0)
(0.997398 -0.00869946 0)
(1.00914 -0.00448559 0)
(1.04864 0.0205939 0)
(1.05055 0.020513 0)
(1.05474 0.0318006 0)
(1.03154 -0.0162975 0)
(1.01704 0.00509406 0)
(1.01754 -0.0226877 0)
(0.998253 -0.0217095 0)
(0.985489 -0.0282438 0)
(0.976984 -0.0383127 0)
(0.979271 -0.0243513 0)
(0.989661 -0.0301907 0)
(0.999675 -0.00931226 0)
(1.0188 -0.00853336 0)
(1.03171 0.00374761 0)
(0.991904 -0.0122371 0)
(0.999704 0.0100854 0)
(1.00567 0.00307181 0)
(0.985044 -0.0102981 0)
(0.996135 -0.00896808 0)
(0.996672 -0.00502352 0)
(1.03389 0.0199397 0)
(1.03841 0.0204553 0)
(1.05058 0.0319222 0)
(1.02817 -0.0154412 0)
(1.02073 0.00495814 0)
(1.02097 -0.0219523 0)
(1.00212 -0.0210245 0)
(0.987041 -0.0277838 0)
(0.976047 -0.0377727 0)
(0.977175 -0.0250836 0)
(0.987498 -0.0306184 0)
(0.997967 -0.0107064 0)
(1.01685 -0.00934563 0)
(1.02956 0.00212482 0)
(0.992583 -0.0121013 0)
(0.996871 0.00986234 0)
(1.00604 0.00323175 0)
(0.989415 -0.0101604 0)
(0.995417 -0.00903892 0)
(0.986287 -0.00538207 0)
(1.01789 0.0192649 0)
(1.02569 0.0201984 0)
(1.04728 0.0318726 0)
(1.02483 -0.0146777 0)
(1.02382 0.00466498 0)
(1.02304 -0.0211751 0)
(1.00593 -0.0203172 0)
(0.989805 -0.0271232 0)
(0.976278 -0.0371312 0)
(0.975031 -0.0257024 0)
(0.984277 -0.0311871 0)
(0.995354 -0.0121656 0)
(1.01492 -0.0101974 0)
(1.02823 0.000463511 0)
(0.992905 -0.0119422 0)
(0.995684 0.00961516 0)
(1.00673 0.00333667 0)
(0.992948 -0.0100107 0)
(0.995065 -0.00894006 0)
(0.979711 -0.00555561 0)
(1.00515 0.0185829 0)
(1.01564 0.0197103 0)
(1.04547 0.0316506 0)
(1.02216 -0.0139709 0)
(1.02597 0.00425404 0)
(1.02345 -0.0203693 0)
(1.00914 -0.0196731 0)
(0.993534 -0.0262924 0)
(0.978208 -0.0363578 0)
(0.974116 -0.0261388 0)
(0.980392 -0.031777 0)
(0.991312 -0.0137365 0)
(1.0118 -0.0111747 0)
(1.02668 -0.00137733 0)
(0.993397 -0.0117708 0)
(0.995605 0.00933907 0)
(1.00754 0.00341117 0)
(0.995502 -0.00984614 0)
(0.994805 -0.00873025 0)
(0.977156 -0.00559346 0)
(0.997999 0.0179034 0)
(1.00969 0.0190363 0)
(1.04445 0.0312969 0)
(1.02064 -0.0132681 0)
(1.02667 0.00376977 0)
(1.02256 -0.019533 0)
(1.0111 -0.019157 0)
(0.997427 -0.0253564 0)
(0.981449 -0.0354862 0)
(0.975137 -0.0263013 0)
(0.976855 -0.0322128 0)
(0.986004 -0.015375 0)
(1.0066 -0.0123152 0)
(1.0231 -0.003402 0)
(0.994408 -0.0115963 0)
(0.995718 0.00903995 0)
(1.00808 0.00347125 0)
(0.997243 -0.00966067 0)
(0.99441 -0.00847313 0)
(0.97752 -0.00557884 0)
(0.99568 0.0172309 0)
(1.00712 0.0182676 0)
(1.04277 0.0308565 0)
(1.0203 -0.0125348 0)
(1.02557 0.00326247 0)
(1.02112 -0.0186554 0)
(1.0115 -0.0188089 0)
(1.00056 -0.024374 0)
(0.985077 -0.0345681 0)
(0.977683 -0.0261636 0)
(0.974738 -0.0323532 0)
(0.980327 -0.0169629 0)
(0.999439 -0.0135217 0)
(1.01618 -0.00561288 0)
(0.995936 -0.0114219 0)
(0.995315 0.00873102 0)
(1.00801 0.00352213 0)
(0.998467 -0.0094573 0)
(0.99384 -0.00820246 0)
(0.97919 -0.00555699 0)
(0.995616 0.0165767 0)
(1.00603 0.0175 0)
(1.03939 0.0303529 0)
(1.02064 -0.0117625 0)
(1.02283 0.00276206 0)
(1.01971 -0.0177526 0)
(1.01064 -0.0186065 0)
(1.00233 -0.0234128 0)
(0.988328 -0.0336665 0)
(0.980577 -0.0257778 0)
(0.974521 -0.0321132 0)
(0.975469 -0.0183599 0)
(0.991447 -0.0146089 0)
(1.00631 -0.00785445 0)
(0.997682 -0.0112451 0)
(0.994234 0.00842685 0)
(1.00728 0.00355757 0)
(0.999431 -0.00924335 0)
(0.993241 -0.00792713 0)
(0.980869 -0.00554264 0)
(0.995413 0.0159536 0)
(1.00478 0.0168018 0)
(1.03437 0.0297781 0)
(1.021 -0.0109626 0)
(1.01924 0.00226462 0)
(1.01858 -0.0168613 0)
(1.00924 -0.0184801 0)
(1.00272 -0.0225386 0)
(0.99092 -0.0328127 0)
(0.982799 -0.0252725 0)
(0.975854 -0.0315027 0)
(0.972314 -0.0194353 0)
(0.984092 -0.0153526 0)
(0.995445 -0.00985496 0)
(0.999272 -0.011061 0)
(0.99279 0.00813815 0)
(1.00615 0.00356845 0)
(1.00025 -0.00902848 0)
(0.992794 -0.00763866 0)
(0.981971 -0.00551976 0)
(0.994086 0.0153687 0)
(1.00281 0.0161883 0)
(1.02867 0.0291111 0)
(1.02092 -0.0101625 0)
(1.01574 0.00175573 0)
(1.01766 -0.0160004 0)
(1.008 -0.0183801 0)
(1.00217 -0.0217577 0)
(0.992879 -0.0319972 0)
(0.984052 -0.0247654 0)
(0.977869 -0.0306278 0)
(0.971073 -0.0201591 0)
(0.978419 -0.0156644 0)
(0.985861 -0.01139 0)
(1.00046 -0.0108644 0)
(0.99143 0.00786574 0)
(1.00493 0.00355191 0)
(1.00095 -0.00882032 0)
(0.992601 -0.00733284 0)
(0.982507 -0.00545951 0)
(0.991938 0.0148198 0)
(1.00048 0.0156405 0)
(1.02341 0.0283494 0)
(1.02036 -0.0093807 0)
(1.01296 0.00122699 0)
(1.01681 -0.0151678 0)
(1.00724 -0.0182777 0)
(1.00124 -0.0210457 0)
(0.99431 -0.031215 0)
(0.984628 -0.0242953 0)
(0.979734 -0.0295958 0)
(0.971307 -0.0205837 0)
(0.974758 -0.0156076 0)
(0.978939 -0.0123131 0)
(1.00118 -0.0106523 0)
(0.990449 0.00760364 0)
(1.00386 0.00351244 0)
(1.00148 -0.00862665 0)
(0.992651 -0.00700464 0)
(0.982743 -0.00535298 0)
(0.989737 0.0142978 0)
(0.998371 0.015136 0)
(1.01927 0.0274951 0)
(1.01952 -0.00861756 0)
(1.01102 0.000671908 0)
(1.01596 -0.014351 0)
(1.00692 -0.0181702 0)
(1.00037 -0.0203753 0)
(0.995313 -0.0304472 0)
(0.98495 -0.0238687 0)
(0.981043 -0.0284897 0)
(0.972303 -0.0207757 0)
(0.972827 -0.0152747 0)
(0.974806 -0.012682 0)
(1.00152 -0.010424 0)
(0.989908 0.00734434 0)
(1.00302 0.00345809 0)
(1.00186 -0.00845096 0)
(0.992874 -0.00664987 0)
(0.982928 -0.005198 0)
(0.988036 0.0137907 0)
(0.996856 0.0146522 0)
(1.01634 0.0265629 0)
(1.01867 -0.00786781 0)
(1.00975 8.36813e-05 0)
(1.01506 -0.0135536 0)
(1.00685 -0.0180535 0)
(0.99974 -0.019734 0)
(0.995986 -0.0296518 0)
(0.985279 -0.0234874 0)
(0.981796 -0.0273248 0)
(0.973473 -0.020829 0)
(0.972088 -0.0147874 0)
(0.972788 -0.0125932 0)
(1.0016 -0.0101802 0)
(0.989721 0.00708143 0)
(1.00238 0.00339513 0)
(1.00209 -0.00829014 0)
(0.993196 -0.00627329 0)
(0.983197 -0.00499827 0)
(0.986993 0.0132856 0)
(0.995949 0.0141774 0)
(1.01434 0.0255694 0)
(1.01793 -0.00711772 0)
(1.00889 -0.00052825 0)
(1.01408 -0.0127792 0)
(1.00687 -0.017916 0)
(0.999336 -0.0191218 0)
(0.996411 -0.0287958 0)
(0.985691 -0.0231514 0)
(0.982176 -0.026124 0)
(0.97452 -0.0207738 0)
(0.97205 -0.0142712 0)
(0.972049 -0.0121886 0)
(1.00155 -0.00992155 0)
(0.989758 0.00680936 0)
(1.00189 0.00333106 0)
(1.00219 -0.00814466 0)
(0.99356 -0.00587876 0)
(0.983597 -0.00476496 0)
(0.986515 0.0127781 0)
(0.995469 0.0137114 0)
(1.0129 0.0245206 0)
(1.01735 -0.0063618 0)
(1.00826 -0.00114331 0)
(1.01301 -0.0120219 0)
(1.00689 -0.01776 0)
(0.999083 -0.0185419 0)
(0.996651 -0.0278688 0)
(0.986166 -0.0228542 0)
(0.982355 -0.024901 0)
(0.975381 -0.0206005 0)
(0.972379 -0.0138055 0)
(0.97196 -0.011588 0)
(1.00143 -0.00964894 0)
(0.989913 0.00652549 0)
(1.0015 0.00327049 0)
(1.0022 -0.00801408 0)
(0.993926 -0.00547081 0)
(0.984132 -0.00450602 0)
(0.986443 0.0122652 0)
(0.995208 0.0132575 0)
(1.01173 0.0234254 0)
(1.01686 -0.00559592 0)
(1.00774 -0.00174127 0)
(1.01185 -0.0112856 0)
(1.00687 -0.017588 0)
(0.998903 -0.0179989 0)
(0.99674 -0.0268702 0)
(0.98667 -0.0225683 0)
(0.982438 -0.0236615 0)
(0.976086 -0.0203003 0)
(0.972897 -0.0134407 0)
(0.972154 -0.0108866 0)
(1.0013 -0.00936287 0)
(0.990121 0.00622848 0)
(1.00119 0.00321595 0)
(1.00211 -0.00789598 0)
(0.99426 -0.00505821 0)
(0.984791 -0.00422364 0)
(0.986652 0.0117449 0)
(0.995021 0.012823 0)
(1.01068 0.0222862 0)
(1.01639 -0.00482481 0)
(1.00731 -0.00230533 0)
(1.01065 -0.0105827 0)
(1.00679 -0.0173909 0)
(0.998744 -0.0174993 0)
(0.9967 -0.0258038 0)
(0.987177 -0.0222771 0)
(0.982482 -0.022449 0)
(0.976681 -0.0198472 0)
(0.973519 -0.0131725 0)
(0.972465 -0.0101705 0)
(1.00119 -0.00906381 0)
(0.990352 0.00591724 0)
(1.00093 0.00316987 0)
(1.00194 -0.00778827 0)
(0.994527 -0.00464781 0)
(0.98555 -0.00392239 0)
(0.987061 0.0112174 0)
(0.994842 0.0124185 0)
(1.00967 0.0211028 0)
(1.01589 -0.00406494 0)
(1.00695 -0.00282093 0)
(1.00945 -0.00992548 0)
(1.00664 -0.0171444 0)
(0.998577 -0.0170639 0)
(0.996545 -0.0246727 0)
(0.987671 -0.0219664 0)
(0.982524 -0.0212832 0)
(0.977205 -0.0192595 0)
(0.974204 -0.0129968 0)
(0.972832 -0.00949394 0)
(1.00111 -0.00875176 0)
(0.990598 0.00559064 0)
(1.0007 0.00313386 0)
(1.00171 -0.00768724 0)
(0.994696 -0.00424565 0)
(0.986369 -0.00360895 0)
(0.987617 0.0106907 0)
(0.994667 0.0120453 0)
(1.00874 0.0198795 0)
(1.01531 -0.00332528 0)
(1.00668 -0.00327649 0)
(1.00833 -0.00932852 0)
(1.00642 -0.0168375 0)
(0.998394 -0.0166787 0)
(0.996298 -0.0234957 0)
(0.988141 -0.0216144 0)
(0.98259 -0.02019 0)
(0.977682 -0.0185552 0)
(0.974931 -0.0128804 0)
(0.973258 -0.00888738 0)
(1.00104 -0.00842744 0)
(0.990865 0.00524927 0)
(1.00051 0.00310958 0)
(1.00143 -0.0075902 0)
(0.994746 -0.00385779 0)
(0.9872 -0.0032881 0)
(0.98828 0.0101688 0)
(0.994532 0.0117024 0)
(1.00793 0.01863 0)
(1.01466 -0.00261802 0)
(1.00651 -0.00366872 0)
(1.00733 -0.00879041 0)
(1.00613 -0.0164733 0)
(0.998205 -0.0163211 0)
(0.995981 -0.0223007 0)
(0.988577 -0.0212045 0)
(0.982699 -0.0191799 0)
(0.978142 -0.017753 0)
(0.975688 -0.0127542 0)
(0.973767 -0.00838303 0)
(1.00099 -0.00809282 0)
(0.991161 0.00489509 0)
(1.00033 0.00309808 0)
(1.00114 -0.00748929 0)
(0.994674 -0.00349383 0)
(0.98799 -0.00296174 0)
(0.989009 0.00964601 0)
(0.994483 0.011392 0)
(1.00729 0.0173785 0)
(1.01396 -0.00195489 0)
(1.00642 -0.00398622 0)
(1.00648 -0.00831212 0)
(1.00579 -0.0160378 0)
(0.998028 -0.0159986 0)
(0.995621 -0.0211111 0)
(0.988977 -0.0207193 0)
(0.982865 -0.0182525 0)
(0.978605 -0.0168825 0)
(0.976462 -0.0125979 0)
(0.974381 -0.00800291 0)
(1.00094 -0.00774788 0)
(0.991491 0.00452696 0)
(1.00017 0.00310091 0)
(1.00086 -0.00738039 0)
(0.994502 -0.00315257 0)
(0.988696 -0.00263499 0)
(0.989768 0.00911785 0)
(0.994551 0.0111078 0)
(1.00683 0.0161318 0)
(1.01324 -0.00135221 0)
(1.00641 -0.00421772 0)
(1.0058 -0.00790682 0)
(1.00542 -0.0155215 0)
(0.997881 -0.0156895 0)
(0.995252 -0.0199428 0)
(0.98934 -0.0201561 0)
(0.983093 -0.0174169 0)
(0.979081 -0.0159754 0)
(0.977242 -0.0123842 0)
(0.975112 -0.00773832 0)
(1.00088 -0.00739364 0)
(0.991853 0.00414616 0)
(1.00003 0.00311367 0)
(1.00061 -0.0072573 0)
(0.99427 -0.00283943 0)
(0.989297 -0.00231063 0)
(0.990519 0.00858086 0)
(0.994736 0.0108334 0)
(1.00655 0.0148992 0)
(1.01253 -0.000819477 0)
(1.00643 -0.00436602 0)
(1.00526 -0.00755819 0)
(1.00505 -0.0149362 0)
(0.997775 -0.0153718 0)
(0.994904 -0.0188061 0)
(0.989672 -0.0195179 0)
(0.983388 -0.0166512 0)
(0.979578 -0.0150509 0)
(0.978013 -0.0120977 0)
(0.975952 -0.00757813 0)
(1.00081 -0.00703114 0)
(0.992237 0.0037524 0)
(0.999911 0.00313813 0)
(1.0004 -0.00711295 0)
(0.994032 -0.00255619 0)
(0.98979 -0.00198542 0)
(0.991231 0.00803586 0)
(0.995006 0.0105589 0)
(1.00637 0.0137073 0)
(1.01183 -0.000361563 0)
(1.00644 -0.00442311 0)
(1.00482 -0.0072491 0)
(1.00469 -0.0143048 0)
(0.997712 -0.015023 0)
(0.994604 -0.0177151 0)
(0.989983 -0.0188086 0)
(0.983757 -0.0159508 0)
(0.980093 -0.014148 0)
(0.978764 -0.0117307 0)
(0.976875 -0.00749697 0)
(1.00074 -0.00666176 0)
(0.99263 0.00334675 0)
(0.999794 0.00317423 0)
(1.00025 -0.00694253 0)
(0.99384 -0.0023001 0)
(0.990197 -0.0016596 0)
(0.991887 0.00747808 0)
(0.995318 0.0102738 0)
(1.00624 0.0125709 0)
(1.01116 1.14499e-05 0)
(1.00641 -0.00438891 0)
(1.00444 -0.00698018 0)
(1.00434 -0.0136408 0)
(0.997685 -0.0146308 0)
(0.994367 -0.0166704 0)
(0.990279 -0.0180275 0)
(0.984201 -0.0153081 0)
(0.980634 -0.0132967 0)
(0.979491 -0.0112725 0)
(0.97785 -0.0074558 0)
(1.00066 -0.00628538 0)
(0.99302 0.00293012 0)
(0.999671 0.00321462 0)
(1.00013 -0.00674207 0)
(0.993736 -0.00207783 0)
(0.990549 -0.00132619 0)
(0.992483 0.00689865 0)
(0.995631 0.00995919 0)
(1.00608 0.011506 0)
(1.0105 0.000295153 0)
(1.0063 -0.00427875 0)
(1.00409 -0.00673298 0)
(1.00399 -0.0129558 0)
(0.997686 -0.0141967 0)
(0.9942 -0.0156714 0)
(0.990566 -0.0171802 0)
(0.98472 -0.0146955 0)
(0.981209 -0.0124947 0)
(0.9802 -0.0107345 0)
(0.978847 -0.0074102 0)
(1.00059 -0.00590327 0)
(0.9934 0.00250656 0)
(0.999531 0.00325334 0)
(1.00005 -0.00651294 0)
(0.99374 -0.00189044 0)
(0.990875 -0.000976758 0)
(0.993031 0.00631301 0)
(0.995923 0.0096074 0)
(1.00587 0.0105237 0)
(1.00983 0.000487281 0)
(1.00611 -0.00410989 0)
(1.00374 -0.00648651 0)
(1.00364 -0.012274 0)
(0.997706 -0.0137107 0)
(0.994103 -0.014722 0)
(0.990845 -0.016288 0)
(0.985308 -0.0140962 0)
(0.981829 -0.0117612 0)
(0.980898 -0.0101464 0)
(0.979834 -0.00732485 0)
(1.00053 -0.00551683 0)
(0.993771 0.00207824 0)
(0.999366 0.00328835 0)
(0.999987 -0.00624813 0)
(0.993855 -0.00174463 0)
(0.991203 -0.000624339 0)
(0.993547 0.00573248 0)
(0.996188 0.0092216 0)
(1.00558 0.00963057 0)
(1.00915 0.000607184 0)
(1.00586 -0.003898 0)
(1.00337 -0.00622917 0)
(1.00329 -0.011601 0)
(0.997736 -0.0131951 0)
(0.994067 -0.0138136 0)
(0.991115 -0.0153655 0)
(0.985953 -0.0134959 0)
(0.982498 -0.0110943 0)
(0.981602 -0.00953698 0)
(0.980798 -0.00714758 0)
(1.00048 -0.00512637 0)
(0.994137 0.00164867 0)
(0.999177 0.00331457 0)
(0.999924 -0.00595071 0)
(0.994069 -0.00162898 0)
(0.991546 -0.000268148 0)
(0.994049 0.0051624 0)
(0.996435 0.00879063 0)
(1.00523 0.00882686 0)
(1.00846 0.000671273 0)
(1.00554 -0.00366751 0)
(1.00298 -0.00596032 0)
(1.00292 -0.0109216 0)
(0.997774 -0.0126591 0)
(0.994088 -0.0129404 0)
(0.991374 -0.014419 0)
(0.986636 -0.0128793 0)
(0.983218 -0.01049 0)
(0.982325 -0.00894391 0)
(0.981726 -0.0068733 0)
(1.00044 -0.00473568 0)
(0.994502 0.0012256 0)
(0.99897 0.00332916 0)
(0.999854 -0.00562847 0)
(0.994359 -0.00154634 0)
(0.991906 9.51594e-05 0)
(0.994545 0.00463868 0)
(0.996678 0.0083104 0)
(1.00484 0.00809835 0)
(1.00778 0.000688678 0)
(1.00519 -0.00343374 0)
(1.00258 -0.00567941 0)
(1.00255 -0.010255 0)
(0.997815 -0.0120908 0)
(0.994158 -0.012112 0)
(0.991622 -0.0134535 0)
(0.987333 -0.0122319 0)
(0.983978 -0.00993058 0)
(0.983076 -0.00839076 0)
(0.982617 -0.006535 0)
(1.00041 -0.00434397 0)
(0.994873 0.000807688 0)
(0.998758 0.00331906 0)
(0.999772 -0.0052597 0)
(0.994705 -0.00149847 0)
(0.99228 0.000432721 0)
(0.995033 0.00415539 0)
(0.996922 0.00779579 0)
(1.00444 0.00744417 0)
(1.00712 0.000664407 0)
(1.00483 -0.00320919 0)
(1.00218 -0.00536458 0)
(1.00218 -0.0095966 0)
(0.997863 -0.0115081 0)
(0.994276 -0.0113354 0)
(0.991861 -0.0124985 0)
(0.988025 -0.0115657 0)
(0.984764 -0.00938211 0)
(0.983852 -0.00787806 0)
(0.983477 -0.00617121 0)
(1.00038 -0.00395704 0)
(0.99525 0.000411202 0)
(0.998557 0.00327777 0)
(0.999679 -0.00487011 0)
(0.995082 -0.00146998 0)
(0.992661 0.000757463 0)
(0.995508 0.00372549 0)
(0.997176 0.00723697 0)
(1.00404 0.006859 0)
(1.00648 0.000627188 0)
(1.00448 -0.00301754 0)
(1.0018 -0.00505097 0)
(1.0018 -0.00892905 0)
(0.997917 -0.0109103 0)
(0.994437 -0.0105924 0)
(0.992098 -0.0115576 0)
(0.988701 -0.0108865 0)
(0.985563 -0.00884304 0)
(0.984639 -0.0073839 0)
(0.984317 -0.00583048 0)
(1.00034 -0.00357516 0)
(0.995634 2.8286e-05 0)
(0.998378 0.00321103 0)
(0.999579 -0.00443329 0)
(0.995478 -0.00147682 0)
(0.993042 0.00104221 0)
(0.995957 0.003383 0)
(0.997437 0.00664811 0)
(1.00365 0.0063075 0)
(1.00586 0.000601382 0)
(1.00413 -0.0028246 0)
(1.00144 -0.00474358 0)
(1.00144 -0.00828597 0)
(0.997981 -0.0103199 0)
(0.994643 -0.00988869 0)
(0.992335 -0.0106085 0)
(0.989349 -0.0101783 0)
(0.98637 -0.00835511 0)
(0.985424 -0.00692466 0)
(0.985131 -0.00548855 0)
(1.00031 -0.00320274 0)
(0.99602 -0.000322036 0)
(0.998238 0.00309063 0)
(0.999475 -0.00397419 0)
(0.995876 -0.00147166 0)
(0.993422 0.00126982 0)
(0.996376 0.00308901 0)
(0.997698 0.00606395 0)
(1.00329 0.00579672 0)
(1.00527 0.000562812 0)
(1.00381 -0.00265639 0)
(1.0011 -0.00443477 0)
(1.00109 -0.00762712 0)
(0.998055 -0.00971372 0)
(0.994903 -0.00926902 0)
(0.992587 -0.00970459 0)
(0.989945 -0.00939349 0)
(0.987162 -0.00780974 0)
(0.986222 -0.00648157 0)
(0.985953 -0.00527679 0)
(1.00027 -0.00284149 0)
(0.996402 -0.000658349 0)
(0.998136 0.00296139 0)
(0.999375 -0.00350887 0)
(0.996274 -0.00148814 0)
(0.993795 0.00148072 0)
(0.996757 0.00285914 0)
(0.997957 0.00545522 0)
(1.00296 0.00532616 0)
(1.00471 0.000563258 0)
(1.00352 -0.00251246 0)
(1.00082 -0.00415945 0)
(1.00077 -0.00700233 0)
(0.998118 -0.00909149 0)
(0.995201 -0.00867389 0)
(0.992888 -0.00888982 0)
(0.990529 -0.00863396 0)
(0.987922 -0.00721745 0)
(0.986939 -0.00590865 0)
(0.986714 -0.0048673 0)
(1.00023 -0.00249548 0)
(0.996781 -0.000951073 0)
(0.998083 0.002763 0)
(0.999273 -0.00300426 0)
(0.996664 -0.00148371 0)
(0.99417 0.00159382 0)
(0.997093 0.00269767 0)
(0.998209 0.00489103 0)
(1.00268 0.00483207 0)
(1.00418 0.000551019 0)
(1.00324 -0.00234683 0)
(1.00056 -0.00387697 0)
(1.00046 -0.00638603 0)
(0.998193 -0.00848784 0)
(0.995529 -0.00817151 0)
(0.993209 -0.00820196 0)
(0.9911 -0.00795115 0)
(0.988721 -0.00674041 0)
(0.987731 -0.0055112 0)
(0.987403 -0.00459337 0)
(1.00019 -0.00216541 0)
(0.997146 -0.00121497 0)
(0.998069 0.00255744 0)
(0.999185 -0.00254101 0)
(0.997039 -0.00145899 0)
(0.994542 0.0016862 0)
(0.9974 0.00254985 0)
(0.998441 0.00433974 0)
(1.00242 0.00439364 0)
(1.00369 0.000565875 0)
(1.00298 -0.00222719 0)
(1.00035 -0.00364594 0)
(1.00017 -0.00579008 0)
(0.998228 -0.00783489 0)
(0.995868 -0.00769219 0)
(0.993585 -0.00763573 0)
(0.991654 -0.00746819 0)
(0.98944 -0.00650406 0)
(0.988418 -0.00519378 0)
(0.988134 -0.00413414 0)
(1.00015 -0.00185453 0)
(0.997505 -0.0014306 0)
(0.998099 0.00231629 0)
(0.999092 -0.00206308 0)
(0.997406 -0.00142641 0)
(0.994917 0.00170573 0)
(0.997658 0.00246682 0)
(0.998671 0.00385155 0)
(1.00221 0.00391982 0)
(1.00322 0.000578063 0)
(1.00272 -0.00205798 0)
(1.00018 -0.00340494 0)
(0.999939 -0.00527106 0)
(0.998268 -0.00723243 0)
(0.996187 -0.00722846 0)
(0.99392 -0.0071027 0)
(0.99214 -0.00694279 0)
(0.99023 -0.00617958 0)
(0.989347 -0.00502535 0)
(0.988947 -0.00387085 0)
(1.00011 -0.00156928 0)
(0.997841 -0.00158589 0)
(0.998164 0.00205187 0)
(0.999016 -0.00164095 0)
(0.997742 -0.00134346 0)
(0.995296 0.00169633 0)
(0.997904 0.00237156 0)
(0.998861 0.00340719 0)
(1.00203 0.00349675 0)
(1.00281 0.000592023 0)
(1.0025 -0.00190994 0)
(1.00004 -0.00322086 0)
(0.999712 -0.00473713 0)
(0.998278 -0.00660921 0)
(0.996519 -0.00678874 0)
(0.994332 -0.00661651 0)
(0.992647 -0.0063028 0)
(0.990851 -0.00553614 0)
(0.990049 -0.0044176 0)
(0.989867 -0.0034519 0)
(1.00007 -0.00130726 0)
(0.998164 -0.00169076 0)
(0.99826 0.00177713 0)
(0.99894 -0.00125012 0)
(0.998069 -0.00124825 0)
(0.995664 0.00164038 0)
(0.998105 0.00231232 0)
(0.999056 0.00301842 0)
(1.00189 0.00307726 0)
(1.0024 0.000593886 0)
(1.00225 -0.00175704 0)
(0.999944 -0.0029987 0)
(0.99956 -0.00429375 0)
(0.998279 -0.0060079 0)
(0.996807 -0.00630242 0)
(0.994749 -0.00613418 0)
(0.99322 -0.00575572 0)
(0.991689 -0.00505456 0)
(0.990946 -0.00409235 0)
(0.990477 -0.00312797 0)
(1.00004 -0.00107268 0)
(0.998457 -0.0017269 0)
(0.998383 0.00147513 0)
(0.998886 -0.00091639 0)
(0.998354 -0.00112065 0)
(0.996041 0.0015679 0)
(0.998306 0.00225959 0)
(0.999191 0.00267701 0)
(1.00176 0.00267046 0)
(1.00207 0.00058941 0)
(1.00204 -0.00157518 0)
(0.999846 -0.0028074 0)
(0.9994 -0.00389513 0)
(0.998285 -0.00538628 0)
(0.997113 -0.00577709 0)
(0.995201 -0.0056696 0)
(0.993753 -0.00528209 0)
(0.992254 -0.00467125 0)
(0.991621 -0.00389972 0)
(0.991463 -0.00296104 0)
(1 -0.000864741 0)
(0.99873 -0.00172306 0)
(0.998521 0.00118906 0)
(0.998837 -0.000655195 0)
(0.998631 -0.000958122 0)
(0.996399 0.0014779 0)
(0.998462 0.00217001 0)
(0.999332 0.0024007 0)
(1.00169 0.00233448 0)
(1.00175 0.000565026 0)
(1.0018 -0.0014038 0)
(0.999788 -0.00262971 0)
(0.999346 -0.00348239 0)
(0.998304 -0.00478215 0)
(0.997354 -0.00524192 0)
(0.995611 -0.00518412 0)
(0.994311 -0.00477321 0)
(0.993009 -0.0041246 0)
(0.992467 -0.00325817 0)
(0.992223 -0.00259661 0)
(0.999972 -0.000683362 0)
(0.998967 -0.00166951 0)
(0.998673 0.000895163 0)
(0.998817 -0.000420547 0)
(0.998864 -0.000798993 0)
(0.99675 0.0013661 0)
(0.998634 0.002133 0)
(0.99942 0.00216552 0)
(1.00159 0.00197522 0)
(1.0015 0.000532985 0)
(1.00162 -0.00119193 0)
(0.999736 -0.0024027 0)
(0.999277 -0.0031477 0)
(0.998321 -0.00423698 0)
(0.997622 -0.00467303 0)
(0.996076 -0.00463102 0)
(0.994901 -0.00422505 0)
(0.993677 -0.00369813 0)
(0.99309 -0.00301109 0)
(0.992904 -0.00251818 0)
(0.99994 -0.00052609 0)
(0.99918 -0.00159993 0)
(0.99883 0.000657527 0)
(0.998803 -0.000272296 0)
(0.999086 -0.000634046 0)
(0.99709 0.00130575 0)
(0.998764 0.00202942 0)
(0.999492 0.00194898 0)
(1.00155 0.00173557 0)
(1.00128 0.000510849 0)
(1.00141 -0.00102451 0)
(0.999689 -0.00218525 0)
(0.999297 -0.00279211 0)
(0.998395 -0.00367799 0)
(0.997861 -0.00412213 0)
(0.99649 -0.0041658 0)
(0.995423 -0.00379886 0)
(0.994322 -0.00338819 0)
(0.993803 -0.00273099 0)
(0.993591 -0.0021513 0)
(0.999911 -0.000390927 0)
(0.999361 -0.0015068 0)
(0.998986 0.000432405 0)
(0.998817 -0.000145426 0)
(0.999281 -0.000465335 0)
(0.997404 0.00118948 0)
(0.998903 0.0019561 0)
(0.999546 0.00182541 0)
(1.00148 0.00147845 0)
(1.00109 0.000453429 0)
(1.00126 -0.000804539 0)
(0.999674 -0.00188558 0)
(0.999313 -0.00247862 0)
(0.998453 -0.00324344 0)
(0.998082 -0.00362237 0)
(0.996914 -0.00371588 0)
(0.995965 -0.00338744 0)
(0.994948 -0.00300768 0)
(0.994493 -0.00248495 0)
(0.994202 -0.00190717 0)
(0.999883 -0.000277638 0)
(0.999518 -0.00141217 0)
(0.999141 0.000270803 0)
(0.998838 -6.64068e-05 0)
(0.999455 -0.000338285 0)
(0.997711 0.0011257 0)
(0.999027 0.00189235 0)
(0.999566 0.00167829 0)
(1.00144 0.00129034 0)
(1.00097 0.000447703 0)
(1.00111 -0.00062359 0)
(0.99963 -0.00163901 0)
(0.999358 -0.00218239 0)
(0.998575 -0.00280501 0)
(0.998316 -0.00312403 0)
(0.997295 -0.00328115 0)
(0.996471 -0.00303542 0)
(0.995528 -0.00265819 0)
(0.995163 -0.00226575 0)
(0.994836 -0.00173658 0)
(0.999857 -0.000182305 0)
(0.999649 -0.00130917 0)
(0.999287 0.000133092 0)
(0.998875 -1.48904e-05 0)
(0.999617 -0.000208709 0)
(0.997997 0.00104663 0)
(0.999145 0.00180293 0)
(0.999579 0.00160231 0)
(1.00138 0.0011548 0)
(1.00085 0.000391838 0)
(1.001 -0.000475744 0)
(0.999627 -0.00133498 0)
(0.999421 -0.00184764 0)
(0.998688 -0.00243133 0)
(0.99852 -0.00273175 0)
(0.997653 -0.00288498 0)
(0.996987 -0.00269629 0)
(0.9961 -0.00233978 0)
(0.995774 -0.00202559 0)
(0.995467 -0.00161873 0)
(0.999832 -0.000103142 0)
(0.999759 -0.0012132 0)
(0.999427 3.36513e-05 0)
(0.99892 2.59598e-05 0)
(0.999759 -0.000113334 0)
(0.998268 0.000959139 0)
(0.999267 0.00173502 0)
(0.999571 0.00154627 0)
(1.00133 0.00103803 0)
(1.00079 0.000373138 0)
(1.00093 -0.000316907 0)
(0.999618 -0.00107174 0)
(0.999466 -0.00156079 0)
(0.998813 -0.0020909 0)
(0.99875 -0.00234318 0)
(0.998005 -0.00248325 0)
(0.997463 -0.00237232 0)
(0.996638 -0.0020872 0)
(0.996338 -0.00178181 0)
(0.996094 -0.00149673 0)
(0.99981 -3.88641e-05 0)
(0.999848 -0.00111617 0)
(0.999556 -3.99418e-05 0)
(0.998972 5.2584e-05 0)
(0.999888 -3.38272e-05 0)
(0.998527 0.000880378 0)
(0.999391 0.00166126 0)
(0.999557 0.00151236 0)
(1.00127 0.000981979 0)
(1.00073 0.000354166 0)
(1.00089 -0.000221853 0)
(0.999635 -0.00083891 0)
(0.999535 -0.00124974 0)
(0.998947 -0.00173502 0)
(0.998966 -0.00199033 0)
(0.998322 -0.00214902 0)
(0.997905 -0.0020834 0)
(0.99718 -0.00185218 0)
(0.996878 -0.00155099 0)
(0.996664 -0.00135587 0)
(0.999791 1.36572e-05 0)
(0.999921 -0.00102722 0)
(0.999677 -8.70615e-05 0)
(0.999029 8.44747e-05 0)
(1 3.36909e-05 0)
(0.998772 0.000788104 0)
(0.999525 0.00157709 0)
(0.99954 0.00150246 0)
(1.0012 0.000955587 0)
(1.00069 0.000347718 0)
(1.00088 -0.000128739 0)
(0.999684 -0.000616007 0)
(0.999604 -0.000963457 0)
(0.999066 -0.00142292 0)
(0.999168 -0.00168719 0)
(0.998632 -0.00184061 0)
(0.998326 -0.00180062 0)
(0.997693 -0.00163682 0)
(0.997388 -0.00137718 0)
(0.997171 -0.00119742 0)
(0.999773 5.42748e-05 0)
(0.999979 -0.000941562 0)
(0.99979 -0.000118373 0)
(0.999088 0.000118233 0)
(1.0001 9.84101e-05 0)
(0.999003 0.000699839 0)
(0.999673 0.00148632 0)
(0.999528 0.00150479 0)
(1.00112 0.000961208 0)
(1.00066 0.000365521 0)
(1.0009 -5.30488e-05 0)
(0.999757 -0.000451991 0)
(0.99969 -0.000716764 0)
(0.999186 -0.00111971 0)
(0.999364 -0.00138685 0)
(0.998925 -0.00155283 0)
(0.998709 -0.00154991 0)
(0.998171 -0.00144384 0)
(0.997898 -0.00123807 0)
(0.99765 -0.00103956 0)
(0.999759 8.37021e-05 0)
(1.00002 -0.000857274 0)
(0.999896 -0.000138716 0)
(0.999152 0.000155294 0)
(1.00018 0.000175456 0)
(0.999218 0.00062317 0)
(0.999837 0.0013819 0)
(0.999527 0.00149998 0)
(1.00104 0.000992321 0)
(1.00063 0.000399712 0)
(1.00093 1.6064e-05 0)
(0.999861 -0.000316095 0)
(0.999803 -0.000502929 0)
(0.99931 -0.000839336 0)
(0.999541 -0.00110772 0)
(0.999194 -0.00129849 0)
(0.999066 -0.00132818 0)
(0.998611 -0.00125309 0)
(0.99839 -0.00111939 0)
(0.998101 -0.000920839 0)
(0.999747 0.000104206 0)
(1.00006 -0.00077268 0)
(0.999995 -0.000146561 0)
(0.999222 0.000188693 0)
(1.00024 0.000269548 0)
(0.99941 0.000571406 0)
(1.00001 0.00125877 0)
(0.999547 0.00147733 0)
(1.00096 0.00103738 0)
(1.00059 0.000460501 0)
(1.00097 8.78995e-05 0)
(0.999983 -0.000207261 0)
(0.999942 -0.000340371 0)
(0.999445 -0.000603177 0)
(0.999705 -0.000854157 0)
(0.999441 -0.00105834 0)
(0.999401 -0.00113149 0)
(0.999013 -0.00107673 0)
(0.998851 -0.00100549 0)
(0.99855 -0.000837948 0)
(0.999737 0.00011751 0)
(1.00008 -0.00069076 0)
(1.00009 -0.000141679 0)
(0.999301 0.000213028 0)
(1.00029 0.00036982 0)
(0.999571 0.000552782 0)
(1.0002 0.00112896 0)
(0.999594 0.00142624 0)
(1.00088 0.00108294 0)
(1.00055 0.000534965 0)
(1.00101 0.000166332 0)
(1.00012 -0.000113204 0)
(1.00011 -0.000217861 0)
(0.999602 -0.000409001 0)
(0.999868 -0.000629644 0)
(0.999661 -0.000830163 0)
(0.999709 -0.000950537 0)
(0.999388 -0.000927326 0)
(0.999271 -0.000888672 0)
(0.998984 -0.000773968 0)
(0.99973 0.000124255 0)
(1.00009 -0.000611726 0)