/*--------------------------------*- C++ -*----------------------------------*\
| =========                 |                                                 |
| \\      /  F ield         | OpenFOAM: The Open Source CFD Toolbox           |
|  \\    /   O peration     | Version:  v1912                                 |
|   \\  /    A nd           | Website:  www.openfoam.com                      |
|    \\/     M anipulation  |                                                 |
\*---------------------------------------------------------------------------*/
FoamFile
{
    version     2.0;
    format      ascii;
    class       volScalarField;
    location    "5.8";
    object      p;
}
// * * * * * * * * * * * * * * * * * * * * * * * * * * * * * * * * * * * * * //

dimensions      [0 2 -2 0 0 0 0];


internalField   nonuniform List<scalar> 
9600
(
-1.33799e-10
7.88395e-05
0.00326099
0.00205445
0.0024245
0.00750736
0.00677565
0.00913398
0.0108594
0.0134718
0.0148277
0.0149737
0.0146251
0.0160995
0.0159248
0.0170824
0.0178289
0.0207762
0.0180602
0.0239384
4.1139e-07
0.000255084
0.00324572
0.00203664
0.00243411
0.00751491
0.00677445
0.00913412
0.0108629
0.0134705
0.0148204
0.0149497
0.0146676
0.0160958
0.0159348
0.0170745
0.0178323
0.020558
0.0184795
0.0235715
3.92261e-06
0.000319016
0.00321255
0.00204404
0.00245588
0.00751228
0.00678354
0.009134
0.0108651
0.0134692
0.0148122
0.0149281
0.0147012
0.0160891
0.0159565
0.0170606
0.0178396
0.0204248
0.0186659
0.0231814
1.13819e-05
0.000374066
0.00318113
0.00208659
0.00249247
0.00750407
0.0068108
0.00912984
0.010865
0.0134697
0.0148017
0.0149072
0.0147311
0.0160831
0.0159862
0.0170418
0.0178477
0.0202795
0.0188166
0.0228173
2.42796e-05
0.000420982
0.00315836
0.00216051
0.00254477
0.00749059
0.00685569
0.00912165
0.0108635
0.0134702
0.0147889
0.014886
0.0147606
0.0160763
0.016022
0.0170189
0.0178524
0.0201347
0.0189387
0.0224708
4.29095e-05
0.000461764
0.00314649
0.0022597
0.00261092
0.00747513
0.00691478
0.00911145
0.0108614
0.0134698
0.014775
0.0148639
0.0147901
0.0160682
0.0160626
0.0169939
0.0178551
0.0199952
0.0190321
0.0221426
6.65198e-05
0.000500534
0.00314714
0.00237735
0.00268659
0.0074587
0.00698259
0.00910082
0.0108592
0.0134684
0.0147605
0.0148396
0.0148197
0.016059
0.016107
0.0169691
0.0178551
0.0198621
0.0190994
0.0218349
9.3933e-05
0.000542567
0.00316065
0.00250658
0.00276746
0.00744199
0.00705498
0.00909078
0.0108571
0.0134661
0.0147452
0.0148121
0.0148496
0.0160482
0.0161543
0.0169463
0.01785
0.019738
0.0191429
0.0215449
0.000124141
0.000592119
0.00318555
0.00264193
0.00284946
0.00742517
0.00713028
0.00908216
0.0108556
0.013463
0.0147288
0.0147807
0.0148794
0.016036
0.016203
0.0169259
0.0178386
0.0196245
0.0191624
0.0212675
0.000156526
0.00065114
0.00321932
0.00277971
0.00292989
0.00740845
0.00720884
0.00907588
0.0108552
0.0134597
0.0147109
0.0147448
0.014909
0.0160224
0.0162514
0.0169089
0.0178199
0.019521
0.0191585
0.0210005
0.000190875
0.000719503
0.00325939
0.00291773
0.00300762
0.00739189
0.00729154
0.00907295
0.0108569
0.0134565
0.0146913
0.014704
0.0149379
0.0160081
0.0162976
0.0168962
0.0177931
0.0194257
0.0191346
0.0207429
0.000227189
0.000795756
0.00330367
0.00305489
0.00308286
0.00737554
0.00737887
0.00907394
0.0108613
0.0134536
0.0146704
0.0146583
0.0149659
0.0159937
0.0163403
0.0168883
0.0177573
0.0193366
0.0190946
0.0204922
0.000265526
0.000878119
0.00335088
0.00319059
0.00315659
0.00735949
0.00747065
0.00907957
0.0108688
0.0134512
0.0146483
0.0146084
0.0149925
0.0159801
0.0163782
0.0168856
0.0177124
0.0192515
0.0190429
0.020245
0.000306014
0.000965154
0.00340036
0.00332453
0.00323
0.00734394
0.00756622
0.00908926
0.0108793
0.0134489
0.0146256
0.014555
0.0150171
0.0159686
0.0164104
0.0168881
0.0176589
0.0191675
0.0189843
0.0199992
0.000348821
0.00105596
0.00345195
0.00345662
0.00330427
0.00732914
0.00766477
0.00910253
0.0108923
0.0134463
0.0146028
0.0144997
0.0150392
0.0159602
0.0164363
0.0168957
0.0175979
0.0190813
0.0189235
0.019754
0.000394127
0.00115008
0.00350569
0.00358694
0.00338058
0.0073153
0.00776551
0.00911895
0.0109075
0.0134431
0.0145803
0.0144438
0.015058
0.0159558
0.0164554
0.0169075
0.0175313
0.0189898
0.0188637
0.0195102
0.000442132
0.00124725
0.00356177
0.00371575
0.00346004
0.00730266
0.00786771
0.00913824
0.0109245
0.0134393
0.0145582
0.0143886
0.0150731
0.0159561
0.0164678
0.0169221
0.0174619
0.0188901
0.0188064
0.0192701
0.000493052
0.00134731
0.00362049
0.00384333
0.00354356
0.00729148
0.00797074
0.00916023
0.010943
0.0134349
0.0145366
0.0143353
0.015084
0.0159612
0.016474
0.0169377
0.017392
0.0187805
0.0187519
0.0190367
0.000547111
0.00145014
0.0036822
0.00396985
0.0036319
0.00728193
0.00807404
0.00918479
0.0109627
0.0134299
0.0145154
0.0142847
0.0150904
0.0159709
0.0164747
0.016952
0.0173236
0.0186606
0.0187
0.0188138
0.000604556
0.00155563
0.00374719
0.00409536
0.0037256
0.00727421
0.00817703
0.0092119
0.0109832
0.0134247
0.0144943
0.0142374
0.015092
0.0159844
0.0164707
0.016963
0.0172582
0.0185311
0.0186486
0.0186056
0.000665642
0.00166371
0.00381573
0.00421976
0.00382495
0.00726857
0.00827917
0.00924161
0.0110042
0.0134195
0.0144729
0.0141937
0.015089
0.0160005
0.0164628
0.0169688
0.0171973
0.0183931
0.0185945
0.0184156
0.000730636
0.00177427
0.00388804
0.00434282
0.00392996
0.00726527
0.00837996
0.00927413
0.0110253
0.0134148
0.0144511
0.0141534
0.0150816
0.0160182
0.0164517
0.0169679
0.0171415
0.0182482
0.0185353
0.0182472
0.000799816
0.00188727
0.0039643
0.00446426
0.00404047
0.00726462
0.00847894
0.00930972
0.0110463
0.0134107
0.0144287
0.0141163
0.01507
0.0160366
0.016438
0.0169592
0.0170908
0.0180983
0.0184686
0.0181026
0.000873477
0.00200263
0.00404462
0.00458385
0.00415625
0.007267
0.00857573
0.00934862
0.0110669
0.0134074
0.0144058
0.0140818
0.0150548
0.0160551
0.0164223
0.0169417
0.0170454
0.0179453
0.0183922
0.0179831
0.000951932
0.00212025
0.00412912
0.00470143
0.00427698
0.00727279
0.00866995
0.00939106
0.0110871
0.0134047
0.0143826
0.0140498
0.0150359
0.0160733
0.0164049
0.0169146
0.017005
0.0177917
0.0183041
0.0178892
0.00103552
0.00224
0.0042179
0.00481698
0.00440228
0.00728243
0.00876125
0.00943716
0.0111067
0.0134026
0.0143595
0.0140194
0.0150136
0.0160909
0.0163865
0.0168772
0.0169687
0.0176409
0.0182025
0.017819
0.00112459
0.00236178
0.00431104
0.00493061
0.00453179
0.00729627
0.00884938
0.00948701
0.0111257
0.0134009
0.0143373
0.0139904
0.0149877
0.0161075
0.0163679
0.0168292
0.016935
0.0174967
0.0180855
0.017768
0.00121948
0.00248549
0.00440856
0.00504254
0.00466505
0.00731474
0.00893412
0.00954055
0.0111442
0.0133992
0.0143162
0.0139626
0.014958
0.0161228
0.0163504
0.0167707
0.016902
0.0173224
0.0179517
0.0177282
0.00132056
0.00261104
0.00451043
0.00515315
0.00480157
0.00733825
0.00901539
0.00959766
0.0111624
0.0133972
0.0142969
0.013936
0.014924
0.0161362
0.0163355
0.0167024
0.0168681
0.0171975
0.0178046
0.0176887
0.00142819
0.00273841
0.00461656
0.00526287
0.00494084
0.00736713
0.00909322
0.00965822
0.0111806
0.0133942
0.0142797
0.0139105
0.0148855
0.016147
0.0163247
0.0166256
0.01683
0.017093
0.0176509
0.0176384
0.00154274
0.00286756
0.00472678
0.00537219
0.00508243
0.00740168
0.00916781
0.00972198
0.0111987
0.0133902
0.014265
0.0138866
0.0148417
0.0161542
0.0163199
0.0165427
0.0167841
0.0170063
0.0174985
0.0175708
0.00166456
0.00299849
0.0048408
0.00548181
0.00522594
0.00744208
0.00923953
0.00978888
0.011217
0.0133848
0.0142527
0.0138645
0.0147922
0.0161566
0.0163218
0.0164567
0.0167284
0.0169342
0.0173542
0.0174869
0.001794
0.00313124
0.00495826
0.00559249
0.00537116
0.0074883
0.00930884
0.00985894
0.0112357
0.0133775
0.0142437
0.0138449
0.0147369
0.0161529
0.016331
0.0163705
0.0166617
0.016873
0.0172224
0.0173924
0.00193136
0.00326587
0.00507872
0.0057049
0.00551814
0.00754022
0.00937622
0.00993226
0.0112549
0.0133679
0.0142378
0.0138283
0.0146755
0.0161416
0.0163482
0.0162878
0.0165835
0.0168197
0.0171061
0.0172928
0.0020769
0.00340247
0.00520175
0.00581971
0.00566696
0.00759756
0.00944213
0.0100093
0.0112748
0.0133549
0.0142352
0.0138161
0.0146079
0.0161206
0.0163733
0.0162121
0.0164931
0.0167719
0.0170097
0.0171938
0.0022309
0.00354119
0.00532704
0.00593745
0.00581785
0.00765993
0.00950666
0.0100904
0.0112959
0.0133375
0.0142353
0.0138096
0.0145345
0.0160879
0.0164058
0.0161479
0.0163899
0.0167241
0.0169376
0.0171037
0.0023936
0.00368223
0.00545417
0.00605837
0.00597127
0.00772741
0.00956956
0.0101758
0.0113195
0.0133152
0.0142369
0.01381
0.0144562
0.0160409
0.0164439
0.0161004
0.0162752
0.0166704
0.0168908
0.0170311
0.00256515
0.00382586
0.00558293
0.00618259
0.00612747
0.0078002
0.00963061
0.0102651
0.0113466
0.0132877
0.014239
0.0138188
0.014375
0.0159773
0.0164839
0.0160731
0.0161535
0.0166053
0.0168669
0.0169835
0.00274571
0.00397214
0.00571324
0.0063104
0.00628664
0.00787865
0.00968944
0.010358
0.0113787
0.0132552
0.0142396
0.0138363
0.0142928
0.0158956
0.0165222
0.0160695
0.0160289
0.0165234
0.016861
0.0169672
0.00293543
0.00412127
0.00584505
0.00644176
0.00644852
0.00796399
0.00974603
0.0104531
0.0114175
0.0132186
0.0142365
0.0138635
0.0142129
0.0157932
0.0165536
0.0160922
0.015909
0.0164216
0.0168665
0.0169855
0.00313439
0.0042734
0.00597838
0.00657705
0.00661245
0.00805659
0.00980154
0.0105484
0.0114638
0.0131802
0.0142262
0.0138986
0.0141407
0.015671
0.0165686
0.0161391
0.0158029
0.0163029
0.0168787
0.0170415
0.00334267
0.0044287
0.00611291
0.00671631
0.00677798
0.00815652
0.00985713
0.0106427
0.0115171
0.0131427
0.0142098
0.0139381
0.0140787
0.0155336
0.0165617
0.0161979
0.0157391
0.0161768
0.0169019
0.0171535
0.00356021
0.00458766
0.0062485
0.00685894
0.00694403
0.0082637
0.00991499
0.0107348
0.0115772
0.013107
0.0141866
0.0139821
0.0140301
0.0153831
0.0165287
0.0162634
0.0155764
0.0160041
0.0168895
0.0173323
0.00378685
0.00475074
0.0063846
0.00700953
0.00711023
0.00837554
0.0099789
0.0108245
0.0116422
0.0130764
0.0141559
0.0140278
0.0139995
0.0152271
0.0164629
0.0163537
0.0157966
0.0159054
0.01683
0.0174286
0.00402227
0.00491897
0.00651986
0.0071688
0.00727739
0.00848963
0.0100499
0.0109143
0.0117097
0.0130504
0.0141221
0.014072
0.0139868
0.015091
0.0163927
0.0164314
0.0156972
0.0157456
0.0166496
0.0174037
0.00426595
0.00509328
0.00665326
0.00733623
0.00744742
0.00860241
0.0101282
0.0110077
0.0117791
0.0130288
0.014085
0.0141162
0.0139963
0.014972
0.016315
0.0165599
0.0159021
0.0156754
0.0164395
0.0172519
0.00451743
0.00527459
0.00678409
0.00751167
0.00762321
0.00871137
0.0102125
0.0111075
0.0118512
0.0130121
0.0140442
0.0141613
0.0140291
0.0148523
0.0161663
0.0164548
0.015873
0.0155516
0.0162363
0.0171955
0.00477589
0.00546403
0.0069127
0.00769249
0.00780909
0.00881708
0.010296
0.0112176
0.0119308
0.0129967
0.0140005
0.0142046
0.0140789
0.0147701
0.0160504
0.0166312
0.0160452
0.0155707
0.016017
0.0169194
0.00504053
0.00566236
0.00703997
0.00787565
0.00800783
0.00892025
0.0103729
0.0113377
0.0120223
0.0129862
0.0139522
0.0142411
0.014146
0.0147044
0.0158891
0.0165175
0.0161263
0.0155697
0.0158067
0.0166783
0.00531063
0.00587047
0.00716707
0.00805703
0.00822035
0.00902566
0.0104383
0.0114631
0.0121325
0.0129845
0.0138955
0.0142676
0.0142249
0.0146513
0.015711
0.0164397
0.0162081
0.0156527
0.0157213
0.0164761
0.00558514
0.00608877
0.00729574
0.00823431
0.00844604
0.00913871
0.0104898
0.011586
0.0122617
0.0129969
0.0138343
0.0142771
0.0143051
0.0146285
0.0155466
0.0163201
0.0162556
0.0157614
0.0157103
0.0163147
0.00586319
0.00631753
0.00742829
0.00840525
0.00868144
0.00926603
0.0105297
0.0116942
0.0124067
0.0130327
0.0137725
0.0142656
0.0143834
0.01464
0.0154062
0.0161694
0.0162725
0.0158706
0.0157438
0.0162143
0.0061439
0.0065568
0.00756704
0.00856819
0.0089227
0.00941301
0.0105615
0.0117798
0.0125616
0.0130969
0.0137193
0.0142371
0.0144502
0.0146781
0.0153014
0.0160209
0.0162521
0.0159698
0.0158034
0.016162
0.0064262
0.00680619
0.00771499
0.00872274
0.00916439
0.0095814
0.0105936
0.0118391
0.0127126
0.0131905
0.0136867
0.0141947
0.0144976
0.0147344
0.0152395
0.0158852
0.0161949
0.0160457
0.0158858
0.0161453
0.00670921
0.00706499
0.00787504
0.00886935
0.00940016
0.00977145
0.0106361
0.0118718
0.0128457
0.0133109
0.013684
0.014148
0.0145246
0.0147973
0.015215
0.0157747
0.0161148
0.0160857
0.0159857
0.0161657
0.00699231
0.00733188
0.00804916
0.00900946
0.00962515
0.00998029
0.0106979
0.0118822
0.012949
0.0134484
0.013719
0.0141096
0.0145312
0.0148563
0.0152206
0.0156975
0.0160357
0.0160849
0.0160715
0.0162279
0.00727516
0.00760506
0.0082387
0.00914611
0.00983449
0.0102032
0.0107873
0.0118792
0.0130132
0.0135871
0.0137936
0.0140936
0.0145221
0.0149037
0.0152486
0.0156507
0.0159772
0.0160646
0.0161166
0.0163162
0.00755767
0.00788211
0.00844355
0.0092844
0.0100259
0.0104325
0.0109093
0.0118771
0.0130361
0.0137082
0.0139045
0.0141132
0.0145089
0.0149332
0.0152891
0.0156305
0.0159398
0.0160558
0.0161289
0.0163873
0.0078397
0.00816086
0.00866279
0.00942857
0.0102001
0.0106572
0.0110619
0.0118938
0.0130242
0.0137962
0.0140362
0.0141713
0.0145067
0.0149455
0.0153312
0.0156375
0.0159143
0.0160688
0.0161358
0.0164101
0.00812121
0.00843929
0.00889469
0.00958108
0.0103589
0.0108698
0.0112382
0.0119405
0.0130021
0.0138485
0.0141674
0.0142638
0.0145265
0.0149479
0.0153629
0.0156669
0.0158974
0.01609
0.0161717
0.0164129
0.00840212
0.00871572
0.00913595
0.00974445
0.0105062
0.0110673
0.0114274
0.0120194
0.0129881
0.0138699
0.0142812
0.014379
0.0145731
0.0149539
0.0153817
0.0157101
0.0159247
0.0161142
0.0162351
0.0164315
0.00868224
0.00898879
0.00938286
0.00992048
0.0106476
0.0112486
0.0116211
0.0121274
0.0129927
0.013872
0.0143694
0.0145035
0.0146473
0.0149743
0.0153916
0.0157497
0.0159724
0.0161392
0.0162993
0.0164879
0.00896128
0.00925769
0.00963194
0.0101093
0.0107885
0.0114143
0.0118121
0.0122582
0.0130212
0.0138695
0.0144329
0.0146236
0.0147441
0.015016
0.0154027
0.015777
0.0160299
0.0161799
0.016353
0.0165661
0.00923864
0.00952206
0.00988017
0.0103092
0.0109333
0.0115663
0.0119954
0.0124045
0.0130744
0.0138729
0.0144764
0.0147302
0.0148525
0.0150803
0.0154268
0.0157953
0.0160982
0.0162443
0.0164053
0.016643
0.00951359
0.00978166
0.0101252
0.0105177
0.0110846
0.0117079
0.0121676
0.0125595
0.0131505
0.013889
0.0145083
0.0148217
0.0149632
0.0151614
0.0154696
0.0158076
0.0161181
0.0163125
0.0164672
0.0167105
0.00978521
0.0100365
0.0103652
0.0107314
0.0112434
0.0118431
0.012328
0.012717
0.013246
0.0139218
0.0145358
0.0148987
0.0150724
0.0152508
0.0155291
0.0158341
0.0161354
0.0163731
0.0165414
0.0167782
0.0100524
0.0102862
0.0105993
0.010947
0.0114097
0.0119755
0.0124767
0.0128722
0.0133562
0.0139729
0.0145652
0.0149622
0.0151777
0.0153471
0.0155978
0.0158796
0.0161592
0.0164189
0.0166175
0.0168525
0.0103139
0.0105305
0.0108266
0.0111609
0.0115823
0.0121078
0.0126144
0.0130213
0.0134759
0.0140412
0.014603
0.0150163
0.015274
0.0154504
0.0156734
0.0159384
0.016198
0.0164589
0.016687
0.0169292
0.0105685
0.0107688
0.0110466
0.0113702
0.0117584
0.0122424
0.0127435
0.0131617
0.0135999
0.0141227
0.014652
0.0150688
0.0153596
0.015557
0.0157604
0.0160057
0.0162519
0.0165021
0.0167493
0.0170048
0.0108147
0.0109998
0.0112589
0.0115727
0.0119351
0.012379
0.0128656
0.0132928
0.0137247
0.014214
0.0147113
0.0151253
0.0154366
0.0156574
0.0158572
0.0160836
0.0163198
0.0165568
0.0168106
0.0170797
0.011051
0.0112228
0.0114625
0.0117665
0.0121095
0.0125171
0.012982
0.0134131
0.0138463
0.0143119
0.0147802
0.0151908
0.0155152
0.015752
0.0159568
0.0161699
0.0163949
0.01662
0.0168672
0.0171478
0.0112758
0.0114361
0.011657
0.01195
0.0122778
0.0126548
0.0130944
0.0135232
0.0139608
0.0144103
0.0148516
0.015259
0.0156013
0.015855
0.0160685
0.016279
0.0164935
0.0167033
0.0169315
0.0172132
0.0114872
0.0116385
0.011841
0.0121218
0.0124371
0.0127881
0.0132022
0.013625
0.0140678
0.014512
0.0149299
0.0153189
0.0156698
0.0159399
0.0161635
0.0163849
0.0166109
0.0168319
0.0170723
0.0173533
0.0116836
0.0118283
0.012014
0.0122802
0.0125841
0.0129132
0.0133016
0.0137142
0.0141578
0.0146066
0.0150377
0.0154299
0.0157882
0.0160769
0.016298
0.0164958
0.0166961
0.0168857
0.0170919
0.0173397
0.0118623
0.0120021
0.0121747
0.0124263
0.0127188
0.0130292
0.0133925
0.0137906
0.0142208
0.0146402
0.0150544
0.0154568
0.0158391
0.0161846
0.0164758
0.0167292
0.0169711
0.0171904
0.0174073
0.0176668
0.0120233
0.0121576
0.0123183
0.0125556
0.0128386
0.0131339
0.013479
0.0138713
0.014329
0.0147877
0.0152229
0.0156276
0.0159819
0.0162912
0.0165569
0.0167606
0.0169548
0.0171287
0.0172967
0.0174947
0.0121653
0.0122893
0.0124352
0.0126561
0.0129304
0.0132109
0.0135185
0.0138485
0.0142122
0.0146004
0.0150374
0.0155534
0.0160984
0.0165867
0.0170231
0.0173954
0.0177456
0.0181025
0.0184545
0.0187773
0.0122867
0.0124224
0.0125688
0.012777
0.0130352
0.013301
0.0136073
0.0139804
0.0144345
0.0149184
0.0153925
0.0158188
0.0162015
0.0164999
0.0167476
0.0169549
0.0171306
0.0172863
0.017423
0.0175753
0.0123348
0.0124361
0.0126063
0.0128382
0.0130967
0.013351
0.0136432
0.0139943
0.014397
0.0148476
0.0153364
0.0157888
0.0162367
0.0166663
0.0170845
0.0175026
0.0179018
0.0182872
0.0186379
0.018914
0.0125024
0.0126308
0.0127395
0.0128965
0.013111
0.0133292
0.0135752
0.013933
0.0144314
0.0149998
0.0155747
0.0160348
0.016405
0.0167251
0.0170165
0.0173031
0.0176018
0.0179139
0.018217
0.0184587
0.0276938
0.0228875
0.0157593
0.0101131
0.00894372
0.0105954
0.0125899
0.0142059
0.0154144
0.0162149
0.0166975
0.0171222
0.0176515
0.0182308
0.0187516
0.0192685
0.0198706
0.0204657
0.0209651
0.0214174
0.0218873
0.0224508
0.0231221
0.0237446
0.0242592
0.0248271
0.0254899
0.0261507
0.0268052
0.0275114
0.0282215
0.0288632
0.0295031
0.0302116
0.0309264
0.0315682
0.0321869
0.0328578
0.0335571
0.0342685
0.0349907
0.0357225
0.0364925
0.0372942
0.0380937
0.0388686
0.0396536
0.0405479
0.0414686
0.0422391
0.0429961
0.0438413
0.0445349
0.0451194
0.0460211
0.0472661
0.0483577
0.0492967
0.050378
0.051538
0.0525566
0.0533707
0.0541894
0.0552351
0.0564182
0.0575931
0.0587702
0.0598976
0.0610654
0.0622902
0.0634911
0.0646481
0.0658827
0.0671673
0.0684711
0.0698054
0.0711968
0.072627
0.0740309
0.075449
0.0768967
0.0784091
0.0799532
0.0815699
0.0831471
0.0847449
0.0863772
0.0880438
0.089785
0.0915371
0.0933205
0.0951228
0.0969064
0.0987834
0.100602
0.102461
0.104414
0.106242
0.107947
0.109631
0.0270072
0.0227496
0.015847
0.0102682
0.00903652
0.0106382
0.0126158
0.0142247
0.0154295
0.0162277
0.0167079
0.0171305
0.0176584
0.0182368
0.0187567
0.0192729
0.0198745
0.0204695
0.0209685
0.0214203
0.0218898
0.0224528
0.0231241
0.0237466
0.024261
0.0248286
0.0254913
0.026152
0.0268063
0.0275124
0.0282226
0.0288642
0.029504
0.0302124
0.0309273
0.0315691
0.0321877
0.0328586
0.0335579
0.0342693
0.0349915
0.0357232
0.0364932
0.0372949
0.0380944
0.0388692
0.0396541
0.0405485
0.0414692
0.0422397
0.0429966
0.0438418
0.0445355
0.0451199
0.0460213
0.0472665
0.0483582
0.049297
0.0503783
0.0515383
0.0525571
0.0533711
0.0541897
0.0552353
0.0564184
0.0575934
0.0587704
0.0598978
0.0610656
0.0622904
0.0634913
0.0646483
0.0658829
0.0671675
0.0684713
0.0698056
0.071197
0.0726272
0.074031
0.0754491
0.0768968
0.0784093
0.0799533
0.0815701
0.0831472
0.084745
0.0863773
0.088044
0.0897851
0.0915372
0.0933206
0.0951229
0.0969065
0.0987835
0.100602
0.102461
0.104414
0.106242
0.107948
0.109631
0.0263627
0.0225741
0.0160063
0.0105539
0.0092007
0.0106978
0.0126421
0.0142425
0.0154436
0.0162397
0.0167185
0.0171399
0.0176664
0.0182435
0.0187621
0.0192772
0.0198784
0.020473
0.0209716
0.021423
0.0218921
0.0224548
0.0231259
0.0237484
0.0242625
0.0248299
0.0254926
0.0261531
0.0268073
0.0275134
0.0282236
0.0288651
0.0295047
0.0302131
0.0309281
0.0315698
0.0321883
0.0328592
0.0335585
0.03427
0.0349921
0.0357238
0.0364938
0.0372954
0.0380949
0.0388698
0.0396545
0.0405489
0.0414698
0.0422402
0.0429969
0.0438424
0.0445361
0.04512
0.0460213
0.0472669
0.0483587
0.0492973
0.0503785
0.0515387
0.0525575
0.0533714
0.0541898
0.0552354
0.0564186
0.0575936
0.0587707
0.059898
0.0610658
0.0622906
0.0634915
0.0646485
0.0658831
0.0671676
0.0684714
0.0698057
0.0711971
0.0726273
0.0740312
0.0754493
0.076897
0.0784094
0.0799534
0.0815702
0.0831473
0.0847451
0.0863774
0.088044
0.0897852
0.0915373
0.0933207
0.095123
0.0969066
0.0987836
0.100602
0.102461
0.104415
0.106242
0.107948
0.109632
0.0257405
0.0223891
0.0162142
0.010924
0.009438
0.0107905
0.0126838
0.0142694
0.0154633
0.0162547
0.0167318
0.0171524
0.0176777
0.0182532
0.0187701
0.0192839
0.0198839
0.0204776
0.0209757
0.021427
0.0218958
0.0224578
0.0231284
0.0237506
0.0242643
0.0248316
0.0254942
0.0261546
0.0268086
0.0275147
0.0282249
0.0288662
0.0295056
0.0302139
0.030929
0.0315706
0.0321889
0.0328598
0.0335591
0.0342705
0.0349927
0.0357244
0.0364944
0.0372961
0.0380955
0.0388703
0.039655
0.0405493
0.0414705
0.0422408
0.0429973
0.0438429
0.0445367
0.0451201
0.0460212
0.0472674
0.0483593
0.0492975
0.0503787
0.0515392
0.0525581
0.0533718
0.0541899
0.0552355
0.0564189
0.0575939
0.0587709
0.0598982
0.061066
0.0622908
0.0634917
0.0646486
0.0658832
0.0671678
0.0684716
0.0698058
0.0711972
0.0726275
0.0740313
0.0754494
0.0768971
0.0784095
0.0799535
0.0815703
0.0831475
0.0847452
0.0863775
0.0880441
0.0897853
0.0915374
0.0933207
0.0951231
0.0969067
0.0987837
0.100602
0.102461
0.104415
0.106243
0.107948
0.109632
0.0251298
0.0221974
0.016437
0.01132
0.00970569
0.0109002
0.0127337
0.0143027
0.0154882
0.0162736
0.0167487
0.017169
0.0176929
0.0182663
0.0187815
0.0192936
0.0198917
0.0204837
0.0209811
0.0214329
0.021902
0.0224631
0.0231322
0.0237535
0.0242671
0.0248342
0.0254964
0.0261565
0.0268104
0.0275164
0.0282264
0.0288675
0.0295068
0.030215
0.0309299
0.0315715
0.0321897
0.0328605
0.0335597
0.0342711
0.0349932
0.035725
0.0364951
0.0372967
0.0380961
0.038871
0.0396555
0.0405499
0.0414713
0.0422414
0.0429977
0.0438436
0.0445374
0.04512
0.0460211
0.0472681
0.04836
0.0492976
0.0503789
0.0515398
0.0525587
0.0533722
0.05419
0.0552356
0.0564192
0.0575942
0.0587712
0.0598985
0.0610661
0.062291
0.063492
0.0646488
0.0658833
0.0671679
0.0684717
0.069806
0.0711974
0.0726276
0.0740315
0.0754495
0.0768972
0.0784096
0.0799536
0.0815705
0.0831476
0.0847453
0.0863776
0.0880442
0.0897854
0.0915375
0.0933209
0.0951232
0.0969067
0.0987838
0.100602
0.102461
0.104415
0.106243
0.107948
0.109632
0.0245381
0.0219915
0.0166497
0.0117199
0.00998971
0.0110192
0.012786
0.0143383
0.0155163
0.0162957
0.0167689
0.0171889
0.0177109
0.018282
0.0187957
0.0193064
0.0199019
0.0204913
0.0209879
0.021441
0.0219113
0.0224713
0.0231378
0.0237577
0.0242713
0.0248381
0.0254994
0.026159
0.0268129
0.0275186
0.0282283
0.0288693
0.0295085
0.0302164
0.030931
0.0315725
0.0321906
0.0328614
0.0335604
0.0342715
0.0349936
0.0357256
0.0364958
0.0372973
0.0380966
0.0388717
0.0396562
0.0405506
0.0414722
0.0422422
0.0429983
0.0438444
0.044538
0.0451199
0.046021
0.0472688
0.0483607
0.0492978
0.0503791
0.0515404
0.0525595
0.0533726
0.05419
0.0552357
0.0564195
0.0575945
0.0587716
0.0598988
0.0610664
0.0622913
0.0634923
0.064649
0.0658835
0.0671681
0.0684719
0.0698061
0.0711975
0.0726278
0.0740316
0.0754496
0.0768973
0.0784097
0.0799537
0.0815706
0.0831478
0.0847454
0.0863778
0.0880443
0.0897855
0.0915376
0.093321
0.0951233
0.0969068
0.0987839
0.100602
0.102461
0.104415
0.106243
0.107949
0.109633
0.0239694
0.0217622
0.016842
0.0121213
0.010291
0.0111479
0.0128396
0.0143745
0.0155466
0.0163206
0.0167918
0.0172111
0.0177306
0.0182989
0.0188113
0.019321
0.0199138
0.0205
0.0209956
0.0214507
0.0219231
0.022482
0.0231452
0.0237634
0.0242774
0.0248439
0.0255035
0.0261621
0.0268159
0.0275212
0.0282304
0.0288714
0.0295107
0.0302181
0.0309323
0.0315738
0.032192
0.0328628
0.0335614
0.034272
0.034994
0.0357262
0.0364965
0.0372978
0.0380969
0.0388722
0.0396571
0.0405515
0.0414733
0.0422432
0.0429991
0.0438453
0.0445387
0.0451199
0.0460209
0.0472696
0.0483614
0.0492979
0.0503794
0.0515412
0.0525603
0.0533731
0.0541901
0.0552359
0.0564199
0.057595
0.058772
0.0598991
0.0610667
0.0622917
0.0634926
0.0646492
0.0658837
0.0671684
0.0684721
0.0698063
0.0711977
0.0726281
0.0740318
0.0754498
0.0768974
0.0784099
0.0799538
0.0815708
0.083148
0.0847455
0.0863779
0.0880444
0.0897856
0.0915378
0.0933211
0.0951235
0.0969069
0.0987841
0.100602
0.102461
0.104415
0.106243
0.107949
0.109634
0.0234235
0.0215103
0.0170155
0.012527
0.0106112
0.011287
0.0128939
0.0144102
0.0155783
0.0163476
0.0168167
0.0172347
0.0177513
0.0183166
0.0188278
0.0193365
0.0199268
0.0205096
0.0210041
0.0214614
0.0219366
0.0224947
0.0231539
0.0237703
0.0242853
0.0248516
0.0255089
0.026166
0.0268195
0.0275242
0.0282326
0.0288738
0.0295133
0.0302199
0.0309336
0.0315752
0.0321939
0.0328647
0.0335629
0.0342728
0.0349945
0.035727
0.0364975
0.0372982
0.0380968
0.0388725
0.0396578
0.0405523
0.0414743
0.0422444
0.0430003
0.0438465
0.0445396
0.04512
0.046021
0.0472704
0.0483621
0.0492979
0.0503797
0.051542
0.0525613
0.0533736
0.0541902
0.0552361
0.0564204
0.0575955
0.0587725
0.0598995
0.061067
0.0622921
0.063493
0.0646495
0.065884
0.0671686
0.0684723
0.0698065
0.0711979
0.0726283
0.074032
0.0754499
0.0768976
0.07841
0.0799539
0.081571
0.0831482
0.0847457
0.086378
0.0880445
0.0897857
0.0915379
0.0933213
0.0951236
0.0969071
0.0987842
0.100603
0.102461
0.104415
0.106244
0.10795
0.109635
0.0229047
0.0212463
0.0171725
0.0129332
0.0109466
0.0114352
0.0129482
0.0144447
0.0156108
0.0163764
0.0168429
0.0172593
0.0177728
0.018335
0.0188448
0.0193528
0.0199406
0.02052
0.0210131
0.0214726
0.021951
0.0225083
0.0231635
0.0237779
0.0242944
0.0248609
0.0255158
0.0261709
0.0268238
0.0275274
0.0282349
0.0288764
0.0295161
0.0302218
0.0309346
0.0315766
0.0321961
0.0328673
0.0335649
0.034274
0.0349954
0.0357281
0.0364987
0.0372988
0.0380966
0.0388726
0.0396583
0.0405527
0.0414749
0.0422455
0.0430017
0.043848
0.0445407
0.0451206
0.0460216
0.0472715
0.0483625
0.0492976
0.0503797
0.0515428
0.0525623
0.0533742
0.0541904
0.0552364
0.056421
0.057596
0.058773
0.0599
0.0610675
0.0622926
0.0634935
0.0646499
0.0658843
0.067169
0.0684726
0.0698067
0.0711982
0.0726286
0.0740323
0.0754501
0.0768978
0.0784102
0.0799541
0.0815712
0.0831484
0.0847458
0.0863782
0.0880446
0.0897859
0.0915381
0.0933215
0.0951238
0.0969072
0.0987844
0.100603
0.102461
0.104416
0.106245
0.107951
0.109636
0.0224209
0.020979
0.0173088
0.013331
0.0112926
0.0115929
0.0130034
0.0144776
0.0156437
0.0164067
0.0168704
0.0172847
0.0177949
0.0183539
0.0188624
0.0193697
0.0199552
0.020531
0.0210226
0.0214843
0.0219659
0.0225225
0.0231735
0.023786
0.0243042
0.0248712
0.0255237
0.0261766
0.0268285
0.0275308
0.0282372
0.028879
0.0295192
0.0302237
0.0309353
0.0315777
0.0321984
0.0328702
0.0335675
0.0342757
0.0349967
0.0357297
0.0365004
0.0372996
0.0380966
0.0388727
0.0396586
0.0405525
0.041475
0.0422463
0.043003
0.0438493
0.0445421
0.0451219
0.0460231
0.0472731
0.0483631
0.0492969
0.0503794
0.0515434
0.0525632
0.0533749
0.0541907
0.0552368
0.0564216
0.0575966
0.0587736
0.0599005
0.061068
0.0622932
0.063494
0.0646505
0.0658848
0.0671695
0.068473
0.0698071
0.0711986
0.072629
0.0740325
0.0754503
0.076898
0.0784104
0.0799542
0.0815714
0.0831486
0.084746
0.0863783
0.0880447
0.089786
0.0915383
0.0933217
0.095124
0.0969074
0.0987846
0.100603
0.102462
0.104416
0.106246
0.107953
0.109637
0.0219771
0.0207128
0.0174189
0.0137139
0.011647
0.0117621
0.0130608
0.0145089
0.015676
0.0164382
0.0168994
0.0173113
0.0178178
0.0183736
0.0188806
0.0193872
0.0199704
0.0205428
0.0210327
0.0214964
0.0219812
0.0225372
0.0231839
0.0237944
0.0243144
0.0248822
0.0255324
0.0261831
0.0268338
0.0275345
0.0282395
0.0288817
0.0295225
0.0302257
0.0309357
0.0315784
0.0322005
0.0328734
0.0335705
0.0342779
0.0349985
0.0357318
0.0365024
0.0373007
0.0380968
0.0388731
0.0396587
0.0405516
0.0414741
0.0422465
0.0430038
0.0438501
0.044543
0.0451235
0.0460255
0.0472759
0.0483641
0.0492961
0.0503785
0.0515433
0.0525637
0.0533755
0.0541911
0.0552374
0.0564223
0.0575972
0.0587741
0.059901
0.0610687
0.0622938
0.0634947
0.0646511
0.0658855
0.0671701
0.0684735
0.0698076
0.0711991
0.0726295
0.0740329
0.0754506
0.0768982
0.0784106
0.0799544
0.0815716
0.0831489
0.0847462
0.0863785
0.0880448
0.0897862
0.0915385
0.0933219
0.0951242
0.0969076
0.0987849
0.100603
0.102462
0.104417
0.106247
0.107955
0.109639
0.0215734
0.0204513
0.017501
0.0140789
0.0120088
0.0119444
0.0131214
0.0145381
0.0157071
0.0164709
0.0169303
0.0173393
0.0178418
0.018394
0.0188995
0.0194055
0.0199866
0.0205554
0.0210435
0.0215091
0.0219971
0.0225524
0.0231946
0.023803
0.0243249
0.0248938
0.0255418
0.0261902
0.0268395
0.0275385
0.028242
0.0288845
0.0295258
0.0302278
0.0309359
0.0315789
0.0322024
0.0328766
0.0335737
0.0342803
0.0350006
0.0357343
0.0365047
0.037302
0.0380973
0.0388739
0.039659
0.0405502
0.0414725
0.042246
0.0430041
0.04385
0.044543
0.0451246
0.0460285
0.04728
0.0483662
0.0492952
0.0503769
0.0515424
0.0525635
0.0533757
0.0541914
0.0552381
0.0564231
0.0575979
0.0587746
0.0599015
0.0610693
0.0622944
0.0634953
0.0646519
0.0658863
0.0671708
0.0684742
0.0698082
0.0711998
0.0726301
0.0740335
0.075451
0.0768985
0.0784108
0.0799546
0.0815719
0.0831492
0.0847464
0.0863787
0.0880449
0.0897863
0.0915388
0.0933221
0.0951244
0.0969078
0.0987852
0.100604
0.102462
0.104417
0.106248
0.107957
0.109642
0.0212074
0.0201998
0.0175573
0.014424
0.0123755
0.0121402
0.0131861
0.0145652
0.0157369
0.0165049
0.0169634
0.0173694
0.0178674
0.0184155
0.0189191
0.0194245
0.0200036
0.0205689
0.0210551
0.0215226
0.0220136
0.0225681
0.0232056
0.0238117
0.0243357
0.0249058
0.0255518
0.026198
0.0268459
0.0275428
0.0282447
0.0288875
0.0295293
0.0302299
0.0309361
0.0315791
0.0322042
0.0328799
0.0335772
0.0342829
0.035003
0.0357372
0.0365073
0.0373033
0.0380979
0.038875
0.0396593
0.0405481
0.04147
0.0422448
0.0430037
0.043849
0.0445416
0.0451243
0.0460309
0.0472847
0.0483692
0.0492946
0.0503747
0.0515405
0.0525624
0.0533753
0.0541916
0.0552389
0.0564242
0.0575986
0.058775
0.0599019
0.0610699
0.0622948
0.0634958
0.0646526
0.0658871
0.0671716
0.068475
0.0698091
0.0712007
0.0726309
0.0740342
0.0754517
0.076899
0.0784112
0.0799548
0.0815723
0.0831496
0.0847467
0.0863789
0.088045
0.0897864
0.091539
0.0933224
0.0951246
0.0969081
0.0987855
0.100604
0.102463
0.104418
0.10625
0.10796
0.109644
0.0208753
0.0199633
0.0175904
0.0147461
0.0127441