/*--------------------------------*- C++ -*----------------------------------*\
| =========                 |                                                 |
| \\      /  F ield         | OpenFOAM: The Open Source CFD Toolbox           |
|  \\    /   O peration     | Version:  v1912                                 |
|   \\  /    A nd           | Website:  www.openfoam.com                      |
|    \\/     M anipulation  |                                                 |
\*---------------------------------------------------------------------------*/
FoamFile
{
    version     2.0;
    format      ascii;
    class       volScalarField;
    location    "9";
    object      p;
}
// * * * * * * * * * * * * * * * * * * * * * * * * * * * * * * * * * * * * * //

dimensions      [0 2 -2 0 0 0 0];


internalField   nonuniform List<scalar> 
9600
(
-4.50445e-10
-4.20181e-05
0.00123286
0.00202786
0.00459994
0.0119299
-0.00142933
-0.00537286
-0.0072132
-0.0019828
0.000625583
-0.000779732
-0.000948555
-0.000773678
-0.00184304
-0.00297248
-0.00063369
-0.000305405
0.00347698
0.00757192
8.864e-06
-6.49857e-05
0.00121359
0.00204799
0.00461631
0.0118751
-0.00137608
-0.00538224
-0.00717925
-0.00194699
0.000524785
-0.000740427
-0.000958912
-0.000782656
-0.00184067
-0.00299185
-0.000621787
-0.000390199
0.0035287
0.00685888
1.80892e-05
-8.28788e-05
0.00119368
0.00208244
0.00462436
0.0118083
-0.00129998
-0.0053967
-0.00714114
-0.00189419
0.000442176
-0.00067177
-0.000976542
-0.000796018
-0.00183743
-0.00301907
-0.000617784
-0.000459058
0.00351941
0.00614676
2.4296e-05
-9.99664e-05
0.00117507
0.00210722
0.00461747
0.0117094
-0.00123714
-0.00540253
-0.00708677
-0.00181835
0.000362323
-0.000632106
-0.00100926
-0.000823977
-0.00184052
-0.00305349
-0.00062305
-0.000517847
0.00342952
0.00560142
2.79758e-05
-0.000116191
0.0011567
0.00211917
0.00459324
0.0115723
-0.00118062
-0.00538907
-0.00700356
-0.00173141
0.00026197
-0.000634292
-0.00105862
-0.000864976
-0.00185199
-0.00309483
-0.000631812
-0.000590223
0.00331493
0.00506574
2.98375e-05
-0.000131442
0.00113798
0.00212065
0.00455141
0.0113906
-0.00112194
-0.00535108
-0.00688963
-0.00166321
0.000130974
-0.000669566
-0.00112054
-0.000911872
-0.00187002
-0.00313616
-0.000647
-0.000669441
0.00317474
0.00454265
3.0263e-05
-0.000146001
0.00111835
0.0021134
0.00449312
0.0111655
-0.0010574
-0.00529392
-0.00675486
-0.0016261
-2.6448e-05
-0.00072388
-0.00118889
-0.000960133
-0.00189028
-0.00317707
-0.0006696
-0.000755285
0.00299999
0.00403879
2.95745e-05
-0.000160398
0.00109679
0.00209853
0.00442133
0.0109039
-0.000987127
-0.00522912
-0.00661282
-0.00161339
-0.000200575
-0.000786199
-0.00125907
-0.00101033
-0.00191116
-0.00322067
-0.000700054
-0.000847382
0.00279079
0.00355775
2.80639e-05
-0.000175242
0.00107226
0.00207736
0.00433991
0.0106151
-0.000912165
-0.00516476
-0.00647235
-0.00161463
-0.000383075
-0.000851054
-0.00132934
-0.00106474
-0.00193302
-0.00326926
-0.000738292
-0.000942553
0.00254641
0.0030999
2.59649e-05
-0.000191039
0.00104419
0.00205127
0.00425214
0.0103074
-0.00083355
-0.00510339
-0.00633672
-0.00162228
-0.00056927
-0.000917397
-0.00139971
-0.00112542
-0.00195611
-0.00332311
-0.000784697
-0.00103869
0.00226612
0.00266468
2.34572e-05
-0.000208134
0.00101241
0.00202126
0.00416005
0.00998679
-0.000752611
-0.00504467
-0.00620545
-0.00163231
-0.000756967
-0.000986401
-0.00147068
-0.00119361
-0.00198038
-0.00338156
-0.000840901
-0.00113455
0.00195101
0.00224888
2.06707e-05
-0.000226724
0.000977104
0.00198797
0.0040645
0.00965708
-0.000670702
-0.00498764
-0.00607539
-0.00164307
-0.000945281
-0.00105977
-0.00154245
-0.00127009
-0.00200563
-0.00344398
-0.000909293
-0.00122922
0.00160321
0.00184783
1.76856e-05
-0.000246927
0.000938586
0.00195168
0.00396564
0.00932038
-0.000588884
-0.00493169
-0.0059493
-0.0016542
-0.00113382
-0.00113909
-0.00161483
-0.00135508
-0.00203205
-0.00351028
-0.000992178
-0.00132179
0.00122549
0.00145524
1.45332e-05
-0.000268857
0.000897203
0.00191247
0.0038633
0.00897746
-0.000507943
-0.00487666
-0.00582694
-0.00166568
-0.00132234
-0.00122572
-0.0016871
-0.00144849
-0.0020608
-0.00358015
-0.00109136
-0.00141217
0.000820733
0.00106359
1.12061e-05
-0.000292633
0.000853229
0.00187026
0.00375737
0.00862845
-0.000428553
-0.0048226
-0.00570907
-0.00167747
-0.00151067
-0.00132063
-0.00175834
-0.00155052
-0.00209342
-0.0036525
-0.00120855
-0.00150214
0.000392569
0.00066643
7.66663e-06
-0.000318354
0.000806785
0.00182491
0.00364785
0.00827338
-0.000351418
-0.00476962
-0.00559667
-0.00168944
-0.0016985
-0.00142437
-0.0018281
-0.00166146
-0.00213105
-0.00372663
-0.00134549
-0.00159374
-5.39983e-05
0.000258834
3.84705e-06
-0.000346104
0.000757865
0.00177618
0.00353472
0.00791245
-0.000277293
-0.00471783
-0.00549051
-0.00170134
-0.00188532
-0.00153751
-0.00189664
-0.00178107
-0.00217471
-0.00380296
-0.00150326
-0.00168817
-0.000513477
-0.000163884
-3.50425e-07
-0.000375949
0.000706376
0.00172384
0.00341789
0.007546
-0.000206942
-0.00466732
-0.00539099
-0.00171288
-0.00207067
-0.00166058
-0.00196434
-0.00190908
-0.00222555
-0.00388167
-0.0016825
-0.00178673
-0.000980534
-0.000606365
-5.05122e-06
-0.000407934
0.000652176
0.00166762
0.0032972
0.00717452
-0.000141164
-0.0046181
-0.00529859
-0.00172382
-0.00225401
-0.00179393
-0.00203158
-0.00204545
-0.00228455
-0.00396251
-0.0018841
-0.00189116
-0.00144941
-0.00107239
-1.04132e-05
-0.00044208
0.000595075
0.00160733
0.00317252
0.00679859
-8.08083e-05
-0.0045701
-0.00521378
-0.00173397
-0.00243476
-0.0019379
-0.00209893
-0.00218982
-0.00235252
-0.0040454
-0.00210887
-0.00200351
-0.00191408
-0.00156449
-1.66283e-05
-0.000478378
0.000534806
0.00154279
0.00304382
0.00641903
-2.67626e-05
-0.00452323
-0.00513701
-0.00174332
-0.0026125
-0.00209289
-0.00216673
-0.00234183
-0.00243054
-0.00412975
-0.00235737
-0.00212588
-0.00236831
-0.00208529
-2.39138e-05
-0.000516796
0.000471026
0.0014739
0.00291106
0.00603685
2.00324e-05
-0.00447729
-0.0050689
-0.00175232
-0.00278661
-0.00225933
-0.00223504
-0.00250136
-0.0025205
-0.00421415
-0.00263042
-0.00226182
-0.00280409
-0.00263564
-3.25047e-05
-0.000557278
0.000403325
0.00140056
0.00277416
0.00565314
5.8671e-05
-0.00443206
-0.00501014
-0.00176168
-0.00295634
-0.00243779
-0.00230377
-0.00266807
-0.00262515
-0.00429644
-0.00292804
-0.0024172
-0.00321178
-0.00321292
-4.26657e-05
-0.00059974
0.000331263
0.00132271
0.00263293
0.00526904
8.83244e-05
-0.0043875
-0.00496138
-0.0017722
-0.0031209
-0.00262904
-0.00237299
-0.00284122
-0.00274764
-0.00437414
-0.00324877
-0.00259926
-0.00358224
-0.00381102
-5.46987e-05
-0.000644076
0.000254413
0.00124026
0.00248713
0.00488563
0.000108132
-0.0043436
-0.00492336
-0.00178495
-0.00327921
-0.00283389
-0.00244301
-0.00301944
-0.00289159
-0.00444504
-0.00358906
-0.00281719
-0.00390972
-0.00441787
-6.89328e-05
-0.00069015
0.000172425
0.00115315
0.00233656
0.00450379
0.000117257
-0.00430039
-0.00489662
-0.0018011
-0.00343015
-0.00305326
-0.00251444
-0.00320025
-0.00306134
-0.00450833
-0.00394202
-0.00308107
-0.0041953
-0.00501448
-8.57315e-05
-0.000737803
8.46712e-05
0.00106127
0.00218101
0.00412426
0.00011497
-0.0042581
-0.00488146
-0.00182193
-0.00357255
-0.00328815
-0.0025886
-0.00338033
-0.00326094
-0.00456588
-0.00429784
-0.00339872
-0.00444778
-0.00557658
-0.000105517
-0.000786844
-9.10868e-06
0.000964502
0.00202032
0.00374771
0.000100611
-0.00421702
-0.00487816
-0.00184911
-0.00370504
-0.00353906
-0.00266768
-0.0035558
-0.00349363
-0.00462265
-0.00464366
-0.00377281
-0.00468466
-0.00607981
-0.000128754
-0.000837064
-0.000109315
0.000862729
0.00185437
0.00337464
7.35458e-05
-0.00417741
-0.00488687
-0.00188473
-0.00382628
-0.00380604
-0.00275504
-0.0037222
-0.00376101
-0.00468643
-0.00496595
-0.00419985
-0.00493085
-0.00650741
-0.000155933
-0.000888241
-0.000216305
0.000755787
0.00168317
0.00300531
3.32291e-05
-0.00413968
-0.00490743
-0.00193075
-0.00393516
-0.00408852
-0.00285544
-0.00387433
-0.00406195
-0.00476838
-0.0052535
-0.00467002
-0.00521342
-0.00685772
-0.00018762
-0.000940129
-0.000330469
0.000643454
0.0015069
0.00263981
-2.07902e-05
-0.00410437
-0.00493963
-0.00198928
-0.00403078
-0.00438464
-0.00297457
-0.00400782
-0.00439266
-0.00488301
-0.00549909
-0.00516457
-0.0055547
-0.00714507
-0.000224411
-0.000992455
-0.000452183
0.000525458
0.0013258
0.00227826
-8.87633e-05
-0.00407231
-0.00498324
-0.00206269
-0.0041126
-0.00469139
-0.00311862
-0.00412034
-0.00474585
-0.0050454
-0.00570285
-0.00565746
-0.00596428
-0.00740213
-0.000266905
-0.00104497
-0.000581657
0.00040145
0.00114022
0.00192057
-0.000170819
-0.00404409
-0.00503791
-0.00215345
-0.00418093
-0.00500499
-0.00329405
-0.00421164
-0.00511087
-0.00526745
-0.00587171
-0.00612134
-0.00643665
-0.00767236
-0.000315782
-0.00109749
-0.000719028
0.000270939
0.000950784
0.00156648
-0.000267134
-0.00402026
-0.00510333
-0.00226362
-0.00423652
-0.00532117
-0.00350689
-0.00428463
-0.00547483
-0.00555481
-0.00602175
-0.00653422
-0.00695424
-0.00799416
-0.000371731
-0.0011498
-0.000864474
0.000133363
0.00075836
0.0012156
-0.000377885
-0.00400148
-0.00517906
-0.00239517
-0.00428125
-0.00563493
-0.00376168
-0.00434525
-0.00582325
-0.00590696
-0.00617742
-0.00688261
-0.00748804
-0.00838625
-0.000435461
-0.0012018
-0.00101784
-1.1975e-05
0.0005638
0.00086744
-0.000503605
-0.00398799
-0.00526433
-0.00254995
-0.00431833
-0.00594096
-0.00406055
-0.00440255
-0.00614208
-0.0063185
-0.00636468
-0.00716531
-0.00800373
-0.0088425
-0.000507674
-0.00125359
-0.00117839
-0.00016603
0.000368084
0.000521733
-0.000644948
-0.00397998
-0.00535883
-0.00272962
-0.00435075
-0.00623394
-0.0044041
-0.00446763
-0.0064193
-0.00677913
-0.00660521
-0.00739113
-0.00847225
-0.00934218
-0.000589061
-0.00130533
-0.00134557
-0.000329964
0.000172072
0.000178801
-0.000802684
-0.00397764
-0.00546184
-0.00293617
-0.00438296
-0.0065076
-0.00478999
-0.00455419
-0.00664659
-0.00727374
-0.00691573
-0.00757598
-0.00887433
-0.0098579
-0.000680354
-0.00135743
-0.00151814
-0.000505181
-2.34852e-05
-0.000160816
-0.000978497
-0.00398152
-0.00557157
-0.00317039
-0.00442079
-0.00675665
-0.00521283
-0.0046766
-0.00682248
-0.00778042
-0.00730806
-0.00774606
-0.00919753
-0.0103606
-0.000782056
-0.00141061
-0.00169438
-0.000693511
-0.000218411
-0.000494996
-0.00117424
-0.00399299
-0.00568648
-0.00343218
-0.00446964
-0.00697711
-0.0056651
-0.00484746
-0.0069567
-0.00827373
-0.00777965
-0.00793331
-0.00943777
-0.0108233
-0.000894798
-0.00146582
-0.0018715
-0.000897145
-0.000413376
-0.000820983
-0.00139233
-0.00401352
-0.00580429
-0.00372147
-0.0045355
-0.00716663
-0.00613651
-0.00507565
-0.00706417
-0.00873595
-0.00832072
-0.00816612
-0.0096003
-0.0112127
-0.00101892
-0.00152441
-0.00204663
-0.00111801
-0.000609265
-0.00113576
-0.00163475
-0.00404614
-0.005921
-0.00403595
-0.00462526
-0.00732433
-0.00661667
-0.005367
-0.00716051
-0.00915063
-0.00891907
-0.00847582
-0.00970287
-0.0114947
-0.00115465
-0.00158771
-0.00221783
-0.00135727
-0.000808304
-0.00143604
-0.00190116
-0.00409567
-0.00603296
-0.00437184
-0.00474653
-0.00745309
-0.00709087
-0.00572382
-0.00726665
-0.00949897
-0.0095546
-0.00888455
-0.00980083
-0.0116622
-0.0013023
-0.00165739
-0.00238244
-0.00161506
-0.00101385
-0.00171922
-0.00219002
-0.00416648
-0.00613963
-0.00472368
-0.00490349
-0.00756175
-0.00754709
-0.0061394
-0.00739366
-0.00976936
-0.0101578
-0.00938138
-0.00994845
-0.0118005
-0.00146148
-0.00173532
-0.00253884
-0.00189074
-0.00123074
-0.00198308
-0.00249748
-0.00426498
-0.0062406
-0.00508461
-0.00509983
-0.00765681
-0.00797895
-0.00660671
-0.0075471
-0.00997165
-0.0107061
-0.00994539
-0.0101997
-0.0119473
-0.00163222
-0.00182322
-0.00268552
-0.00218242
-0.00146489
-0.00222742
-0.00281705
-0.00439714
-0.00633662
-0.00544761
-0.00533847
-0.00774727
-0.00837962
-0.00711151
-0.00774033
-0.0101302
-0.0111985
-0.0105675
-0.0105561
-0.0121153
-0.00181372
-0.00192299
-0.0028227
-0.00248656
-0.00172122
-0.00245435
-0.00313913
-0.00456619
-0.00643443
-0.00580234
-0.00561412
-0.00784815
-0.00874971
-0.00763671
-0.00798815
-0.0102723
-0.0116633
-0.0112392
-0.0110151
-0.0122673
-0.00200539
-0.00203626
-0.00295107
-0.00279809
-0.00200462
-0.00266859
-0.00345508
-0.004772
-0.00654044
-0.00614445
-0.00592492
-0.00796757
-0.00908403
-0.00817511
-0.00830245
-0.0103945
-0.0120403
-0.0119026
-0.0115561
-0.0125264
-0.00220629
-0.00216473
-0.00307206
-0.00311224
-0.002318
-0.00287748
-0.00375644
-0.00501042
-0.00666458
-0.00647554
-0.00626216
-0.00810656
-0.00939246
-0.00872042
-0.00868495
-0.0105389
-0.0123515
-0.0125404
-0.0121762
-0.0128499
-0.00241502
-0.00231007
-0.00318831
-0.00342361
-0.00266189
-0.00309122
-0.00403803
-0.00527478
-0.00681496
-0.00679639
-0.00661973
-0.00827156
-0.00967875
-0.0092604
-0.00912989
-0.0107298
-0.012608
-0.0131155
-0.0128383
-0.0132334
-0.00263075
-0.00247365
-0.00330348
-0.0037266
-0.00303441
-0.00332055
-0.00430009
-0.00555444
-0.00699584
-0.00711333
-0.00699173
-0.00846371
-0.00994691
-0.0097911
-0.00962546
-0.010967
-0.0128297
-0.0136116
-0.0134907
-0.0136896
-0.00285187
-0.00265626
-0.00342258
-0.00401677
-0.0034305
-0.0035754
-0.00454668
-0.00583783
-0.00720717
-0.00743314
-0.00737236
-0.00868565
-0.0102064
-0.0102985
-0.0101484
-0.0112579
-0.0130438
-0.0140317
-0.0140961
-0.0142021
-0.00307733
-0.00285851
-0.00355047
-0.00429058
-0.00384328
-0.00386323
-0.00478556
-0.00611673
-0.00744481
-0.00776046
-0.00776337
-0.00893774
-0.0104557
-0.0107775
-0.0106935
-0.0116015
-0.013255
-0.0143858
-0.0146501
-0.0147436
-0.00330633
-0.00308024
-0.00369208
-0.00454603
-0.00426361
-0.00418932
-0.00502833
-0.00638674
-0.00770072
-0.00809769
-0.00816425
-0.00921562
-0.0107028
-0.0112305
-0.0112428
-0.0119844
-0.013481
-0.014701
-0.0151577
-0.0152849
-0.00353852
-0.00332003
-0.00385228
-0.00478323
-0.00468172
-0.00455531
-0.00528756
-0.00664735
-0.00796681
-0.00844407
-0.00857196
-0.00951994
-0.0109571
-0.0116517
-0.0117805
-0.0124083
-0.0137427
-0.014985
-0.0156037
-0.0158078
-0.00377377
-0.00357579
-0.00403454
-0.0050045
-0.00508916
-0.00495823
-0.00557382
-0.0069029
-0.00823608
-0.00879543
-0.00898678
-0.00984923
-0.0112197
-0.0120453
-0.0123035
-0.0128625
-0.0140394
-0.0152498
-0.0159925
-0.0163092
-0.00401251
-0.00384484
-0.00424075
-0.00521563
-0.00548039
-0.00539033
-0.00589423
-0.00716029
-0.00850406
-0.00914854
-0.00940828
-0.0101998
-0.0114936
-0.0124191
-0.0128068
-0.0133293
-0.014372
-0.0155247
-0.0163367
-0.0167667
-0.00425533
-0.00412422
-0.00447153
-0.00542583
-0.00585183
-0.00583681
-0.00624968
-0.00742864
-0.00877157
-0.009501
-0.00983178
-0.0105697
-0.011783
-0.0127751
-0.0132883
-0.0138029
-0.0147328
-0.0158183
-0.0166499
-0.0171661
-0.00450286
-0.00441185
-0.00472619
-0.00564414
-0.0062027
-0.00628426
-0.00663807
-0.00771591
-0.00904042
-0.00985022
-0.0102549
-0.010956
-0.0120903
-0.0131169
-0.0137465
-0.0142806
-0.0151112
-0.0161288
-0.0169561
-0.0175185
-0.00475605
-0.00470603
-0.00500273
-0.00587631
-0.00653532
-0.00672514
-0.00705095
-0.00802555
-0.00931352
-0.0101962
-0.0106777
-0.0113542
-0.0124152
-0.0134522
-0.0141772
-0.014755
-0.0155065
-0.0164515
-0.0172702
-0.0178448
-0.00501596
-0.00500545
-0.0052982
-0.00612499
-0.00685434
-0.00715435
-0.00747926
-0.0083596
-0.00959559
-0.0105377
-0.0110985
-0.0117628
-0.0127549
-0.0137854
-0.0145803
-0.0152153
-0.0159195
-0.0167846
-0.017592
-0.0181639
-0.00528346
-0.00530922
-0.00560898
-0.00639112
-0.0071652
-0.00756982
-0.00791553
-0.00871721
-0.00989036
-0.0108745
-0.0115133
-0.0121793
-0.0131081
-0.0141191
-0.0149639
-0.0156542
-0.0163421
-0.0171305
-0.0179144
-0.0184887
-0.00555921
-0.00561672
-0.00593122
-0.00667463
-0.00747268
-0.0079712
-0.00835381
-0.0090944
-0.0102
-0.0112094
-0.0119193
-0.0125981
-0.0134749
-0.0144559
-0.0153326
-0.0160695
-0.0167616
-0.017491
-0.0182358
-0.0188173
-0.0058434
-0.00592756
-0.00626161
-0.00697451
-0.00778059
-0.00835851
-0.00878945
-0.00948788
-0.0105252
-0.011543
-0.012316
-0.0130154
-0.0138523
-0.0147977
-0.015688
-0.0164624
-0.0171705
-0.0178633
-0.0185599
-0.0191413
-0.00613592
-0.00624141
-0.0065973
-0.00728871
-0.00809217
-0.00873341
-0.00921814
-0.00989301
-0.0108661
-0.0118757
-0.0127017
-0.0134288
-0.0142357
-0.0151463
-0.0160359
-0.016834
-0.0175631
-0.0182395
-0.0188904
-0.0194585
-0.00643622
-0.00655806
-0.00693589
-0.00761461
-0.00840921
-0.00909821
-0.00963683
-0.0103034
-0.0112218
-0.0122116
-0.0130742
-0.0138334
-0.0146216
-0.0154989
-0.0163818
-0.0171882
-0.017934
-0.018612
-0.0192287
-0.0197709
-0.00674332
-0.00687723
-0.00727537
-0.00794923
-0.00873278
-0.00945506
-0.0100432
-0.0107128
-0.0115881
-0.0125542
-0.013436
-0.0142237
-0.0150072
-0.0158523
-0.016725
-0.017532
-0.0182804
-0.0189694
-0.0195702
-0.0200837
-0.00705602
-0.00719851
-0.00761407
-0.00828924
-0.00906246
-0.00980636
-0.0104371
-0.0111168
-0.011959
-0.0129011
-0.0137909
-0.0145982
-0.0153866
-0.0162058
-0.0170621
-0.0178709
-0.0186105
-0.0193031
-0.0199042
-0.0203961
-0.0073727
-0.00752123
-0.00795083
-0.00863162
-0.00939643
-0.0101529
-0.0108184
-0.011513
-0.0123313
-0.0132482
-0.0141375
-0.0149571
-0.0157528
-0.0165564
-0.0173914
-0.0182026
-0.0189364
-0.0196186
-0.0202233
-0.0207046
-0.00769147
-0.00784431
-0.00828417
-0.00897334
-0.00973318
-0.0104953
-0.0111859
-0.0118969
-0.0127021
-0.0135951
-0.0144746
-0.0153
-0.016101
-0.0168961
-0.0177092
-0.0185161
-0.0192557
-0.0199255
-0.0205274
-0.0210071
-0.00801004
-0.0081665
-0.00861353
-0.00931083
-0.0100687
-0.0108346
-0.0115415
-0.0122645
-0.013065
-0.0139408
-0.0148032
-0.0156274
-0.0164287
-0.0172171
-0.0180142
-0.0188064
-0.0195532
-0.0202202
-0.0208144
-0.021296
-0.00832585
-0.00848595
-0.00893783
-0.00964222
-0.0103994
-0.0111671
-0.0118862
-0.0126169
-0.0134139
-0.014279
-0.0151245
-0.0159407
-0.0167378
-0.0175147
-0.0183005
-0.0190751
-0.0198188
-0.0204904
-0.0210791
-0.0215643
-0.00863664
-0.00880003
-0.00925493
-0.0099646
-0.0107234
-0.0114907
-0.0122161
-0.0129544
-0.0137477
-0.0146008
-0.015434
-0.0162396
-0.0170293
-0.0177898
-0.0185608
-0.019323
-0.020053
-0.0207234
-0.0213085
-0.0217964
-0.0089397
-0.00910633
-0.00956368
-0.0102748
-0.011035
-0.0118043
-0.0125313
-0.0132732
-0.0140668
-0.0149047
-0.0157228
-0.0165175
-0.0172972
-0.0180419
-0.018792
-0.0195453
-0.0202604
-0.0209186
-0.0214978
-0.0219809
-0.00923227
-0.00940139
-0.00986116
-0.0105718
-0.0113301
-0.0121014
-0.012833
-0.0135737
-0.0143667
-0.0151916
-0.0159862
-0.0167619
-0.0175292
-0.0182602
-0.0189855
-0.0197304
-0.0204498
-0.0211029
-0.0216782
-0.0221511
-0.00951136
-0.00968187
-0.0101424
-0.0108503
-0.011607
-0.0123773
-0.0131151
-0.0138674
-0.0146556
-0.0154629
-0.0162253
-0.0169483
-0.0176751
-0.018381
-0.0190679
-0.0197828
-0.0205074
-0.021199
-0.0218389
-0.0223958
-0.00977448
-0.00994413
-0.0104034
-0.011103
-0.011855
-0.0126249
-0.0133691
-0.0141591
-0.0149924
-0.0158185
-0.0165711
-0.0172198
-0.0178575
-0.0185232
-0.0191583
-0.0197562
-0.0203014
-0.0207503
-0.0211147
-0.0214496
-0.0100266
-0.0101902
-0.0106332
-0.0113151
-0.0120533
-0.0128174
-0.013551
-0.0143098
-0.0151061
-0.0158888
-0.0166319
-0.0173265
-0.0179855
-0.0186536
-0.0193153
-0.0199837
-0.0206976
-0.0214213
-0.0221096
-0.0227181
-0.0102626
-0.0104377
-0.0108431
-0.0114761
-0.0121834
-0.0129363
-0.0136772
-0.0144525
-0.0152595
-0.0160707
-0.0168423
-0.0175512
-0.0182107
-0.0188256
-0.0193965
-0.0198999
-0.0203582
-0.0207836
-0.0211781
-0.0215761
-0.0104485
-0.010627
-0.0110304
-0.0116486
-0.012341
-0.0130881
-0.0138278
-0.014615
-0.0154283
-0.0162309
-0.0169914
-0.0176772
-0.0183072
-0.0188927
-0.0194435
-0.019968
-0.0204798
-0.0209938
-0.0215051
-0.0220304
0.0126633
0.0038503
-0.00752648
-0.0161466
-0.0199182
-0.0202062
-0.019912
-0.0204426
-0.0218039
-0.0234103
-0.0248167
-0.0257549
-0.0262292
-0.0267054
-0.0274568
-0.0282298
-0.0289531
-0.0297778
-0.0305762
-0.0312904
-0.0320821
-0.0329619
-0.0338431
-0.0346904
-0.0354716
-0.0362514
-0.0371111
-0.0379983
-0.0388671
-0.0398076
-0.0408626
-0.041995
-0.043162
-0.0443422
-0.0454888
-0.0465204
-0.047471
-0.0483982
-0.0493711
-0.0504446
-0.051559
-0.0526482
-0.0537246
-0.0548273
-0.0560496
-0.0574174
-0.0588426
-0.060182
-0.061365
-0.0625031
-0.0637346
-0.0650577
-0.0663978
-0.0677735
-0.0692228
-0.0706935
-0.0721467
-0.0735992
-0.0750774
-0.0765956
-0.0781565
-0.0797297
-0.0813061
-0.0829241
-0.0845766
-0.08623
-0.0879379
-0.0896825
-0.0914571
-0.0932568
-0.0950844
-0.0969252
-0.098821
-0.100749
-0.102686
-0.10467
-0.106718
-0.108819
-0.110931
-0.113085
-0.115235
-0.117473
-0.119737
-0.122056
-0.124391
-0.126808
-0.129256
-0.131721
-0.134258
-0.136804
-0.139459
-0.142073
-0.144743
-0.147496
-0.150268
-0.153085
-0.155916
-0.158615
-0.161105
-0.163758
0.0112366
0.00367359
-0.007448
-0.0160053
-0.0198155
-0.0201511
-0.0198758
-0.0204176
-0.0217871
-0.0233993
-0.0248096
-0.0257503
-0.0262254
-0.0267012
-0.0274528
-0.0282262
-0.0289494
-0.0297746
-0.0305735
-0.0312877
-0.0320795
-0.0329595
-0.033841
-0.0346885
-0.0354697
-0.0362495
-0.0371093
-0.0379967
-0.0388655
-0.039806
-0.040861
-0.0419935
-0.0431606
-0.0443409
-0.0454876
-0.0465193
-0.0474699
-0.0483971
-0.0493701
-0.0504436
-0.0515582
-0.0526475
-0.0537239
-0.0548266
-0.0560488
-0.0574166
-0.058842
-0.0601816
-0.0613645
-0.0625026
-0.0637341
-0.0650573
-0.0663974
-0.0677731
-0.0692224
-0.0706932
-0.0721464
-0.0735989
-0.0750771
-0.0765953
-0.0781562
-0.0797294
-0.0813058
-0.0829238
-0.0845764
-0.0862297
-0.0879376
-0.0896823
-0.0914568
-0.0932566
-0.0950842
-0.096925
-0.0988208
-0.100749
-0.102686
-0.10467
-0.106718
-0.108819
-0.110931
-0.113085
-0.115235
-0.117473
-0.119737
-0.122056
-0.124391
-0.126808
-0.129256
-0.131721
-0.134257
-0.136804
-0.139459
-0.142073
-0.144743
-0.147496
-0.150268
-0.153085
-0.155916
-0.158615
-0.161105
-0.163758
0.0102829
0.00360799
-0.00725609
-0.0157431
-0.019652
-0.0200927
-0.0198521
-0.0203976
-0.0217676
-0.0233814
-0.0247953
-0.0257408
-0.0262197
-0.0266975
-0.0274502
-0.0282234
-0.0289461
-0.0297716
-0.0305711
-0.0312854
-0.0320773
-0.0329575
-0.0338391
-0.0346869
-0.0354682
-0.036248
-0.0371078
-0.0379953
-0.0388641
-0.0398046
-0.0408596
-0.0419923
-0.0431594
-0.04434
-0.0454869
-0.0465186
-0.047469
-0.0483962
-0.0493692
-0.0504428
-0.0515575
-0.0526468
-0.0537232
-0.0548259
-0.0560481
-0.057416
-0.0588416
-0.0601813
-0.0613642
-0.0625021
-0.0637337
-0.0650569
-0.0663971
-0.0677728
-0.0692221
-0.070693
-0.0721461
-0.0735986
-0.0750768
-0.0765951
-0.078156
-0.0797292
-0.0813056
-0.0829236
-0.0845762
-0.0862296
-0.0879375
-0.0896821
-0.0914567
-0.0932565
-0.0950841
-0.0969248
-0.0988206
-0.100749
-0.102686
-0.10467
-0.106718
-0.108818
-0.110931
-0.113085
-0.115235
-0.117473
-0.119737
-0.122056
-0.124391
-0.126808
-0.129256
-0.131721
-0.134257
-0.136803
-0.139459
-0.142073
-0.144743
-0.147496
-0.150268
-0.153085
-0.155916
-0.158615
-0.161105
-0.163758
0.00934008
0.0034742
-0.00706989
-0.0154557
-0.0194497
-0.0200183
-0.0198215
-0.0203714
-0.0217411
-0.0233537
-0.0247672
-0.0257176
-0.0262055
-0.0266912
-0.0274475
-0.0282206
-0.0289421
-0.0297674
-0.0305676
-0.0312827
-0.0320749
-0.0329552
-0.0338369
-0.0346851
-0.0354668
-0.0362464
-0.037106
-0.0379937
-0.0388627
-0.0398033
-0.0408582
-0.0419908
-0.0431582
-0.044339
-0.0454863
-0.0465179
-0.0474681
-0.0483952
-0.0493682
-0.0504419
-0.0515567
-0.0526461
-0.0537225
-0.0548251
-0.0560472
-0.0574152
-0.0588412
-0.0601811
-0.0613638
-0.0625016
-0.0637332
-0.0650565
-0.0663967
-0.0677724
-0.0692218
-0.0706927
-0.0721459
-0.0735984
-0.0750766
-0.0765948
-0.0781558
-0.079729
-0.0813054
-0.0829234
-0.084576
-0.0862294
-0.0879373
-0.0896819
-0.0914565
-0.0932563
-0.0950839
-0.0969247
-0.0988205
-0.100749
-0.102686
-0.10467
-0.106718
-0.108818
-0.110931
-0.113085
-0.115235
-0.117473
-0.119737
-0.122055
-0.124391
-0.126807
-0.129256
-0.131721
-0.134257
-0.136803
-0.139459
-0.142073
-0.144743
-0.147496
-0.150268
-0.153085
-0.155915
-0.158615
-0.161105
-0.163758
0.00837063
0.00327018
-0.00688995
-0.0151598
-0.0192345
-0.0199369
-0.0197895
-0.0203428
-0.0217094
-0.0233167
-0.0247247
-0.0256788
-0.0261803
-0.0266795
-0.0274428
-0.0282171
-0.0289372
-0.0297615
-0.0305625
-0.0312793
-0.0320723
-0.0329521
-0.0338338
-0.0346829
-0.0354656
-0.0362451
-0.0371041
-0.0379917
-0.0388612
-0.0398021
-0.0408568
-0.041989
-0.0431566
-0.0443381
-0.0454858
-0.046517
-0.0474669
-0.0483941
-0.0493671
-0.0504409
-0.0515558
-0.0526452
-0.0537217
-0.0548241
-0.0560461
-0.0574143
-0.0588408
-0.0601809
-0.0613634
-0.0625009
-0.0637325
-0.065056
-0.0663962
-0.0677719
-0.0692214
-0.0706924
-0.0721456
-0.073598
-0.0750762
-0.0765945
-0.0781555
-0.0797288
-0.0813052
-0.0829232
-0.0845759
-0.0862291
-0.0879371
-0.0896817
-0.0914563
-0.0932561
-0.0950837
-0.0969245
-0.0988203
-0.100749
-0.102686
-0.104669
-0.106717
-0.108818
-0.110931
-0.113085
-0.115235
-0.117473
-0.119737
-0.122055
-0.124391
-0.126807
-0.129256
-0.131721
-0.134257
-0.136803
-0.139459
-0.142073
-0.144742
-0.147496
-0.150268
-0.153085
-0.155915
-0.158616
-0.161105
-0.163758
0.00739632
0.00302089
-0.00670898
-0.0148597
-0.0190144
-0.019853
-0.0197594
-0.0203148
-0.0216758
-0.0232755
-0.0246743
-0.0256292
-0.0261458
-0.0266622
-0.0274349
-0.0282118
-0.0289309
-0.0297537
-0.0305557
-0.0312751
-0.0320691
-0.032948
-0.0338293
-0.03468
-0.0354647
-0.0362446
-0.0371024
-0.0379894
-0.0388598
-0.0398014
-0.0408554
-0.0419868
-0.0431544
-0.0443368
-0.0454852
-0.0465159
-0.0474653
-0.0483927
-0.0493661
-0.0504398
-0.0515547
-0.0526442
-0.0537206
-0.0548229
-0.0560447
-0.0574132
-0.0588402
-0.0601807
-0.0613628
-0.0625
-0.0637318
-0.0650555
-0.0663956
-0.0677713
-0.0692209
-0.070692
-0.0721452
-0.0735976
-0.0750759
-0.0765942
-0.0781552
-0.0797285
-0.0813049
-0.0829229
-0.0845756
-0.0862289
-0.0879368
-0.0896815
-0.0914561
-0.093256
-0.0950836
-0.0969243
-0.0988201
-0.100748
-0.102685
-0.104669
-0.106717
-0.108818
-0.11093
-0.113085
-0.115234
-0.117473
-0.119737
-0.122055
-0.124391
-0.126807
-0.129256
-0.131721
-0.134257
-0.136803
-0.139459
-0.142073
-0.144742
-0.147496
-0.150268
-0.153085
-0.155915
-0.158616
-0.161105
-0.163759
0.00642989
0.00272715
-0.00653121
-0.0145604
-0.0187917
-0.0197669
-0.0197311
-0.0202876
-0.0216405
-0.0232322
-0.024621
-0.0255753
-0.0261066
-0.0266409
-0.0274238
-0.0282041
-0.0289228
-0.0297443
-0.0305476
-0.0312704
-0.0320656
-0.0329429
-0.0338233
-0.034676
-0.0354639
-0.0362448
-0.037101
-0.0379871
-0.0388589
-0.0398015
-0.0408545
-0.0419844
-0.0431519
-0.0443354
-0.0454844
-0.0465142
-0.0474629
-0.0483909
-0.0493649
-0.0504388
-0.0515535
-0.052643
-0.0537196
-0.0548215
-0.056043
-0.0574117
-0.0588395
-0.0601802
-0.0613619
-0.062499
-0.063731
-0.0650547
-0.0663948
-0.0677705
-0.0692202
-0.0706915
-0.0721447
-0.0735971
-0.0750754
-0.0765937
-0.0781548
-0.0797282
-0.0813046
-0.0829226
-0.0845754
-0.0862286
-0.0879366
-0.0896813
-0.0914559
-0.0932558
-0.0950834
-0.0969241
-0.0988199
-0.100748
-0.102685
-0.104669
-0.106717
-0.108818
-0.11093
-0.113085
-0.115234
-0.117472
-0.119736
-0.122055
-0.12439
-0.126807
-0.129255
-0.13172
-0.134257
-0.136803
-0.139458
-0.142073
-0.144742
-0.147496
-0.150268
-0.153085
-0.155916
-0.158616
-0.161106
-0.16376
0.00547766
0.00238637
-0.00636395
-0.0142653
-0.0185671
-0.0196766
-0.0197028
-0.0202604
-0.0216034
-0.023187
-0.0245663
-0.0255195
-0.026065
-0.0266172
-0.0274105
-0.0281945
-0.0289131
-0.0297335
-0.0305387
-0.0312655
-0.0320618
-0.032937
-0.0338161
-0.0346708
-0.0354627
-0.0362453
-0.0371
-0.0379852
-0.0388587
-0.0398025
-0.040854
-0.041982
-0.0431494
-0.0443341
-0.0454835
-0.0465118
-0.0474594
-0.0483882
-0.0493634
-0.0504376
-0.0515522
-0.052642
-0.0537187
-0.0548202
-0.056041
-0.0574098
-0.0588384
-0.0601794
-0.0613607
-0.0624977
-0.06373
-0.0650539
-0.0663939
-0.0677695
-0.0692194
-0.0706907
-0.072144
-0.0735964
-0.0750747
-0.0765932
-0.0781543
-0.0797277
-0.0813042
-0.0829222
-0.084575
-0.0862283
-0.0879363
-0.089681
-0.0914557
-0.0932555
-0.0950831
-0.0969238
-0.0988197
-0.100748
-0.102685
-0.104669
-0.106717
-0.108818
-0.11093
-0.113084
-0.115234
-0.117472
-0.119736
-0.122055
-0.12439
-0.126807
-0.129255
-0.13172
-0.134257
-0.136803
-0.139458
-0.142073
-0.144742
-0.147496
-0.150268
-0.153085
-0.155916
-0.158617
-0.161107
-0.163761
0.00454705
0.001997
-0.00621362
-0.0139756
-0.018339
-0.0195793
-0.0196728
-0.0202335
-0.0215649
-0.0231401
-0.0245103
-0.0254619
-0.0260214
-0.0265917
-0.0273955
-0.0281832
-0.0289021
-0.0297218
-0.0305292
-0.0312602
-0.0320578
-0.0329307
-0.033808
-0.0346648
-0.035461
-0.0362459
-0.0370993
-0.0379838
-0.0388592
-0.0398044
-0.040854
-0.0419797
-0.0431471
-0.0443333
-0.0454829
-0.0465089
-0.0474548
-0.0483844
-0.049361
-0.0504357
-0.0515505
-0.052641
-0.0537183
-0.0548195
-0.0560392
-0.0574077
-0.0588369
-0.0601781
-0.061359
-0.0624962
-0.063729
-0.0650529
-0.0663928
-0.0677684
-0.0692183
-0.0706898
-0.072143
-0.0735955
-0.0750739
-0.0765924
-0.0781536
-0.079727
-0.0813036
-0.0829218
-0.0845745
-0.0862278
-0.0879359
-0.0896807
-0.0914554
-0.0932553
-0.0950829
-0.0969236
-0.0988195
-0.100748
-0.102685
-0.104669
-0.106717
-0.108818
-0.11093
-0.113084
-0.115234
-0.117472
-0.119736
-0.122055
-0.12439
-0.126807
-0.129255
-0.13172
-0.134257
-0.136803
-0.139458
-0.142073
-0.144742
-0.147496
-0.150268
-0.153085
-0.155916
-0.158617
-0.161109
-0.163762
0.00364477
0.0015581
-0.00608486
-0.0136896
-0.0181054
-0.0194733
-0.0196405
-0.0202076
-0.0215258
-0.0230918
-0.0244527
-0.0254023
-0.0259754
-0.0265644
-0.0273793
-0.0281707
-0.02889
-0.0297092
-0.0305191
-0.0312547
-0.0320537
-0.0329241
-0.0337995
-0.0346581
-0.0354589
-0.0362464
-0.0370989
-0.0379829
-0.0388605
-0.0398069
-0.0408543
-0.0419776
-0.0431453
-0.0443333
-0.045483
-0.0465061
-0.0474495
-0.0483797
-0.0493577
-0.0504329
-0.051548
-0.0526397
-0.0537184
-0.0548195
-0.056038
-0.0574058
-0.0588354
-0.0601763
-0.0613566
-0.0624941
-0.0637277
-0.0650519
-0.0663918
-0.0677673
-0.0692171
-0.0706885
-0.0721418
-0.0735943
-0.0750728
-0.0765914
-0.0781526
-0.0797262
-0.081303
-0.0829212
-0.0845739
-0.0862273
-0.0879354
-0.0896803
-0.0914551
-0.093255
-0.0950826
-0.0969233
-0.0988192
-0.100748
-0.102684
-0.104668
-0.106716
-0.108817
-0.11093
-0.113084
-0.115234
-0.117472
-0.119736
-0.122055
-0.12439
-0.126807
-0.129255
-0.13172
-0.134257
-0.136803