/*--------------------------------*- C++ -*----------------------------------*\
| =========                 |                                                 |
| \\      /  F ield         | OpenFOAM: The Open Source CFD Toolbox           |
|  \\    /   O peration     | Version:  v1912                                 |
|   \\  /    A nd           | Website:  www.openfoam.com                      |
|    \\/     M anipulation  |                                                 |
\*---------------------------------------------------------------------------*/
FoamFile
{
    version     2.0;
    format      ascii;
    class       surfaceScalarField;
    location    "9";
    object      phi;
}
// * * * * * * * * * * * * * * * * * * * * * * * * * * * * * * * * * * * * * //

dimensions      [0 3 -1 0 0 0 0];
oriented        oriented;


internalField   nonuniform List<scalar> 
19000
(
1.22167e-06
7.65138e-07
1.1679e-06
-6.3412e-08
1.10443e-06
-5.73081e-07
1.20621e-06
1.60195e-06
1.24153e-06
1.45447e-06
1.04187e-06
-2.05159e-06
1.16719e-06
9.87826e-07
1.10772e-06
7.72307e-07
1.15213e-06
-1.11038e-07
1.16658e-06
1.45549e-06
1.09442e-06
1.33355e-07
1.18453e-06
1.22603e-06
1.15541e-06
1.09512e-07
1.16892e-06
6.5618e-07
1.1666e-06
4.50039e-07
1.16458e-06
3.72587e-07
1.18217e-06
5.67477e-07
1.16604e-06
9.30586e-08
1.18554e-06
3.89649e-07
-1.80146e-07
1.11744e-06
1.27662e-06
7.12776e-07
1.22253e-06
-9.32237e-09
1.15962e-06
-5.10165e-07
1.26585e-06
1.49572e-06
1.30288e-06
1.41744e-06
1.09456e-06
-1.84327e-06
1.22594e-06
8.56448e-07
1.15996e-06
8.38282e-07
1.20651e-06
-1.57589e-07
1.24215e-06
1.41985e-06
1.16452e-06
2.10983e-07
1.26e-06
1.13055e-06
1.22964e-06
1.39872e-07
1.24542e-06
6.40397e-07
1.22931e-06
4.66148e-07
1.24051e-06
3.61387e-07
1.23531e-06
5.7268e-07
1.2421e-06
8.62741e-08
1.23292e-06
3.98828e-07
-1.52332e-07
1.2051e-06
1.33199e-06
6.63573e-07
1.28179e-06
4.08756e-08
1.21987e-06
-4.48247e-07
1.32456e-06
1.39103e-06
1.36254e-06
1.37946e-06
1.14959e-06
-1.63032e-06
1.28099e-06
7.25052e-07
1.22687e-06
8.924e-07
1.26574e-06
-1.96462e-07
1.33874e-06
1.34685e-06
1.24571e-06
3.04021e-07
1.33635e-06
1.0399e-06
1.30361e-06
1.7262e-07
1.32294e-06
6.21065e-07
1.29919e-06
4.89893e-07
1.30888e-06
3.51703e-07
1.30844e-06
5.73115e-07
1.3062e-06
8.85181e-08
1.30748e-06
3.97549e-07
-1.15314e-07
1.27046e-06
1.38789e-06
6.1979e-07
1.3466e-06
8.21649e-08
1.28492e-06
-3.86567e-07
1.38164e-06
1.2943e-06
1.42046e-06
1.34064e-06
1.21223e-06
-1.42209e-06
1.33623e-06
6.01054e-07
1.30936e-06
9.19264e-07
1.32898e-06
-2.16077e-07
1.43214e-06
1.24369e-06
1.33356e-06
4.02597e-07
1.39492e-06
9.78541e-07
1.36785e-06
1.99694e-07
1.38456e-06
6.04357e-07
1.36385e-06
5.10596e-07
1.36713e-06
3.48422e-07
1.37136e-06
5.68893e-07
1.36198e-06
9.78954e-08
1.36326e-06
3.96269e-07
-7.54129e-08
1.32336e-06
1.44462e-06
5.8352e-07
1.41629e-06
1.10503e-07
1.35432e-06
-3.24597e-07
1.43736e-06
1.21126e-06
1.47588e-06
1.30212e-06
1.28673e-06
-1.23293e-06
1.39422e-06
4.93562e-07
1.40167e-06
9.11817e-07
1.3942e-06
-2.08607e-07
1.50296e-06
1.13493e-06
1.41856e-06
4.86996e-07
1.44301e-06
9.54084e-07
1.4226e-06
2.20108e-07
1.43617e-06
5.90783e-07
1.42007e-06
5.26701e-07
1.41923e-06
3.49261e-07
1.42495e-06
5.63172e-07
1.41363e-06
1.09218e-07
1.41713e-06
3.9277e-07
-3.82906e-08
1.38001e-06
1.50304e-06
5.56158e-07
1.48914e-06
1.24397e-07
1.428e-06
-2.63454e-07
1.49385e-06
1.1454e-06
1.53039e-06
1.26559e-06
1.37497e-06
-1.07751e-06
1.45846e-06
4.10071e-07
1.49182e-06
8.78456e-07
1.45959e-06
-1.76378e-07
1.55194e-06
1.04259e-06
1.49592e-06
5.43013e-07
1.49414e-06
9.55863e-07
1.47578e-06
2.38466e-07
1.48614e-06
5.80424e-07
1.47456e-06
5.38285e-07
1.47229e-06
3.51528e-07
1.47911e-06
5.56349e-07
1.46919e-06
1.19144e-07
1.47735e-06
3.8461e-07
-5.71031e-09
1.44477e-06
1.56451e-06
5.37862e-07
1.56358e-06
1.25332e-07
1.50621e-06
-2.06087e-07
1.55395e-06
1.09766e-06
1.58702e-06
1.23251e-06
1.47311e-06
-9.63602e-07
1.52935e-06
3.53834e-07
1.57182e-06
8.35993e-07
1.52632e-06
-1.30881e-07
1.59425e-06
9.74654e-07
1.56745e-06
5.69821e-07
1.55554e-06
9.67769e-07
1.53548e-06
2.58521e-07
1.5414e-06
5.74512e-07
1.53382e-06
5.45857e-07
1.53271e-06
3.52646e-07
1.54087e-06
5.48189e-07
1.53293e-06
1.27075e-07
1.54557e-06
3.71978e-07
2.24416e-08
1.51742e-06
1.63056e-06
5.27428e-07
1.63887e-06
1.17029e-07
1.58896e-06
-1.56179e-07
1.62014e-06
1.06648e-06
1.64919e-06
1.20347e-06
1.57408e-06
-8.88495e-07
1.60376e-06
3.24156e-07
1.64221e-06
7.97542e-07
1.59697e-06
-8.56392e-08
1.64367e-06
9.27949e-07
1.6374e-06
5.76088e-07
1.627e-06
9.78176e-07
1.60472e-06
2.808e-07
1.60633e-06
5.72895e-07
1.60135e-06
5.50846e-07
1.6026e-06
3.51394e-07
1.61233e-06
5.38457e-07
1.60559e-06
1.33818e-07
1.62098e-06
3.56582e-07
4.73e-08
1.59613e-06
1.70229e-06
5.22713e-07
1.71526e-06
1.04057e-07
1.67562e-06
-1.1654e-07
1.69384e-06
1.04826e-06
1.71899e-06
1.17832e-06
1.67203e-06
-8.41538e-07
1.67877e-06
3.17416e-07
1.7093e-06
7.67013e-07
1.67281e-06
-4.91468e-08
1.70485e-06
8.95912e-07
1.70885e-06
5.72084e-07
1.70493e-06
9.82099e-07
1.68196e-06
3.03769e-07
1.68172e-06
5.73134e-07
1.67818e-06
5.54389e-07
1.68136e-06
3.48218e-07
1.69248e-06
5.27335e-07
1.68608e-06
1.40215e-07
1.70265e-06
3.40011e-07
7.03673e-08
1.67958e-06
1.78007e-06
5.21367e-07
1.79362e-06
9.05011e-08
1.76518e-06
-8.81003e-08
1.77522e-06
1.03822e-06
1.79658e-06
1.15696e-06
1.76494e-06
-8.09896e-07
1.75472e-06
3.27635e-07
1.78029e-06
7.41447e-07
1.75378e-06
-2.26363e-08
1.77609e-06
8.73599e-07
1.7832e-06
5.64972e-07
1.78636e-06
9.78946e-07
1.76464e-06
3.25481e-07
1.76571e-06
5.72071e-07
1.76352e-06
5.5658e-07
1.76772e-06
3.44015e-07
1.77972e-06
5.15336e-07
1.77303e-06
1.46898e-07
1.78986e-06
3.23187e-07
9.27107e-08
1.76752e-06
1.86368e-06
5.21438e-07
1.875e-06
7.91813e-08
1.85683e-06
-6.99352e-08
1.86352e-06
1.03153e-06
1.88089e-06
1.13959e-06
1.85433e-06
-7.8334e-07
1.83437e-06
3.47602e-07
1.85962e-06
7.16198e-07
1.83963e-06
-2.649e-09
1.85486e-06
8.58367e-07
1.86156e-06
5.58277e-07
1.87049e-06
9.70008e-07
1.85144e-06
3.44535e-07
1.85595e-06
5.67556e-07
1.85551e-06
5.57021e-07
1.86031e-06
3.39221e-07
1.87277e-06
5.02872e-07
1.86529e-06
1.54379e-07
1.88186e-06
3.06614e-07
1.14619e-07
1.85996e-06
1.95266e-06
5.21615e-07
1.96032e-06
7.152e-08
1.95033e-06
-5.99444e-08
1.95755e-06
1.02431e-06
1.9707e-06
1.12644e-06
1.9435e-06
-7.56143e-07
1.92037e-06
3.70733e-07
1.94806e-06
6.88506e-07
1.93047e-06
1.4944e-08
1.94026e-06
8.48578e-07
1.94538e-06
5.53154e-07
1.95835e-06
9.57039e-07
1.94244e-06
3.60447e-07
1.95099e-06
5.59001e-07
1.95241e-06
5.55603e-07
1.95771e-06
3.33924e-07
1.97045e-06
4.90126e-07
1.96177e-06
1.63062e-07
1.97774e-06
2.9064e-07
1.35754e-07
1.95661e-06
2.04665e-06
5.21153e-07
2.05031e-06
6.78571e-08
2.04598e-06
-5.56102e-08
2.05619e-06
1.0141e-06
2.0653e-06
1.11733e-06
2.03566e-06
-7.26503e-07
2.01387e-06
3.92527e-07
2.04414e-06
6.58227e-07
2.02665e-06
3.24344e-08
2.03258e-06
8.42653e-07
2.03607e-06
5.49662e-07
2.05155e-06
9.41564e-07
2.03839e-06
3.73603e-07
2.0504e-06
5.46994e-07
2.05327e-06
5.52729e-07
2.05883e-06
3.28371e-07
2.07167e-06
4.77277e-07
2.06149e-06
1.73249e-07
2.07652e-06
2.75611e-07
1.55495e-07
2.05678e-06
2.14547e-06
5.19684e-07
2.14541e-06
6.79128e-08
2.14437e-06
-5.45675e-08
2.15855e-06
9.99929e-07
2.1645e-06
1.11138e-06
2.13287e-06
-6.94867e-07
2.1145e-06
4.10889e-07
2.14603e-06
6.26696e-07
2.12845e-06
5.00207e-08
2.13207e-06
8.39035e-07
2.13418e-06
5.47553e-07
2.15116e-06
9.24579e-07
2.13993e-06
3.84834e-07
2.1543e-06
5.32618e-07
2.15799e-06
5.49045e-07
2.1632e-06
3.23155e-07
2.17581e-06
4.64667e-07
2.16389e-06
1.85172e-07
2.17759e-06
2.61907e-07
1.73298e-07
2.15979e-06
2.24914e-06
5.17036e-07
2.2459e-06
7.11498e-08
2.24628e-06
-5.49519e-08
2.26421e-06
9.82005e-07
2.2684e-06
1.10718e-06
2.23584e-06
-6.62305e-07
2.22124e-06
4.25489e-07
2.25259e-06
5.95348e-07
2.23569e-06
6.69187e-08
2.23819e-06
8.36538e-07
2.23912e-06
5.4662e-07
2.25711e-06
9.0659e-07
2.24706e-06
3.94881e-07
2.26282e-06
5.16867e-07
2.2668e-06
5.45065e-07
2.27098e-06
3.18976e-07
2.28294e-06
4.52706e-07
2.2692e-06
1.98906e-07
2.28113e-06
2.49982e-07
1.88853e-07
2.26557e-06
2.35775e-06
5.13156e-07
2.35199e-06
7.69106e-08
2.35252e-06
-5.54756e-08
2.37331e-06
9.61211e-07
2.37712e-06
1.10338e-06
2.34446e-06
-6.29649e-07
2.33324e-06
4.36714e-07
2.36344e-06
5.65143e-07
2.3478e-06
8.25626e-08
2.3498e-06
8.34531e-07
2.3497e-06
5.46722e-07
2.36843e-06
8.87864e-07
2.35917e-06
4.04135e-07
2.37569e-06
5.00349e-07
2.37982e-06
5.40938e-07
2.38256e-06
3.16237e-07
2.39369e-06
4.41571e-07
2.37837e-06
2.14228e-07
2.38813e-06
2.40225e-07
2.02101e-07
2.37488e-06
2.47144e-06
5.0811e-07
2.46397e-06
8.4382e-08
2.46373e-06
-5.52356e-08
2.48637e-06
9.38572e-07
2.4907e-06
1.09905e-06
2.45852e-06
-5.97471e-07
2.45037e-06
4.4486e-07
2.47859e-06
5.36927e-07
2.46412e-06
9.70351e-08
2.46593e-06
8.32717e-07
2.46496e-06
5.4769e-07
2.48419e-06
8.68641e-07
2.47551e-06
4.12812e-07
2.49249e-06
4.83367e-07
2.49697e-06
5.36463e-07
2.49833e-06
3.14873e-07
2.50888e-06
4.31026e-07
2.49256e-06
2.30543e-07
2.5e-06
2.32781e-07
2.13116e-07
2.48899e-06
2.59031e-06
5.02095e-07
2.58208e-06
9.26076e-08
2.58035e-06
-5.35036e-08
2.60386e-06
9.15066e-07
2.60926e-06
1.09365e-06
2.57816e-06
-5.66373e-07
2.57303e-06
4.49989e-07
2.59801e-06
5.1195e-07
2.58434e-06
1.10706e-07
2.58636e-06
8.30693e-07
2.58473e-06
5.49317e-07
2.60421e-06
8.49163e-07
2.59581e-06
4.21209e-07
2.61296e-06
4.66222e-07
2.61812e-06
5.31297e-07
2.61853e-06
3.14462e-07
2.62901e-06
4.20552e-07
2.61255e-06
2.46999e-07
2.6178e-06
2.27532e-07
2.21901e-07
2.60901e-06
2.71453e-06
4.95396e-07
2.70645e-06
1.00687e-07
2.7027e-06
-4.97567e-08
2.72609e-06
8.91682e-07
2.73313e-06
1.0866e-06
2.7037e-06
-5.36941e-07
2.70138e-06
4.52314e-07
2.72169e-06
4.91641e-07
2.70861e-06
1.23778e-07
2.71151e-06
8.27799e-07
2.70936e-06
5.51468e-07
2.72889e-06
8.29627e-07
2.72041e-06
4.29694e-07
2.73728e-06
4.49348e-07
2.74337e-06
5.25208e-07
2.74331e-06
3.14525e-07
2.75423e-06
4.09635e-07
2.73848e-06
2.62748e-07
2.74182e-06
2.24186e-07
2.2828e-07
2.73544e-06
2.84438e-06
4.88285e-07
2.837e-06
1.08065e-07
2.83113e-06
-4.3882e-08
2.85339e-06
8.69419e-07
2.86284e-06
1.07715e-06
2.83528e-06
-5.09382e-07
2.83514e-06
4.52451e-07
2.84996e-06
4.76822e-07
2.83752e-06
1.36221e-07
2.84189e-06
8.23428e-07
2.83924e-06
5.54115e-07
2.85874e-06
8.10129e-07
2.84992e-06
4.38515e-07
2.86611e-06
4.33157e-07
2.87313e-06
5.18191e-07
2.87288e-06
3.14774e-07
2.8846e-06
3.97912e-07
2.87014e-06
2.7721e-07
2.87192e-06
2.22407e-07
2.31962e-07
2.86824e-06
2.98026e-06
4.80921e-07
2.97365e-06
1.14674e-07
2.96604e-06
-3.62668e-08
2.98638e-06
8.49079e-07
2.99889e-06
1.06463e-06
2.97281e-06
-4.83299e-07
2.97404e-06
4.51221e-07
2.98361e-06
4.67249e-07
2.97186e-06
1.47972e-07
2.97787e-06
8.17421e-07
2.97472e-06
5.57263e-07
2.99422e-06
7.90633e-07
2.98499e-06
4.47745e-07
3.00032e-06
4.17827e-07
3.00813e-06
5.10378e-07
3.00765e-06
3.15253e-07
3.02039e-06
3.85175e-07
3.00756e-06
2.90035e-07
3.00794e-06
2.22031e-07
2.32644e-07
3.00726e-06
3.12261e-06
4.73312e-07
3.11644e-06
1.20849e-07
3.10781e-06
-2.76394e-08
3.12585e-06
8.31041e-07
3.14167e-06
1.04881e-06
3.11625e-06
-4.57872e-07
3.11824e-06
4.49228e-07
3.12359e-06
4.61894e-07
3.11248e-06
1.59082e-07
3.1198e-06
8.10103e-07
3.11622e-06
5.60847e-07
3.1359e-06
7.70953e-07
3.12626e-06
4.57381e-07
3.14073e-06
4.03359e-07
3.14924e-06
5.01865e-07
3.14823e-06
3.16265e-07
3.16204e-06
3.71368e-07
3.15113e-06
3.00944e-07
3.15004e-06
2.23125e-07
2.30227e-07
3.15245e-06
3.27187e-06
4.65352e-07
3.26562e-06
1.27096e-07
3.25675e-06
-1.87701e-08
3.27256e-06
8.15238e-07
3.29148e-06
1.02989e-06
3.26582e-06
-4.32212e-07
3.26841e-06
4.46638e-07
3.27071e-06
4.5959e-07
3.26007e-06
1.6972e-07
3.26821e-06
8.01963e-07
3.26436e-06
5.64697e-07
3.28454e-06
7.50775e-07
3.27445e-06
4.67472e-07
3.28804e-06
3.89766e-07
3.29723e-06
4.92679e-07
3.2953e-06
3.18196e-07
3.31006e-06
3.56607e-07
3.30137e-06
3.09626e-07
3.29868e-06
2.25824e-07
2.25045e-07
3.30386e-06
3.42841e-06
4.5687e-07
3.42162e-06
1.33892e-07
3.41309e-06
-1.02447e-08
3.42701e-06
8.01325e-07
3.44858e-06
1.00832e-06
3.42198e-06
-4.05618e-07
3.4253e-06
4.43322e-07
3.42544e-06
4.59444e-07
3.41508e-06
1.80081e-07
3.4237e-06
7.93348e-07
3.41984e-06
5.68559e-07
3.44088e-06
7.29731e-07
3.43023e-06
4.78121e-07
3.44277e-06
3.77226e-07
3.45265e-06
4.82798e-07
3.44947e-06
3.21377e-07
3.46482e-06
3.41256e-07
3.45884e-06
3.15609e-07
3.45447e-06
2.30191e-07
2.17944e-07
3.46158e-06
3.59261e-06
4.47673e-07
3.58492e-06
1.41585e-07
3.57706e-06
-2.39262e-09
3.5895e-06
7.88893e-07
3.61328e-06
9.84536e-07
3.5853e-06
-3.77644e-07
3.58949e-06
4.39135e-07
3.58805e-06
4.60889e-07
3.57782e-06
1.90308e-07
3.5868e-06
7.84363e-07
3.5832e-06
5.72158e-07
3.60545e-06
7.07487e-07
3.59421e-06
4.89364e-07
3.60531e-06
3.66121e-07
3.61596e-06
4.72149e-07
3.61132e-06
3.26017e-07
3.62667e-06
3.25905e-07
3.62398e-06
3.18296e-07
3.61803e-06
2.36145e-07
2.10124e-07
3.62585e-06
3.7648e-06
4.37582e-07
3.75601e-06
1.5037e-07
3.74895e-06
4.66931e-09
3.76024e-06
7.77598e-07
3.78589e-06
9.58887e-07
3.75632e-06
-3.48077e-07
3.76134e-06
4.34117e-07
3.75867e-06
4.63558e-07
3.74856e-06
2.00428e-07
3.75797e-06
7.74949e-07
3.75484e-06
5.75287e-07
3.77852e-06
6.83807e-07
3.76682e-06
5.01068e-07
3.776e-06
3.56941e-07
3.7875e-06
4.60645e-07
3.78142e-06
3.32098e-07
3.79597e-06
3.11358e-07
3.79702e-06
3.17238e-07
3.78994e-06
2.43233e-07
2.03024e-07
3.79704e-06
3.94531e-06
4.26456e-07
3.93537e-06
1.60317e-07
3.92909e-06
1.09461e-08
3.9395e-06
7.67188e-07
3.96673e-06
9.31659e-07
3.93555e-06
-3.16896e-07
3.94114e-06
4.28525e-07
3.93752e-06
4.67175e-07
3.92763e-06
2.10317e-07
3.93761e-06
7.64973e-07
3.93501e-06
5.77886e-07
3.96019e-06
6.58627e-07
3.94842e-06
5.1284e-07
3.95512e-06
3.50238e-07
3.96766e-06
4.48105e-07
3.96038e-06
3.3938e-07
3.97318e-06
2.98561e-07
3.97811e-06
3.12307e-07
3.97072e-06
2.50617e-07
1.97998e-07
3.97575e-06
4.1345e-06
4.14208e-07
4.12341e-06
1.71409e-07
4.11788e-06
1.64752e-08
4.12759e-06
7.57475e-07
4.15609e-06
9.03154e-07
4.12344e-06
-2.84241e-07
4.12921e-06
4.22754e-07
4.12489e-06
4.71497e-07
4.11546e-06
2.19744e-07
4.12615e-06
7.54281e-07
4.12397e-06
5.80068e-07
4.15051e-06
6.32091e-07
4.13931e-06
5.24041e-07
4.143e-06
3.46546e-07
4.15682e-06
4.34284e-07
4.14882e-06
3.47378e-07
4.1589e-06
2.88482e-07
4.16737e-06
3.03836e-07
4.16089e-06
2.57104e-07
1.95977e-07
4.16291e-06
4.33269e-06
4.00818e-07
4.32053e-06
1.83576e-07
4.31573e-06
2.12669e-08
4.32491e-06
7.48304e-07
4.35431e-06
8.73748e-07
4.32046e-06
-2.50389e-07
4.32599e-06
4.17221e-07
4.3212e-06
4.76293e-07
4.31249e-06
2.28453e-07
4.32406e-06
7.4271e-07
4.32207e-06
5.82058e-07
4.34958e-06
6.04578e-07
4.33977e-06
5.33848e-07
4.34005e-06
3.46272e-07
4.35532e-06
4.19007e-07
4.34732e-06
3.55385e-07
4.35389e-06
2.81906e-07
4.3651e-06
2.9263e-07
4.36074e-06
2.6146e-07
1.97171e-07
4.35955e-06
4.54026e-06
3.8633e-07
4.52712e-06
1.96719e-07
4.5231e-06
2.52882e-08
4.53187e-06
7.39527e-07
4.56174e-06
8.43883e-07
4.52706e-06
-2.15714e-07
4.53202e-06
4.12266e-07
4.52696e-06
4.8135e-07
4.51913e-06
2.36281e-07
4.53176e-06
7.30082e-07
4.52972e-06
5.84102e-07
4.55765e-06
5.76645e-07
4.55012e-06
5.41377e-07
4.54683e-06
3.49562e-07
4.56343e-06
4.02409e-07
4.55635e-06
3.62463e-07
4.55899e-06
2.79263e-07
4.57173e-06
2.79896e-07
4.57045e-06
2.62737e-07
2.00974e-07
4.56665e-06
4.7576e-06
3.70842e-07
4.7436e-06
2.10722e-07
4.7404e-06
2.84879e-08
4.74893e-06
7.30993e-07
4.77879e-06
8.14031e-07
4.74372e-06
-1.80648e-07
4.74788e-06
4.08102e-07
4.74275e-06
4.86487e-07
4.73581e-06
2.43217e-07
4.74967e-06
7.16226e-07
4.74741e-06
5.86363e-07
4.77509e-06
5.48959e-07
4.77065e-06
5.45822e-07
4.76398e-06
3.56234e-07
4.78134e-06
3.85042e-07
4.77625e-06
3.67557e-07
4.77503e-06
2.80483e-07
4.78778e-06
2.67142e-07
4.79014e-06
2.60386e-07
2.06205e-07
4.7849e-06
4.98516e-06
3.54478e-07
4.97042e-06
2.25459e-07
4.96807e-06
3.08439e-08
4.97654e-06
7.22523e-07
5.00591e-06
7.84659e-07
4.97091e-06
-1.45645e-07
4.9742e-06
4.0481e-07
4.96914e-06
4.91542e-07
4.96294e-06
2.49416e-07
4.97815e-06
7.01021e-07
4.97565e-06
5.88865e-07
5.00238e-06
5.22224e-07
5.00163e-06
5.4657e-07
4.9921e-06
3.65772e-07
5.00928e-06
3.67858e-07
5.00718e-06
3.69654e-07
5.00275e-06
2.8491e-07
5.01391e-06
2.55985e-07
5.01966e-06
2.54637e-07
2.11207e-07
5.01466e-06
5.22342e-06
3.37372e-07
5.20809e-06
2.40791e-07
5.20652e-06
3.24105e-08
5.21515e-06
7.13897e-07
5.2436e-06
7.56207e-07
5.20911e-06
-1.11153e-07
5.21154e-06
4.02377e-07
5.20671e-06
4.96374e-07
5.20099e-06
2.55141e-07
5.21759e-06
6.84423e-07
5.21494e-06
5.91509e-07
5.24006e-06
4.97106e-07
5.24335e-06
5.43278e-07
5.23169e-06
3.77438e-07
5.24758e-06
3.51961e-07
5.24927e-06
3.67963e-07
5.24269e-06
2.915e-07
5.25067e-06
2.47997e-07
5.25919e-06
2.4612e-07
2.14496e-07
5.2559e-06
5.47292e-06
3.19644e-07
5.45714e-06
2.56572e-07
5.4562e-06
3.33476e-08
5.46528e-06
7.04818e-07
5.49239e-06
7.29091e-07
5.45885e-06
-7.76051e-08
5.46048e-06
4.00743e-07
5.456e-06
5.00857e-07
5.45045e-06
2.60685e-07
5.46841e-06
6.6647e-07
5.46582e-06
5.94098e-07
5.4887e-06
4.74222e-07
5.49611e-06
5.35867e-07
5.48323e-06
3.90316e-07
5.49673e-06
3.38467e-07
5.5026e-06
3.62086e-07
5.49507e-06
2.99031e-07
5.49922e-06
2.43852e-07
5.50911e-06
2.36231e-07
2.15045e-07
5.50856e-06
5.73421e-06
3.01396e-07
5.71814e-06
2.72641e-07
5.71755e-06
3.39405e-08
5.72747e-06
6.9489e-07
5.75283e-06
7.03736e-07
5.72062e-06
-4.53986e-08
5.72153e-06
3.99833e-07
5.71751e-06
5.0488e-07
5.71191e-06
2.66287e-07
5.7311e-06
6.47274e-07
5.72882e-06
5.96385e-07
5.74894e-06
4.54101e-07
5.76026e-06
5.24543e-07
5.74723e-06
4.03352e-07
5.75737e-06
3.28322e-07
5.76725e-06
3.52206e-07
5.76009e-06
3.06191e-07
5.76055e-06
2.43394e-07
5.77014e-06
2.26641e-07
2.12651e-07
5.77253e-06
6.00787e-06
2.82716e-07
5.9917e-06
2.8881e-07
5.99105e-06
3.4595e-08
6.00236e-06
6.83583e-07
6.02547e-06
6.80622e-07
5.99497e-06
-1.49022e-08
5.9953e-06
3.99506e-07
5.99177e-06
5.08407e-07
5.98594e-06
2.72116e-07
6.00624e-06
6.26976e-07
6.00453e-06
5.98097e-07
6.02148e-06
4.37148e-07
6.03625e-06
5.09774e-07
6.02417e-06
4.15431e-07
6.03048e-06
3.22011e-07
6.04329e-06
3.39395e-07
6.03798e-06
3.11503e-07
6.03534e-06
2.46038e-07
6.04327e-06
2.18712e-07
2.07868e-07
6.04805e-06
6.29451e-06
2.63691e-07
6.27846e-06
3.04861e-07
6.27724e-06
3.58176e-08
6.29059e-06
6.70235e-07
6.31092e-06
6.60287e-07
6.28246e-06
1.35575e-08
6.28245e-06
3.99517e-07
6.27934e-06
5.11522e-07
6.27317e-06
2.78281e-07
6.29441e-06
6.05739e-07
6.29358e-06
5.98929e-07
6.30713e-06
4.23591e-07
6.32466e-06
4.92244e-07
6.31458e-06
4.25514e-07
6.31695e-06
3.19637e-07
6.33142e-06
3.24925e-07
6.32908e-06
3.1385e-07
6.32412e-06
2.50998e-07
6.32959e-06
2.13239e-07
2.01669e-07
6.33579e-06
6.59474e-06
2.44421e-07
6.57907e-06
3.20527e-07
6.57672e-06
3.81759e-08
6.59291e-06
6.54042e-07
6.60986e-06
6.43336e-07
6.58366e-06
3.97551e-08
6.58365e-06
3.99527e-07
6.5808e-06
5.14377e-07
6.57422e-06
2.84858e-07
6.59622e-06
5.83736e-07
6.59658e-06
5.98573e-07
6.6067e-06
4.13473e-07
6.62617e-06
4.72769e-07
6.61897e-06
4.32715e-07
6.61774e-06
3.20867e-07
6.63233e-06
3.10335e-07
6.63374e-06
3.12445e-07
6.6274e-06
2.57334e-07
6.63013e-06
2.10509e-07
1.95147e-07
6.63666e-06
6.90918e-06
2.25033e-07
6.89422e-06
3.3549e-07
6.89018e-06
4.2214e-08
6.90997e-06
6.34253e-07
6.92304e-06
6.3026e-07
6.89918e-06
6.36125e-08
6.89955e-06
3.99162e-07
6.8968e-06
5.1713e-07
6.88974e-06
2.9192e-07
6.91233e-06
5.61144e-07
6.91419e-06
5.96709e-07
6.92103e-06
4.06632e-07
6.94155e-06
4.52249e-07
6.93794e-06
4.36329e-07
6.93378e-06
3.2502e-07
6.94686e-06
2.97257e-07
6.95224e-06
3.07065e-07
6.94575e-06
2.63831e-07
6.94563e-06
2.10623e-07
1.89051e-07
6.95173e-06
7.23849e-06
2.05682e-07
7.22458e-06
3.49392e-07
7.21841e-06
4.83862e-08
7.24198e-06
6.10685e-07
7.25129e-06
6.20952e-07
7.22946e-06
8.54404e-08
7.23077e-06
3.97853e-07
7.22805e-06
5.19848e-07
7.22039e-06
2.99581e-07
7.24337e-06
5.38167e-07
7.24707e-06
5.93008e-07
7.25098e-06
4.02724e-07
7.27163e-06
4.31597e-07
7.27201e-06
4.35942e-07
7.26585e-06
3.31184e-07
7.276e-06
2.87105e-07
7.2848e-06
2.9827e-07
7.27955e-06
2.69076e-07
7.27694e-06
2.13238e-07
1.84e-07
7.28199e-06
7.58335e-06
1.86561e-07
7.57089e-06
3.61848e-07
7.56228e-06
5.69982e-08
7.58948e-06
5.8348e-07
7.59588e-06
6.14555e-07
7.57501e-06
1.06313e-07
7.57787e-06
3.94993e-07
7.57534e-06
5.2238e-07
7.56693e-06
3.07994e-07
7.59005e-06
5.15046e-07
7.59587e-06
5.87187e-07
7.59728e-06
4.01314e-07
7.61733e-06
4.11541e-07
7.62185e-06
4.31429e-07
7.6148e-06
3.38231e-07
7.62128e-06
2.80624e-07
7.63194e-06
2.8761e-07
7.62868e-06
2.72337e-07
7.6244e-06
2.17515e-07
1.8027e-07
7.62813e-06
7.9445e-06
1.67874e-07
7.93387e-06
3.72474e-07
7.92267e-06
6.82046e-08
7.95298e-06
5.53163e-07
7.95777e-06
6.09768e-07
7.9366e-06
1.27478e-07
7.94152e-06
3.90075e-07
7.93943e-06
5.24477e-07
7.93013e-06
3.17291e-07
7.95307e-06
4.92105e-07
7.96131e-06
5.78941e-07
7.96074e-06
4.01887e-07
7.97946e-06
3.92818e-07
7.98793e-06
4.22962e-07
7.98155e-06
3.44612e-07
7.98468e-06
2.77497e-07
7.99489e-06
2.77403e-07
7.99332e-06
2.73899e-07
7.98754e-06
2.23298e-07
1.77256e-07
7.99055e-06
8.32269e-06
1.49863e-07
8.3143e-06
3.80865e-07
8.30053e-06
8.19771e-08
8.33312e-06
5.2057e-07
8.33762e-06
6.05268e-07
8.3151e-06
1.49998e-07
8.32229e-06
3.82885e-07
8.32114e-06
5.25628e-07
8.31089e-06
3.27543e-07
8.3332e-06
4.69796e-07
8.34406e-06
5.68082e-07
8.3421e-06
4.03841e-07
8.35898e-06
3.75944e-07
8.37079e-06
4.11152e-07
8.36712e-06
3.48283e-07
8.37179e-06
2.72821e-07
8.38854e-06
2.6066e-07
8.39897e-06
2.63467e-07
8.39712e-06
2.25142e-07
1.82143e-07
8.39224e-06
8.71877e-06
1.32754e-07
8.71297e-06
3.86667e-07
8.69675e-06
9.81961e-08
8.73063e-06
4.86689e-07
8.73624e-06
5.9966e-07
8.71151e-06
1.74725e-07
8.72081e-06
3.73591e-07
8.72128e-06
5.25152e-07
8.71006e-06
3.38761e-07
8.73136e-06
4.48501e-07
8.74491e-06
5.54534e-07
8.74222e-06
4.06522e-07
8.75685e-06
3.61323e-07
8.77152e-06
3.96478e-07
8.77093e-06
3.48871e-07
8.77322e-06
2.70533e-07
8.787e-06
2.46882e-07
8.79758e-06
2.52885e-07
8.79576e-06
2.2696e-07
1.86413e-07
8.79149e-06
9.13357e-06
1.168e-07
9.13072e-06
3.89516e-07
9.11236e-06
1.16556e-07
9.14645e-06
4.52602e-07
9.15443e-06
5.91685e-07
9.12699e-06
2.02159e-07
9.13764e-06
3.62944e-07
9.14071e-06
5.22083e-07
9.12869e-06
3.50781e-07
9.14837e-06
4.28822e-07
9.16441e-06
5.38496e-07
9.16207e-06
4.08856e-07
9.17436e-06
3.49036e-07
9.19026e-06
3.80575e-07
9.19216e-06
3.46973e-07
9.19279e-06
2.699e-07
9.20563e-06
2.34047e-07
9.21858e-06
2.39931e-07
9.22101e-06
2.24531e-07
1.93939e-07
9.21348e-06
9.56805e-06
1.02214e-07
9.5684e-06
3.89163e-07
9.54824e-06
1.36711e-07
9.58151e-06
4.19335e-07
9.593e-06
5.80194e-07
9.56313e-06
2.32029e-07
9.57371e-06
3.52365e-07
9.58002e-06
5.15779e-07
9.56769e-06
3.63102e-07
9.58523e-06
4.11285e-07
9.60358e-06
5.20151e-07
9.60223e-06
4.102e-07
9.61227e-06
3.39001e-07
9.62847e-06
3.64369e-07
9.62999e-06
3.45461e-07
9.62399e-06
2.75893e-07
9.62525e-06
2.32791e-07
9.6305e-06
2.34681e-07
9.63099e-06
2.24044e-07
1.91365e-07
9.63356e-06
1.00231e-05
8.92249e-08
1.00269e-05
3.85382e-07
1.00055e-05
1.58132e-07
1.00369e-05
3.87955e-07
1.00526e-05
5.64472e-07
1.00211e-05
2.63517e-07
1.003e-05
3.43488e-07
1.00399e-05
5.0583e-07
1.00282e-05
3.74844e-07
1.00428e-05
3.96648e-07
1.00628e-05
5.00135e-07
1.00628e-05
4.10193e-07
1.00703e-05
3.31547e-07
1.00873e-05
3.47334e-07
1.00966e-05
3.36151e-07
1.00979e-05
2.74651e-07
1.01081e-05
2.22556e-07
1.01219e-05
2.20919e-07
1.01284e-05
2.17486e-07
1.99415e-07
1.01204e-05
1.04999e-05
7.80056e-08
1.05071e-05
3.78114e-07
1.0485e-05
1.80299e-07
1.05135e-05
3.59368e-07
1.05334e-05
5.44642e-07
1.05021e-05
2.94778e-07
1.05076e-05
3.37959e-07
1.0521e-05
4.92445e-07
1.05107e-05
3.85179e-07
1.05224e-05
3.84934e-07
1.05434e-05
4.79182e-07
1.05453e-05
4.08277e-07
1.05506e-05
3.26255e-07
1.05651e-05
3.32826e-07
1.05711e-05
3.30137e-07
1.05668e-05
2.78964e-07
1.0565e-05
2.24336e-07
1.0571e-05
2.14942e-07
1.05758e-05
2.12707e-07
1.95934e-07
1.05792e-05
1.09993e-05
6.87163e-08
1.101e-05
3.6741e-07
1.09878e-05
2.02474e-07
1.10126e-05
3.34585e-07
1.10362e-05
5.21051e-07
1.10069e-05
3.24107e-07
1.10081e-05
3.36696e-07
1.10242e-05
4.76343e-07
1.10164e-05
3.9305e-07
1.10248e-05
3.76506e-07
1.10452e-05
4.58757e-07
1.10488e-05
4.04664e-07
1.10522e-05
3.22905e-07
1.10649e-05
3.20108e-07
1.10728e-05
3.22288e-07
1.10714e-05
2.80292e-07
1.10697e-05
2.26016e-07
1.10762e-05
2.08462e-07
1.10844e-05
2.04578e-07
1.93894e-07
1.10864e-05
1.15227e-05
6.14286e-08
1.15365e-05
3.53565e-07
1.15151e-05
2.2387e-07
1.15352e-05
3.14515e-07
1.15621e-05
4.94164e-07
1.15365e-05
3.49688e-07
1.15335e-05
3.39644e-07
1.15505e-05
4.59361e-07
1.15458e-05
3.97755e-07
1.15513e-05
3.71031e-07
1.15705e-05
4.39544e-07
1.15758e-05
3.99375e-07
1.15779e-05
3.20816e-07
1.15896e-05
3.08422e-07
1.15994e-05
3.12485e-07
1.16004e-05
2.79236e-07
1.15991e-05
2.27324e-07
1.16038e-05
2.03725e-07
1.1612e-05
1.96393e-07
1.90094e-07
1.16158e-05
1.20711e-05
5.61759e-08
1.20877e-05
3.36978e-07
1.20679e-05
2.43672e-07
1.20828e-05
2.99578e-07
1.21119e-05
4.65027e-07
1.20919e-05
3.69714e-07
1.2085e-05
3.46586e-07
1.21013e-05
4.42989e-07
1.21001e-05
3.99011e-07
1.21037e-05
3.67414e-07
1.21213e-05
4.21924e-07
1.21282e-05
3.92507e-07
1.213e-05
3.18955e-07
1.21405e-05
2.98015e-07
1.21513e-05
3.01659e-07
1.21543e-05
2.76246e-07
1.21537e-05
2.27872e-07
1.21569e-05
2.00547e-07
1.21643e-05
1.89019e-07
1.84494e-07
1.21699e-05
1.26459e-05
5.28779e-08
1.26646e-05
3.18303e-07
1.26472e-05
2.61042e-07
1.26569e-05
2.89824e-07
1.26872e-05
4.34755e-07
1.26738e-05
3.83156e-07
1.2664e-05
3.56346e-07
1.26783e-05
4.28683e-07
1.26801e-05
3.97221e-07
1.26831e-05
3.64427e-07
1.26993e-05
4.05754e-07
1.27075e-05
3.84255e-07
1.27095e-05
3.16977e-07
1.27181e-05
2.89375e-07
1.27297e-05
2.90136e-07
1.27346e-05
2.71263e-07
1.2735e-05
2.27471e-07
1.27371e-05
1.98467e-07
1.27433e-05
1.82842e-07
1.78327e-07
1.27495e-05
1.32484e-05
5.13713e-08
1.32684e-05
2.98339e-07
1.32543e-05
2.75166e-07
1.32593e-05
2.84781e-07
1.32893e-05
4.04763e-07
1.32826e-05
3.89914e-07
1.32717e-05
3.6724e-07
1.32831e-05
4.17208e-07
1.32873e-05
3.93015e-07
1.32906e-05
3.61133e-07
1.33054e-05
3.90971e-07
1.33147e-05
3.74983e-07
1.33172e-05
3.1446e-07
1.33245e-05
2.8211e-07
1.3336e-05
2.78633e-07
1.33424e-05
2.64821e-07
1.33438e-05
2.26061e-07
1.33454e-05
1.96916e-07
1.33506e-05
1.77674e-07
1.71942e-07
1.33569e-05
1.38802e-05
5.13665e-08
1.39005e-05
2.7804e-07
1.38903e-05
2.85327e-07
1.38914e-05
2.83697e-07
1.39196e-05
3.76545e-07
1.39192e-05
3.903e-07
1.3909e-05
3.77457e-07
1.39175e-05
4.08708e-07
1.39231e-05
3.87375e-07
1.39273e-05
3.56991e-07
1.3941e-05
3.77298e-07
1.3951e-05
3.64956e-07
1.39544e-05
3.11063e-07
1.39604e-05
2.76054e-07
1.39713e-05
2.67746e-07
1.39789e-05
2.57227e-07
1.39817e-05
2.23248e-07
1.39834e-05
1.95259e-07
1.39876e-05
1.73486e-07
1.65936e-07
1.39936e-05
1.45425e-05
5.24986e-08
1.45622e-05
2.58359e-07
1.45565e-05
2.91018e-07
1.45546e-05
2.85617e-07
1.45796e-05
3.51541e-07
1.45848e-05
3.8515e-07
1.45769e-05
3.85336e-07
1.45828e-05
4.02735e-07
1.45892e-05
3.81059e-07
1.45942e-05
3.51909e-07
1.46072e-05
3.64387e-07
1.46177e-05
3.54381e-07
1.46221e-05
3.06742e-07
1.46273e-05
2.70771e-07
1.46375e-05
2.57629e-07
1.46458e-05
2.4886e-07
1.46499e-05
2.19205e-07
1.46518e-05
1.93309e-07
1.46551e-05
1.70156e-07
1.60379e-07
1.46607e-05
1.5237e-05
5.43482e-08
1.52553e-05
2.40117e-07
1.52541e-05
2.92172e-07
1.52503e-05
2.89414e-07
1.52706e-05
3.31282e-07
1.52804e-05
3.75333e-07
1.52762e-05
3.89563e-07
1.52805e-05
3.98358e-07
1.5287e-05
3.74641e-07
1.52928e-05
3.46038e-07
1.53053e-05
3.51909e-07
1.53163e-05
3.43403e-07
1.53216e-05
3.01461e-07
1.53265e-05
2.65827e-07
1.53358e-05
2.48327e-07
1.53444e-05
2.4028e-07
1.53494e-05
2.14208e-07
1.53522e-05
1.90511e-07
1.53551e-05
1.67228e-07
1.55441e-07
1.53601e-05
1.59652e-05
5.6524e-08
1.59814e-05
2.23856e-07
1.59843e-05
2.89284e-07
1.59798e-05
2.93872e-07
1.59944e-05
3.16755e-07
1.60075e-05
3.62162e-07
1.60078e-05
3.89355e-07
1.60119e-05
3.9426e-07
1.60182e-05
3.6831e-07
1.60247e-05
3.3954e-07
1.60368e-05
3.39776e-07
1.60481e-05
3.32095e-07
1.60545e-05
2.95113e-07
1.60593e-05
2.60964e-07
1.60678e-05
2.39821e-07
1.60765e-05
2.31621e-07
1.60822e-05
2.08499e-07
1.60859e-05
1.86819e-07
1.60888e-05
1.64315e-07
1.51346e-07
1.60929e-05
1.67284e-05
5.86984e-08
1.67424e-05
2.09858e-07
1.67485e-05
2.83195e-07
1.67448e-05
2.97636e-07
1.67539e-05
3.07615e-07
1.6768e-05
3.48005e-07
1.67732e-05
3.84231e-07
1.67783e-05
3.89175e-07
1.67846e-05
3.61997e-07
1.67914e-05
3.32701e-07
1.68032e-05
3.27937e-07
1.68148e-05
3.20526e-07
1.68222e-05
2.87721e-07
1.68272e-05
2.55926e-07
1.6835e-05
2.32044e-07
1.68437e-05
2.22903e-07
1.68498e-05
2.02444e-07
1.68541e-05
1.82477e-07
1.68575e-05
1.60942e-07
1.47885e-07
1.6861e-05
1.75285e-05
6.06023e-08
1.754e-05
1.98305e-07
1.75485e-05
2.74704e-07
1.75465e-05
2.99673e-07
1.75522e-05
3.01873e-07
1.7565e-05
3.3518e-07
1.75744e-05
3.74854e-07
1.75812e-05
3.82339e-07
1.75878e-05
3.55443e-07
1.75949e-05
3.25641e-07
1.76064e-05
3.16404e-07
1.7618e-05
3.08878e-07
1.76263e-05
2.79427e-07
1.76319e-05
2.5036e-07
1.7639e-05
2.24925e-07
1.76476e-05
2.14273e-07
1.76541e-05
1.95947e-07
1.76587e-05
1.77877e-07
1.76628e-05
1.5687e-07
1.4458e-07
1.76661e-05
1.83669e-05
6.20475e-08
1.83761e-05
1.89151e-07
1.83863e-05
2.64466e-07
1.83865e-05
2.99478e-07
1.83906e-05
2.97807e-07
1.84016e-05
3.24178e-07
1.84135e-05
3.6296e-07
1.84224e-05
3.73394e-07
1.84295e-05
3.4834e-07
1.84368e-05
3.18339e-07
1.8448e-05
3.05214e-07
1.84597e-05
2.97219e-07
1.84686e-05
2.70458e-07
1.84749e-05
2.44058e-07
1.84817e-05
2.18196e-07
1.84898e-05
2.06084e-07
1.8497e-05
1.88834e-07
1.85016e-05
1.73221e-07
1.85062e-05
1.52289e-07
1.40997e-07
1.85098e-05
1.92455e-05
6.2926e-08
1.92526e-05
1.82099e-07
1.92639e-05
2.53146e-07
1.92665e-05
2.96823e-07
1.927e-05
2.94298e-07
1.92795e-05
3.14709e-07
1.92925e-05
3.49954e-07
1.93034e-05
3.62482e-07
1.93114e-05
3.40337e-07
1.9319e-05
3.10757e-07
1.93299e-05
2.94329e-07
1.93415e-05
2.85605e-07
1.9351e-05
2.61015e-07
1.93579e-05
2.3714e-07
1.93646e-05
2.11429e-07
1.93723e-05
1.98478e-07
1.93798e-05
1.81245e-07
1.93849e-05
1.68173e-07
1.93895e-05
1.47692e-07
1.36808e-07
1.93937e-05