/*--------------------------------*- C++ -*----------------------------------*\
| =========                 |                                                 |
| \\      /  F ield         | OpenFOAM: The Open Source CFD Toolbox           |
|  \\    /   O peration     | Version:  v1912                                 |
|   \\  /    A nd           | Website:  www.openfoam.com                      |
|    \\/     M anipulation  |                                                 |
\*---------------------------------------------------------------------------*/
FoamFile
{
    version     2.0;
    format      ascii;
    class       volVectorField;
    location    "9";
    object      U;
}
// * * * * * * * * * * * * * * * * * * * * * * * * * * * * * * * * * * * * * //

dimensions      [0 1 -1 0 0 0 0];


internalField   nonuniform List<vector> 
9600
(
(0.881893 0.00806279 0)
(1.19583 -0.00114636 0)
(0.817747 -0.00739629 0)
(1.06144 0.0214823 0)
(1.00938 0.020907 0)
(1.11841 -0.0339401 0)
(0.674733 0.0177316 0)
(1.30744 0.0132092 0)
(0.608919 -0.00144292 0)
(1.33501 0.0316866 0)
(0.684442 0.00169178 0)
(1.1747 0.0325337 0)
(0.862834 0.00232856 0)
(1.10924 0.0199151 0)
(0.892361 0.0146458 0)
(1.09905 0.013235 0)
(0.902832 0.0224822 0)
(1.10742 0.0035963 0)
(0.895922 0.018277 0)
(1.11885 -0.0102821 0)
(0.885569 0.00748272 0)
(1.1872 -0.000388878 0)
(0.824281 -0.00644977 0)
(1.05941 0.0203955 0)
(1.01163 0.0202802 0)
(1.1193 -0.0296106 0)
(0.678716 0.0159822 0)
(1.30158 0.0146432 0)
(0.617343 -0.00267894 0)
(1.3278 0.0307771 0)
(0.725093 0.0040444 0)
(1.16006 0.0306561 0)
(0.909475 0.00357861 0)
(1.09262 0.0199968 0)
(0.944809 0.0150872 0)
(1.0588 0.0133474 0)
(0.973387 0.02227 0)
(1.0378 0.00373601 0)
(0.995037 0.0189109 0)
(1.01248 -0.0105862 0)
(0.893596 0.006893 0)
(1.17133 0.000205317 0)
(0.839983 -0.00567825 0)
(1.05222 0.0187415 0)
(1.01567 0.0197501 0)
(1.11179 -0.0266137 0)
(0.689518 0.0132554 0)
(1.28643 0.0158172 0)
(0.648349 -0.00365833 0)
(1.30159 0.0299192 0)
(0.804593 0.00611733 0)
(1.1257 0.027806 0)
(0.964665 0.00437542 0)
(1.06508 0.0191679 0)
(0.996571 0.0157859 0)
(1.02821 0.01278 0)
(1.01488 0.0222468 0)
(1.0206 0.00378698 0)
(1.01904 0.0176713 0)
(1.01259 -0.00590908 0)
(0.905691 0.00641331 0)
(1.14908 0.000710802 0)
(0.865385 -0.00496003 0)
(1.03851 0.017314 0)
(1.01948 0.0191612 0)
(1.09809 -0.0232739 0)
(0.712936 0.0108851 0)
(1.25642 0.0165517 0)
(0.709901 -0.00426002 0)
(1.24887 0.028247 0)
(0.894739 0.00847898 0)
(1.08377 0.0254994 0)
(0.995099 0.00520615 0)
(1.04034 0.0183528 0)
(1.01656 0.0164468 0)
(1.01384 0.0123594 0)
(1.02173 0.0222583 0)
(1.01478 0.00380571 0)
(1.01563 0.0183808 0)
(1.00564 -0.00458182 0)
(0.920843 0.00601337 0)
(1.12202 0.00109522 0)
(0.897429 -0.00422165 0)
(1.01998 0.0161513 0)
(1.02255 0.0186005 0)
(1.07832 -0.0202724 0)
(0.753544 0.00893339 0)
(1.21115 0.0167781 0)
(0.791952 -0.00431177 0)
(1.17572 0.0257875 0)
(0.964907 0.0106458 0)
(1.0487 0.0243135 0)
(1.0015 0.00579557 0)
(1.02043 0.0178649 0)
(1.01459 0.0170165 0)
(1.00377 0.0124127 0)
(1.01277 0.0220317 0)
(1.00662 0.00441263 0)
(1.00559 0.0182982 0)
(0.999088 -0.00272346 0)
(0.937422 0.00569332 0)
(1.09289 0.00132569 0)
(0.930862 -0.00347668 0)
(1.00093 0.0151912 0)
(1.02426 0.0180522 0)
(1.05591 -0.0176541 0)
(0.80883 0.00737381 0)
(1.15725 0.0163934 0)
(0.87161 -0.00384806 0)
(1.10078 0.0233896 0)
(1.00379 0.0122265 0)
(1.02583 0.0241095 0)
(0.998837 0.00629967 0)
(1.00407 0.0175865 0)
(1.00493 0.0175186 0)
(0.995577 0.012551 0)
(1.00091 0.0217937 0)
(0.999272 0.00486306 0)
(0.997482 0.0179634 0)
(0.996508 -0.000985952 0)
(0.953523 0.00546631 0)
(1.06514 0.00139749 0)
(0.960379 -0.00276202 0)
(0.986208 0.0144499 0)
(1.02385 0.0175534 0)
(1.03576 -0.0156106 0)
(0.867569 0.00621134 0)
(1.10473 0.0156219 0)
(0.930753 -0.00302065 0)
(1.04246 0.0215745 0)
(1.01762 0.013116 0)
(1.01355 0.0244224 0)
(0.997225 0.00685346 0)
(0.992545 0.0174113 0)
(0.995543 0.017856 0)
(0.9906 0.0126286 0)
(0.992994 0.0215163 0)
(0.995326 0.00522331 0)
(0.993749 0.0174735 0)
(0.996842 0.000513676 0)
(0.967532 0.00532862 0)
(1.04183 0.00134259 0)
(0.982468 -0.00211831 0)
(0.978695 0.0139453 0)
(1.02126 0.0171222 0)
(1.02184 -0.0141817 0)
(0.916588 0.00550363 0)
(1.06118 0.0148192 0)
(0.965336 -0.0020767 0)
(1.00767 0.0203448 0)
(1.0177 0.0134475 0)
(1.00798 0.0248084 0)
(0.99847 0.00748169 0)
(0.986898 0.0173302 0)
(0.990027 0.0180592 0)
(0.989079 0.0126115 0)
(0.990331 0.0211909 0)
(0.995042 0.00552757 0)
(0.993873 0.0168024 0)
(0.998585 0.00181741 0)
(0.978586 0.00526072 0)
(1.02453 0.00121232 0)
(0.996216 -0.00158626 0)
(0.978225 0.0136433 0)
(1.01754 0.0167552 0)
(1.01494 -0.0132608 0)
(0.948707 0.00523384 0)
(1.02972 0.0141753 0)
(0.981614 -0.00126296 0)
(0.991812 0.0195294 0)
(1.01249 0.0134447 0)
(1.00543 0.0250375 0)
(1.00059 0.00814138 0)
(0.985941 0.0173276 0)
(0.989036 0.0181956 0)
(0.990523 0.0125179 0)
(0.991447 0.0207931 0)
(0.997328 0.00580163 0)
(0.996516 0.0160403 0)
(1.00107 0.00301754 0)
(0.986661 0.00523764 0)
(1.0131 0.00105693 0)
(1.00288 -0.00118491 0)
(0.982361 0.0134817 0)
(1.01426 0.0164398 0)
(1.01286 -0.0126649 0)
(0.964771 0.00530857 0)
(1.01019 0.0136813 0)
(0.988326 -0.00065778 0)
(0.986327 0.0189785 0)
(1.00639 0.0133038 0)
(1.00345 0.0250591 0)
(1.00195 0.00877665 0)
(0.987481 0.0173269 0)
(0.991286 0.0182928 0)
(0.994105 0.0123849 0)
(0.994718 0.020337 0)
(1.00097 0.00607666 0)
(1.00044 0.0152586 0)
(1.00408 0.00415315 0)
(0.992264 0.00523653 0)
(1.00629 0.000915652 0)
(1.00478 -0.000912873 0)
(0.988151 0.0133924 0)
(1.01254 0.0161744 0)
(1.01264 -0.0122212 0)
(0.970355 0.0056033 0)
(1.00052 0.0132421 0)
(0.991675 -0.000216862 0)
(0.984879 0.0185996 0)
(1.00137 0.0131398 0)
(1.00128 0.0249044 0)
(1.00232 0.00934406 0)
(0.989911 0.0172423 0)
(0.994951 0.0183492 0)
(0.998706 0.0122282 0)
(0.998996 0.0198508 0)
(1.00506 0.00638022 0)
(1.0047 0.0144875 0)
(1.00728 0.0052681 0)
(0.99605 0.00524104 0)
(1.00255 0.000810381 0)
(1.00414 -0.000753594 0)
(0.993428 0.0133164 0)
(1.01263 0.0159625 0)
(1.01224 -0.0118115 0)
(0.971481 0.00599565 0)
(0.997616 0.0127736 0)
(0.994402 0.000143581 0)
(0.984747 0.0183471 0)
(0.998275 0.0130049 0)
(0.999334 0.0246172 0)
(1.0023 0.00982368 0)
(0.992554 0.0170409 0)
(0.998722 0.0183424 0)
(1.00325 0.0120456 0)
(1.00339 0.0193549 0)
(1.00885 0.00673057 0)
(1.00856 0.0137415 0)
(1.01017 0.00635081 0)
(0.998567 0.00524137 0)
(1.00068 0.000749361 0)
(1.00257 -0.000677366 0)
(0.997152 0.0132117 0)
(1.01403 0.015808 0)
(1.01109 -0.0113783 0)
(0.972131 0.00639072 0)
(0.998349 0.0122471 0)
(0.997093 0.0004851 0)
(0.985439 0.0181916 0)
(0.997266 0.0129121 0)
(0.998346 0.0242404 0)
(1.00259 0.010221 0)
(0.995276 0.0167273 0)
(1.00208 0.0182625 0)
(1.0071 0.0118487 0)
(1.00722 0.0188563 0)
(1.01178 0.00713551 0)
(1.01146 0.0130193 0)
(1.01223 0.00737845 0)
(1.00021 0.0052325 0)
(0.999876 0.000731571 0)
(1.00093 -0.000651034 0)
(0.999179 0.0130561 0)
(1.01588 0.0157065 0)
(1.00954 -0.01091 0)
(0.973796 0.00673546 0)
(1.00042 0.0116792 0)
(0.999596 0.000826384 0)
(0.987033 0.0181017 0)
(0.997933 0.012854 0)
(0.998637 0.0238138 0)
(1.00353 0.0105578 0)
(0.998064 0.0163212 0)
(1.00498 0.0181374 0)
(1.01012 0.0116563 0)
(1.01012 0.018349 0)
(1.01359 0.0076027 0)
(1.01312 0.0123436 0)
(1.01321 0.00832804 0)
(1.00121 0.0052121 0)
(0.999715 0.000751604 0)
(0.999564 -0.000650276 0)
(0.99989 0.0128464 0)
(1.01743 0.0156404 0)
(1.00818 -0.0104172 0)
(0.97629 0.00701307 0)
(1.0026 0.0111022 0)
(1.00172 0.00116174 0)
(0.989283 0.0180424 0)
(0.999524 0.0128254 0)
(0.99985 0.0233587 0)
(1.00497 0.0108526 0)
(1.00078 0.0158562 0)
(1.00748 0.0180021 0)
(1.01241 0.0114861 0)
(1.01208 0.0178499 0)
(1.01443 0.00813969 0)
(1.0137 0.011756 0)
(1.01319 0.00916784 0)
(1.00169 0.00517927 0)
(0.999985 0.000802932 0)
(0.99857 -0.000657418 0)
(0.999806 0.0125921 0)
(1.01831 0.0155876 0)
(1.00726 -0.00991474 0)
(0.978968 0.00722725 0)
(1.00448 0.0105396 0)
(1.00336 0.00147821 0)
(0.991563 0.0179957 0)
(1.00127 0.0128199 0)
(1.00127 0.0228821 0)
(1.00639 0.0111163 0)
(1.00314 0.0153646 0)
(1.00949 0.0178617 0)
(1.01411 0.0113605 0)
(1.0133 0.0173944 0)
(1.01469 0.00875069 0)
(1.01366 0.0112593 0)
(1.01259 0.00988538 0)
(1.00168 0.00513417 0)
(1.00056 0.000878203 0)
(0.997987 -0.000660687 0)
(0.999278 0.0123077 0)
(1.01859 0.0155316 0)
(1.0066 -0.00941543 0)
(0.981573 0.00738659 0)
(1.00599 0.0100039 0)
(1.00443 0.00177253 0)
(0.993307 0.0179562 0)
(1.0027 0.0128334 0)
(1.00236 0.0223923 0)
(1.00736 0.0113606 0)
(1.00481 0.0148614 0)
(1.01083 0.0177101 0)
(1.01524 0.0112907 0)
(1.01402 0.0169846 0)
(1.01474 0.00942268 0)
(1.01355 0.0108634 0)
(1.01193 0.0104906 0)
(1.00124 0.00507815 0)
(1.00131 0.000967257 0)
(0.997858 -0.000650523 0)
(0.998417 0.0120064 0)
(1.01849 0.015464 0)
(1.00594 -0.00892898 0)
(0.984226 0.00749278 0)
(1.00717 0.00951294 0)
(1.00481 0.0020501 0)
(0.994349 0.017918 0)
(1.00369 0.0128628 0)
(1.00298 0.0219005 0)
(1.00775 0.0115896 0)
(1.00567 0.0143465 0)
(1.01138 0.0175564 0)
(1.0158 0.0112615 0)
(1.01436 0.0165902 0)
(1.01473 0.0101255 0)
(1.01365 0.0105722 0)
(1.01152 0.0109893 0)
(1.00055 0.00501378 0)
(1.00203 0.00105867 0)
(0.998167 -0.000618658 0)
(0.997277 0.0117 0)
(1.01808 0.0153784 0)
(1.00532 -0.00846444 0)
(0.986924 0.00754786 0)
(1.00796 0.00909598 0)
(1.00444 0.00231269 0)
(0.994831 0.0178722 0)
(1.00435 0.0129057 0)
(1.00321 0.0214037 0)
(1.00771 0.0118162 0)
(1.00582 0.0138318 0)
(1.01119 0.0173783 0)
(1.01578 0.0112538 0)
(1.01436 0.016188 0)
(1.01459 0.0108248 0)
(1.01393 0.0103814 0)
(1.01144 0.0113685 0)
(0.999809 0.00494406 0)
(1.00257 0.00114411 0)
(0.99878 -0.000560532 0)
(0.996032 0.0114016 0)
(1.01733 0.0152642 0)
(1.00497 -0.00802635 0)
(0.989333 0.00756057 0)
(1.00834 0.00877694 0)
(1.00354 0.00256593 0)
(0.994938 0.0177967 0)
(1.00477 0.0129596 0)
(1.00316 0.0209106 0)
(1.00738 0.0120505 0)
(1.00553 0.0133381 0)
(1.01045 0.0171632 0)
(1.01525 0.0112514 0)
(1.01406 0.0157541 0)
(1.0142 0.0114767 0)
(1.01418 0.0102685 0)
(1.01152 0.0116185 0)
(0.999223 0.00487115 0)
(1.00286 0.00122028 0)
(0.999491 -0.000478301 0)
(0.994943 0.0111236 0)
(1.01628 0.015111 0)
(1.00503 -0.00761419 0)
(0.991078 0.00754663 0)
(1.00835 0.00856081 0)
(1.00249 0.00280794 0)
(0.99478 0.0176817 0)
(1.00496 0.0130237 0)
(1.00292 0.0204222 0)
(1.00686 0.0122974 0)
(1.00504 0.012866 0)
(1.00944 0.0169245 0)
(1.01437 0.0112498 0)
(1.01353 0.0152787 0)
(1.01354 0.012061 0)
(1.01426 0.0102055 0)
(1.01164 0.0117191 0)
(0.998866 0.0047958 0)
(1.00293 0.00128893 0)
(1.00012 -0.000379088 0)
(0.994206 0.0108734 0)
(1.01508 0.014911 0)
(1.00539 -0.00721885 0)
(0.992068 0.00751734 0)
(1.00815 0.0084359 0)
(1.00162 0.0030303 0)
(0.994456 0.0175374 0)
(1.00491 0.0131004 0)
(1.00264 0.0199291 0)
(1.00623 0.0125573 0)
(1.00454 0.0124122 0)
(1.00843 0.0166647 0)
(1.01331 0.0112651 0)
(1.01288 0.0147537 0)
(1.01269 0.012584 0)
(1.01414 0.0102203 0)
(1.01172 0.0116579 0)
(0.998716 0.00471792 0)
(1.00287 0.00135493 0)
(1.00059 -0.000272859 0)
(0.993861 0.0106542 0)
(1.01393 0.014663 0)
(1.00585 -0.00682767 0)
(0.992489 0.00748078 0)
(1.00789 0.0083729 0)
(1.00107 0.00324371 0)
(0.994079 0.0173676 0)
(1.0047 0.0131855 0)
(1.00249 0.0194287 0)
(1.00562 0.0128308 0)
(1.00414 0.0119789 0)
(1.00755 0.016383 0)
(1.01221 0.0113176 0)
(1.01223 0.0141803 0)
(1.01178 0.0130195 0)
(1.01387 0.010316 0)
(1.01178 0.0114374 0)
(0.998702 0.00463556 0)
(1.00279 0.00142521 0)
(1.00088 -0.000168462 0)
(0.993837 0.010463 0)
(1.01294 0.0143747 0)
(1.00626 -0.00642622 0)
(0.9926 0.00743124 0)
(1.00767 0.00835579 0)
(1.00081 0.0034493 0)
(0.993737 0.0171876 0)
(1.0044 0.0132728 0)
(1.0026 0.0189075 0)
(1.00515 0.0131199 0)
(1.0039 0.0115733 0)
(1.00689 0.0160804 0)
(1.01116 0.0114111 0)
(1.01164 0.0135709 0)
(1.01088 0.0133483 0)
(1.01349 0.0104955 0)
(1.01184 0.0110845 0)
(0.998749 0.00454683 0)
(1.00274 0.0015041 0)
(1.00104 -7.08818e-05 0)
(0.994021 0.0102941 0)
(1.01214 0.0140524 0)
(1.00659 -0.0060065 0)
(0.992591 0.00736713 0)
(1.00749 0.00837202 0)
(1.00073 0.00364873 0)
(0.993472 0.0170032 0)
(1.00409 0.0133592 0)
(1.00299 0.0183582 0)
(1.00487 0.0134253 0)
(1.00386 0.0112024 0)
(1.00642 0.0157497 0)
(1.01018 0.0115628 0)
(1.01112 0.0129403 0)
(1.01006 0.0135379 0)
(1.013 0.0107664 0)
(1.01191 0.0106653 0)
(0.998805 0.00445018 0)
(1.00276 0.00159386 0)
(1.00112 1.74066e-05 0)
(0.994324 0.0101428 0)
(1.01148 0.0137011 0)
(1.00685 -0.00556395 0)
(0.992564 0.00729008 0)
(1.00727 0.00841218 0)
(1.00078 0.00384885 0)
(0.99329 0.0168066 0)
(1.00381 0.013439 0)
(1.0036 0.017773 0)
(1.00475 0.013754 0)
(1.00398 0.0108813 0)
(1.00614 0.015384 0)
(1.00932 0.0117734 0)
(1.01066 0.012327 0)
(1.00935 0.0135587 0)
(1.01242 0.0111118 0)
(1.01195 0.0102619 0)
(0.998844 0.004344 0)
(1.00285 0.00169608 0)
(1.00116 9.64131e-05 0)
(0.994686 0.0100028 0)
(1.01093 0.0133277 0)
(1.00703 -0.00509559 0)
(0.992574 0.00719962 0)
(1.00694 0.0084705 0)
(1.0009 0.00404995 0)
(0.993193 0.0165986 0)
(1.00355 0.0135042 0)
(1.00433 0.0171483 0)
(1.00474 0.0140924 0)
(1.00423 0.0106291 0)
(1.00601 0.0149832 0)
(1.00859 0.0120332 0)
(1.01025 0.0117786 0)
(1.00879 0.0134064 0)
(1.01175 0.0114956 0)
(1.01194 0.00995462 0)
(0.99886 0.00422614 0)
(1.00297 0.00181227 0)
(1.0012 0.000165187 0)
(0.995081 0.00987443 0)
(1.01044 0.0129324 0)
(1.00714 -0.00460209 0)
(0.992652 0.00710217 0)
(1.00646 0.00854443 0)
(1.0011 0.00424069 0)
(0.993186 0.0163771 0)
(1.00332 0.0135629 0)
(1.00506 0.0164834 0)
(1.00477 0.014424 0)
(1.00457 0.0104621 0)
(1.00603 0.0145374 0)
(1.00804 0.0123348 0)
(1.00991 0.0113359 0)
(1.00843 0.0130744 0)
(1.01106 0.0118467 0)
(1.01186 0.00980236 0)
(0.998862 0.00409708 0)
(1.0031 0.00194009 0)
(1.00126 0.000226114 0)
(0.995498 0.00975282 0)
(1.01 0.012522 0)
(1.00717 -0.00408745 0)
(0.992817 0.00700386 0)
(1.00585 0.00863024 0)
(1.00136 0.00441988 0)
(0.993274 0.016136 0)
(1.00313 0.0136148 0)
(1.00574 0.0157864 0)
(1.0048 0.0147337 0)
(1.00494 0.0103981 0)
(1.00617 0.0140451 0)
(1.00768 0.0126498 0)
(1.00963 0.0110205 0)
(1.00828 0.0126055 0)
(1.0104 0.0121084 0)
(1.01169 0.0098389 0)
(0.998863 0.00395721 0)
(1.00319 0.00207817 0)
(1.00133 0.000279076 0)
(0.995932 0.00963697 0)
(1.00959 0.0121026 0)
(1.00711 -0.00356028 0)
(0.993071 0.00691809 0)
(1.00515 0.00872114 0)
(1.00167 0.00458559 0)
(0.993451 0.015872 0)
(1.00298 0.0136615 0)
(1.00633 0.0150704 0)
(1.0048 0.0149867 0)
(1.00529 0.0104553 0)
(1.00643 0.0134913 0)
(1.0075 0.012945 0)
(1.0094 0.0108594 0)
(1.00833 0.0120515 0)
(1.00987 0.0122294 0)
(1.01144 0.01005 0)
(0.998876 0.00380493 0)
(1.00322 0.0022291 0)
(1.00144 0.000320103 0)
(0.996375 0.00952761 0)
(1.00921 0.0116782 0)
(1.00698 -0.00302371 0)
(0.993401 0.00684097 0)
(1.00446 0.00881607 0)
(1.00202 0.00473458 0)
(0.993701 0.0155887 0)
(1.00288 0.013713 0)
(1.00682 0.0143507 0)
(1.00478 0.0151585 0)
(1.00558 0.0106179 0)
(1.00676 0.0129052 0)
(1.0075 0.0131711 0)
(1.00922 0.0108691 0)
(1.00853 0.0114777 0)
(1.0095 0.012167 0)
(1.01115 0.0103516 0)
(0.998906 0.0036448 0)
(1.00317 0.00238612 0)
(1.00157 0.000351988 0)
(0.996814 0.00941851 0)
(1.00884 0.0112587 0)
(1.00679 -0.00248438 0)
(0.993786 0.00677709 0)
(1.00382 0.00890432 0)
(1.00238 0.0048713 0)
(0.994005 0.0152745 0)
(1.00279 0.0137771 0)
(1.00722 0.013645 0)
(1.00475 0.0152356 0)
(1.00579 0.0108814 0)
(1.00715 0.0123161 0)
(1.00763 0.0132882 0)
(1.00907 0.011032 0)
(1.00881 0.0109616 0)
(1.00931 0.0119219 0)
(1.01085 0.0106467 0)
(0.998957 0.00347648 0)
(1.00307 0.0025508 0)
(1.00171 0.000374371 0)
(0.997237 0.00930805 0)
(1.00847 0.0108493 0)
(1.00657 -0.00194862 0)
(0.9942 0.00673198 0)
(1.0033 0.00898981 0)
(1.00273 0.00498966 0)
(0.994355 0.0149315 0)
(1.00271 0.0138414 0)
(1.00756 0.0129779 0)
(1.00474 0.015202 0)
(1.00589 0.0112275 0)
(1.00753 0.0117551 0)
(1.00785 0.013279 0)
(1.00891 0.0112954 0)
(1.00908 0.0105637 0)
(1.0093 0.0115233 0)
(1.01059 0.0108537 0)
(0.999025 0.00329987 0)
(1.00292 0.00272279 0)
(1.00187 0.000387516 0)
(0.997632 0.00919571 0)
(1.00809 0.0104578 0)
(1.00635 -0.00142695 0)
(0.994625 0.00670096 0)
(1.00289 0.00906554 0)
(1.00307 0.00510615 0)
(0.994744 0.0145611 0)
(1.0026 0.0139028 0)
(1.00783 0.0123516 0)
(1.00475 0.0150506 0)
(1.00587 0.0116243 0)
(1.00787 0.0112635 0)
(1.00813 0.0131182 0)
(1.00875 0.0116007 0)
(1.00927 0.0103368 0)
(1.0094 0.0110413 0)
(1.01042 0.010912 0)
(0.999106 0.00311932 0)
(1.00274 0.00289742 0)
(1.00202 0.000393765 0)
(0.997993 0.00907774 0)
(1.0077 0.0100851 0)
(1.00614 -0.000921884 0)
(0.99505 0.00668611 0)
(1.0026 0.00913338 0)
(1.00338 0.00521908 0)
(0.995175 0.0141575 0)
(1.00247 0.0139628 0)
(1.00805 0.0117996 0)
(1.00481 0.0147803 0)
(1.00575 0.012042 0)
(1.00814 0.0108703 0)
(1.00844 0.0128051 0)
(1.00859 0.0119019 0)
(1.00935 0.0102852 0)
(1.00955 0.0105599 0)
(1.01034 0.0107993 0)
(0.999196 0.00293294 0)
(1.00254 0.00307639 0)
(1.00216 0.000398797 0)
(0.99832 0.00894105 0)
(1.00731 0.00974315 0)
(1.00596 -0.000442933 0)
(0.995471 0.00668675 0)
(1.00239 0.00920128 0)
(1.00367 0.00533008 0)
(0.99565 0.0137331 0)
(1.00233 0.0140027 0)
(1.0082 0.0113265 0)
(1.00491 0.0144046 0)
(1.00555 0.0124428 0)
(1.0083 0.0106035 0)
(1.00876 0.0123713 0)
(1.00846 0.0121459 0)
(1.0093 0.010385 0)
(1.0097 0.010163 0)
(1.01037 0.0105454 0)
(0.99929 0.00274258 0)
(1.00235 0.00325296 0)
(1.00228 0.000409979 0)
(0.998619 0.0087843 0)
(1.0069 0.00943836 0)
(1.00579 5.3549e-06 0)
(0.995889 0.00669234 0)
(1.00224 0.00925825 0)
(1.00394 0.00544309 0)
(0.996165 0.0132949 0)
(1.00218 0.0140358 0)
(1.00831 0.0109281 0)
(1.00507 0.0139448 0)
(1.0053 0.0127957 0)
(1.00834 0.0104693 0)
(1.00909 0.0118504 0)
(1.00836 0.0122932 0)
(1.00914 0.0105787 0)
(1.00978 0.00987448 0)
(1.01045 0.0102175 0)
(0.999385 0.00255042 0)
(1.00216 0.00342936 0)
(1.00239 0.00042688 0)
(0.998896 0.00859631 0)
(1.00649 0.00917533 0)
(1.00563 0.000425679 0)
(0.99631 0.00670035 0)
(1.00214 0.00931395 0)
(1.0042 0.00555471 0)
(0.996717 0.0128265 0)
(1.00202 0.0140525 0)
(1.00837 0.0106284 0)
(1.00529 0.0134083 0)
(1.00503 0.013064 0)
(1.00827 0.0104807 0)
(1.0094 0.0112936 0)
(1.00833 0.012311 0)
(1.0089 0.0108555 0)
(1.00978 0.00970073 0)
(1.01056 0.00987796 0)
(0.999479 0.00235313 0)
(1.00197 0.00360106 0)
(1.00248 0.000465073 0)
(0.99916 0.0083667 0)
(1.00606 0.00896481 0)
(1.00549 0.000800271 0)
(0.996736 0.00670565 0)
(1.00205 0.00937301 0)
(1.00443 0.00568629 0)
(0.997301 0.012339 0)
(1.00187 0.0140288 0)
(1.00837 0.0104125 0)
(1.00557 0.0128339 0)
(1.0048 0.0132288 0)
(1.00808 0.0106087 0)
(1.00969 0.0107681 0)
(1.0084 0.0121325 0)
(1.00862 0.0111629 0)
(1.00967 0.00966389 0)
(1.01067 0.00955987 0)
(0.999571 0.0021613 0)
(1.00178 0.00375628 0)
(1.00255 0.000522093 0)
(0.999419 0.0080876 0)
(1.00563 0.00881427 0)
(1.00535 0.00115351 0)
(0.997172 0.00668993 0)
(1.00198 0.00942266 0)
(1.00463 0.00582351 0)
(0.99791 0.0118461 0)
(1.00174 0.0139738 0)
(1.00832 0.0102785 0)
(1.0059 0.012236 0)
(1.00462 0.0132655 0)
(1.00781 0.0108191 0)
(1.00992 0.0103701 0)
(1.00856 0.0118238 0)
(1.00836 0.0114171 0)
(1.00945 0.00975555 0)
(1.01074 0.00925519 0)
(0.999661 0.00196238 0)
(1.00159 0.0039101 0)
(1.0026 0.00061261 0)
(0.99968 0.00774588 0)
(1.0052 0.0087122 0)
(1.0052 0.00147591 0)
(0.997615 0.0066532 0)
(1.00191 0.00949579 0)
(1.00481 0.00596939 0)
(0.998543 0.0113406 0)
(1.00163 0.01387 0)
(1.00821 0.0102176 0)
(1.00626 0.0116616 0)
(1.00453 0.0131718 0)
(1.00748 0.0110464 0)
(1.01009 0.0100665 0)
(1.0088 0.0114368 0)
(1.00815 0.0116157 0)
(1.00913 0.00999754 0)
(1.01072 0.00904316 0)
(0.999749 0.00177602 0)
(1.0014 0.00402871 0)
(1.00263 0.000731771 0)
(0.999944 0.00736723 0)
(1.00477 0.00864861 0)
(1.00504 0.00179141 0)
(0.998075 0.00657824 0)
(1.00185 0.00954623 0)
(1.00496 0.00615684 0)
(0.99919 0.010825 0)
(1.00155 0.0137198 0)
(1.00805 0.010222 0)
(1.00663 0.0110932 0)
(1.00453 0.0129737 0)
(1.00712 0.011279 0)
(1.01017 0.00989268 0)
(1.00913 0.0109398 0)
(1.00804 0.011692 0)
(1.00874 0.0103336 0)
(1.01059 0.00901653 0)
(0.999833 0.00158779 0)
(1.0012 0.00414203 0)
(1.00263 0.000878654 0)
(1.00022 0.00695037 0)
(1.00436 0.00858415 0)
(1.00487 0.00212452 0)
(0.998537 0.00645404 0)
(1.0018 0.00959268 0)
(1.00506 0.00635621 0)
(0.999843 0.0103088 0)
(1.00152 0.0134916 0)
(1.00783 0.0102837 0)
(1.00699 0.0106068 0)
(1.00464 0.0126092 0)
(1.00676 0.0114552 0)
(1.01013 0.00981642 0)
(1.00949 0.0103692 0)
(1.00809 0.0114773 0)
(1.00834 0.0105484 0)
(1.01032 0.00911395 0)
(0.999914 0.00141132 0)
(1.00101 0.00421652 0)
(1.0026 0.00106371 0)
(1.00049 0.00651291 0)
(1.00396 0.00852369 0)
(1.00466 0.00247633 0)
(0.999006 0.00630142 0)
(1.00178 0.00959969 0)
(1.00511 0.00656999 0)
(1.00049 0.00984611 0)
(1.00154 0.0131875 0)
(1.00758 0.0103458 0)
(1.0073 0.0101799 0)
(1.00482 0.0122148 0)
(1.00645 0.0115488 0)
(1.00999 0.00973728 0)
(1.00981 0.00980716 0)
(1.00825 0.0109426 0)
(1.00801 0.0105009 0)
(1.00997 0.00926085 0)
(0.999989 0.00124599 0)
(1.00082 0.00426311 0)
(1.00255 0.00127035 0)
(1.00076 0.00606058 0)
(1.0036 0.0084305 0)
(1.00444 0.00289 0)
(0.999456 0.00611318 0)
(1.00178 0.00957206 0)
(1.00513 0.00682779 0)
(1.00112 0.00937753 0)
(1.00161 0.0128329 0)
(1.0073 0.0104426 0)
(1.00759 0.00980452 0)
(1.0051 0.0117368 0)
(1.00615 0.0115503 0)
(1.00974 0.00973888 0)
(1.01005 0.00935272 0)
(1.00848 0.0104069 0)
(1.00784 0.0104 0)
(1.00965 0.00945702 0)
(1.00006 0.00108847 0)
(1.00063 0.00428241 0)
(1.00246 0.00150801 0)
(1.00103 0.00561163 0)
(1.00327 0.00829875 0)
(1.00418 0.00334165 0)
(0.999897 0.00592814 0)
(1.00182 0.0094779 0)
(1.0051 0.00708987 0)
(1.00172 0.00897741 0)
(1.00176 0.0124113 0)
(1.00701 0.0104924 0)
(1.00777 0.0095174 0)
(1.00542 0.0112576 0)
(1.00595 0.0114271 0)
(1.00943 0.00976743 0)
(1.01022 0.00906676 0)
(1.0088 0.0100191 0)
(1.00777 0.0103855 0)
(1.00931 0.00977115 0)
(1.00012 0.000954799 0)
(1.00046 0.00424979 0)
(1.00234 0.00176078 0)
(1.00128 0.00519191 0)
(1.00299 0.00810499 0)
(1.00391 0.00382926 0)
(1.0003 0.0057639 0)
(1.00189 0.00930676 0)
(1.00505 0.00734967 0)
(1.00227 0.0086562 0)
(1.00194 0.0119207 0)
(1.00671 0.0105029 0)
(1.00794 0.00931975 0)
(1.00577 0.0107514 0)
(1.00578 0.0112338 0)
(1.00909 0.00988059 0)
(1.01032 0.00882092 0)
(1.00917 0.00961401 0)
(1.00789 0.010205 0)
(1.00899 0.00988465 0)
(1.00018 0.000826853 0)
(1.0003 0.0041975 0)
(1.00219 0.00202612 0)
(1.00151 0.00480035 0)
(1.00275 0.0078414 0)
(1.00363 0.00432717 0)
(1.00066 0.00564027 0)
(1.00201 0.00908379 0)
(1.00497 0.00757334 0)
(1.00275 0.00838514 0)
(1.00218 0.0114398 0)
(1.00645 0.0104818 0)
(1.00799 0.00914333 0)
(1.00612 0.0102375 0)
(1.00576 0.0110145 0)
(1.00872 0.0100038 0)
(1.01029 0.00867109 0)
(1.00955 0.00917848 0)
(1.00805 0.00987807 0)
(1.00877 0.00984792 0)
(1.00023 0.000729664 0)
(1.00016 0.00408753 0)
(1.00201 0.00229564 0)
(1.00172 0.00445496 0)
(1.00257 0.00753516 0)
(1.00334 0.0047988 0)
(1.00096 0.00559789 0)
(1.00214 0.00877743 0)
(1.00488 0.00775027 0)
(1.00319 0.00819956 0)
(1.00244 0.0109621 0)
(1.00619 0.0103818 0)
(1.008 0.00899874 0)
(1.0065 0.00984069 0)
(1.0058 0.0107281 0)
(1.00835 0.010051 0)
(1.01016 0.00876011 0)
(1.00987 0.00887173 0)
(1.00836 0.00958942 0)
(1.00867 0.00991136 0)
(1.00027 0.000643031 0)
(1.00003 0.00395461 0)
(1.00182 0.0025615 0)
(1.0019 0.00416407 0)
(1.00244 0.00715312 0)
(1.00306 0.00522912 0)
(1.00121 0.00563018 0)
(1.00231 0.00846526 0)
(1.0048 0.00786881 0)
(1.00355 0.0080619 0)
(1.00273 0.0104978 0)
(1.00598 0.0102757 0)
(1.00794 0.00892702 0)
(1.00683 0.00942245 0)
(1.00593 0.0104189 0)
(1.00807 0.0100778 0)
(1.00995 0.00886197 0)
(1.0101 0.00867109 0)
(1.00873 0.00922659 0)
(1.00864 0.00976109 0)
(1.0003 0.000582167 0)
(0.999931 0.00378104 0)
(1.00161 0.00280905 0)
(1.00203 0.00394448 0)
(1.00237 0.00674466 0)
(1.00281 0.00558164 0)
(1.00138 0.0057397 0)
(1.00247 0.00814992 0)
(1.00473 0.00790252 0)
(1.00387 0.00797696 0)
(1.00301 0.0100834 0)
(1.00578 0.0100991 0)
(1.00783 0.00885606 0)
(1.00715 0.00912009 0)
(1.00614 0.0100944 0)
(1.00783 0.00998382 0)
(1.00967 0.00890713 0)
(1.0102 0.00855643 0)
(1.00909 0.00885583 0)
(1.00874 0.00945108 0)
(1.00033 0.000540637 0)
(0.999854 0.0035818 0)
(1.0014 0.00303228 0)
(1.00212 0.00379003 0)
(1.00234 0.00630847 0)
(1.00259 0.00582996 0)
(1.00151 0.00590196 0)
(1.00262 0.00788125 0)
(1.00467 0.00787374 0)
(1.00414 0.00790432 0)
(1.0033 0.0096881 0)
(1.00564 0.00990346 0)
(1.0077 0.00883618 0)
(1.0074 0.00884294 0)
(1.00636 0.00969802 0)
(1.00766 0.00982959 0)
(1.00941 0.00893939 0)
(1.01021 0.00848817 0)
(1.00937 0.0085388 0)
(1.0089 0.00908703 0)
(1.00035 0.000518181 0)
(0.9998 0.00336225 0)
(1.00119 0.00322126 0)
(1.00217 0.00370307 0)
(1.00234 0.00587974 0)
(1.00243 0.00598233 0)
(1.00159 0.00608683 0)
(1.00276 0.00765228 0)
(1.00463 0.00779806 0)
(1.00437 0.00782344 0)
(1.00358 0.00933207 0)
(1.00554 0.0096989 0)
(1.00752 0.00877321 0)
(1.00758 0.00859919 0)
(1.00663 0.00933815 0)
(1.00758 0.00963988 0)
(1.00913 0.00889185 0)
(1.01011 0.00838322 0)
(1.00957 0.00827472 0)
(1.00911 0.00876081 0)
(1.00036 0.000512665 0)
(0.999771 0.00313697 0)
(1.00099 0.00336718 0)
(1.00217 0.00367538 0)
(1.00236 0.00546437 0)
(1.00231 0.00601602 0)
(1.00164 0.0062704 0)
(1.00286 0.00750023 0)
(1.0046 0.00769652 0)
(1.00456 0.00772912 0)
(1.00384 0.00900374 0)
(1.00547 0.00944585 0)
(1.00734 0.00869542 0)
(1.00772 0.00842355 0)
(1.00688 0.00897105 0)
(1.00753 0.00935838 0)
(1.00887 0.00878804 0)
(1.00998 0.00833093 0)
(1.00972 0.0080884 0)
(1.00932 0.00846949 0)
(1.00037 0.000521642 0)
(0.999763 0.00291402 0)
(1.00081 0.00345521 0)
(1.00213 0.00369734 0)
(1.0024 0.00509269 0)
(1.00227 0.00595625 0)
(1.00168 0.00642126 0)
(1.00294 0.00738569 0)
(1.00457 0.0075803 0)
(1.00473 0.00763013 0)
(1.00409 0.00868774 0)
(1.00544 0.0091763 0)
(1.00716 0.00859943 0)
(1.00778 0.0082632 0)
(1.00711 0.00861289 0)
(1.00755 0.00906097 0)
(1.00866 0.00866895 0)
(1.0098 0.00827592 0)
(1.00977 0.00790179 0)
(1.00949 0.00815659 0)
(1.00037 0.000537953 0)
(0.999774 0.00270497 0)
(1.00066 0.00349332 0)
(1.00206 0.00374509 0)
(1.00243 0.00477674 0)
(1.00227 0.00581449 0)
(1.00172 0.00650991 0)
(1.00299 0.00731128 0)
(1.00453 0.00747796 0)
(1.00487 0.00750916 0)
(1.00432 0.00838568 0)
(1.00545 0.00890697 0)
(1.00699 0.00845997 0)
(1.00779 0.00810849 0)
(1.00732 0.00830246 0)
(1.00761 0.00875306 0)
(1.00849 0.00847569 0)
(1.00959 0.00817623 0)
(1.00974 0.00777148 0)
(1.00964 0.00789718 0)
(1.00037 0.000559339 0)
(0.9998 0.00251766 0)
(1.00054 0.00347275 0)
(1.00196 0.00380605 0)
(1.00245 0.00453815 0)
(1.00232 0.00562599 0)
(1.00178 0.00652927 0)
(1.00301 0.00724068 0)
(1.00449 0.00736243 0)
(1.00499 0.00738061 0)
(1.00454 0.00809929 0)
(1.00547 0.00862024 0)
(1.00684 0.00829329 0)
(1.00776 0.00796125 0)
(1.00748 0.00802 0)
(1.00769 0.00844224 0)
(1.00838 0.00825171 0)
(1.00941 0.00805076 0)
(1.00966 0.00767791 0)
(1.00972 0.00767672 0)
(1.00036 0.000582018 0)
(0.999836 0.00235379 0)
(1.00046 0.00340933 0)
(1.00185 0.00386054 0)
(1.00244 0.00438721 0)
(1.00241 0.00541532 0)
(1.00187 0.00645902 0)
(1.00303 0.00714965 0)
(1.00443 0.00724758 0)
(1.00507 0.00725193 0)
(1.00473 0.00782219 0)
(1.00551 0.00832128 0)
(1.0067 0.00810414 0)
(1.0077 0.00781156 0)
(1.00761 0.00774629 0)
(1.00778 0.00813724 0)
(1.0083 0.00801984 0)
(1.00925 0.0078682 0)
(1.00954 0.00754937 0)
(1.00971 0.00749533 0)
(1.00036 0.000603368 0)
(0.999877 0.00221513 0)
(1.0004 0.00331551 0)
(1.00174 0.00389301 0)
(1.00242 0.00429965 0)
(1.0025 0.00521364 0)
(1.00198 0.00632749 0)
(1.00305 0.00703536 0)
(1.00437 0.00711969 0)
(1.00513 0.00710217 0)
(1.0049 0.00755273 0)
(1.00557 0.00802414 0)
(1.00659 0.00787916 0)
(1.00761 0.00765359 0)
(1.00769 0.00749609 0)
(1.00788 0.00782532 0)
(1.00824 0.00778187 0)
(1.00912 0.00766403 0)
(1.00943 0.00738305 0)
(1.00964 0.00735804 0)
(1.00035 0.000620279 0)
(0.999921 0.00210497 0)
(1.00037 0.00319844 0)
(1.00164 0.00390039 0)
(1.00237 0.00424151 0)
(1.00259 0.00504117 0)
(1.00211 0.00614766 0)
(1.00307 0.00688067 0)
(1.0043 0.00697639 0)
(1.00517 0.00694277 0)
(1.00504 0.00728985 0)
(1.00563 0.00773581 0)
(1.0065 0.00763855 0)
(1.00751 0.00747938 0)
(1.00773 0.00727567 0)
(1.00797 0.00750807 0)
(1.00821 0.00751552 0)
(1.00898 0.00746434 0)
(1.00934 0.00716935 0)
(1.00953 0.00721276 0)
(1.00034 0.000631446 0)
(0.999964 0.00201887 0)
(1.00037 0.00306802 0)
(1.00156 0.003879 0)
(1.00232 0.00419277 0)
(1.00267 0.00489391 0)
(1.00224 0.00593882 0)
(1.00311 0.00669197 0)
(1.00423 0.00682496 0)
(1.00518 0.00678063 0)
(1.00517 0.00702683 0)
(1.0057 0.00744363 0)
(1.00643 0.00739168 0)
(1.00741 0.00727606 0)
(1.00772 0.00705876 0)
(1.00804 0.00721422 0)
(1.00822 0.00721178 0)
(1.00886 0.00726251 0)
(1.00925 0.00694099 0)
(1.00944 0.00702395 0)
(1.00032 0.000637158 0)
(1 0.00195333 0)
(1.00038 0.00292998 0)
(1.00149 0.00382567 0)
(1.00225 0.00414159 0)
(1.00274 0.00476522 0)
(1.00238 0.00572366 0)
(1.00316 0.00647539 0)
(1.00416 0.0066506 0)
(1.00517 0.00660932 0)
(1.00526 0.00677235 0)
(1.00577 0.00714233 0)
(1.00637 0.00712742 0)
(1.0073 0.00706195 0)
(1.00768 0.00683534 0)
(1.00807 0.0069596 0)
(1.00825 0.00690223 0)
(1.00876 0.0070326 0)
(1.00915 0.00673089 0)
(1.00937 0.00678497 0)
(1.00031 0.000635629 0)
(1.00004 0.00190233 0)
(1.0004 0.00279176 0)
(1.00143 0.00374212 0)
(1.00218 0.00408439 0)
(1.00279 0.00464463 0)
(1.00251 0.00550563 0)
(1.00322 0.00623873 0)
(1.0041 0.00645553 0)
(1.00514 0.00642786 0)
(1.00533 0.00652686 0)
(1.00583 0.00684692 0)
(1.00634 0.00684636 0)
(1.00721 0.00684024 0)
(1.00763 0.0066019 0)
(1.00807 0.00670669 0)
(1.00827 0.00660471 0)
(1.00869 0.00675692 0)
(1.00903 0.00652774 0)
(1.00931 0.00652604 0)
(1.0003 0.000629612 0)
(1.00007 0.00185874 0)
(1.00043 0.00265583 0)
(1.0014 0.00363399 0)
(1.00211 0.0040127 0)
(1.00282 0.00453066 0)
(1.00263 0.00528719 0)
(1.00329 0.00598698 0)
(1.00405 0.00624579 0)
(1.0051 0.00623528 0)
(1.00537 0.0062758 0)
(1.00589 0.00655516 0)
(1.00631 0.00655705 0)
(1.00711 0.00659633 0)
(1.00756 0.00637048 0)
(1.00804 0.00645025 0)
(1.00828 0.00632646 0)
(1.00865 0.00646542 0)
(1.00892 0.00630744 0)
(1.00924 0.00628285 0)
(1.0003 0.000617071 0)
(1.00009 0.0018201 0)
(1.00046 0.00252525 0)
(1.00138 0.00350591 0)
(1.00204 0.00392259 0)