/*--------------------------------*- C++ -*----------------------------------*\
| =========                 |                                                 |
| \\      /  F ield         | OpenFOAM: The Open Source CFD Toolbox           |
|  \\    /   O peration     | Version:  v1912                                 |
|   \\  /    A nd           | Website:  www.openfoam.com                      |
|    \\/     M anipulation  |                                                 |
\*---------------------------------------------------------------------------*/
FoamFile
{
    version     2.0;
    format      ascii;
    class       volScalarField;
    location    "0.2";
    object      p;
}
// * * * * * * * * * * * * * * * * * * * * * * * * * * * * * * * * * * * * * //

dimensions      [0 2 -2 0 0 0 0];


internalField   nonuniform List<scalar> 
9600
(
-1.22838e-10
0.00249431
0.00144842
0.00194321
0.00171586
0.0027807
0.00248101
0.00246979
0.00200374
0.00297445
0.00315363
0.0036688
0.00239236
0.00394443
0.00473505
0.00493233
0.00540171
0.00622142
0.00687174
0.00853532
7.49289e-07
0.00249351
0.00145206
0.00194048
0.00171689
0.00278184
0.00248282
0.00245885
0.00201314
0.00297954
0.00314568
0.00366304
0.00240541
0.00394219
0.00473667
0.00489582
0.00542102
0.00613531
0.00688618
0.00820463
2.0645e-06
0.00249242
0.00145652
0.00193613
0.00171964
0.0027849
0.00248043
0.00245395
0.00202357
0.00298036
0.00314545
0.0036516
0.00242216
0.00392967
0.00473518
0.00484768
0.00543705
0.00604542
0.00688413
0.00784319
4.17397e-06
0.00249109
0.00146156
0.00193155
0.00172429
0.00278967
0.00247314
0.00245501
0.00203485
0.00298009
0.0031517
0.00363153
0.00244312
0.00391089
0.00473344
0.00479059
0.00544954
0.00595953
0.00685708
0.00753155
7.41275e-06
0.00248941
0.00146779
0.00192673
0.00173081
0.0027945
0.00246081
0.00245996
0.0020475
0.00297853
0.00316223
0.00360686
0.00246828
0.00388893
0.00473207
0.00472725
0.00546718
0.00586584
0.00681269
0.00726836
1.18718e-05
0.00248728
0.00147538
0.00192146
0.00173898
0.00279829
0.00244454
0.00246678
0.00206156
0.00297569
0.00317543
0.00358074
0.00249557
0.00386526
0.00473093
0.00466278
0.00548367
0.00576804
0.00675592
0.00702955
1.7399e-05
0.00248459
0.00148418
0.00191577
0.00174853
0.00280113
0.00242582
0.00247387
0.0020773
0.00297165
0.00319024
0.00355434
0.00252351
0.00384097
0.00473054
0.00459751
0.00549498
0.00567242
0.00667983
0.00680851
2.37292e-05
0.00248123
0.00149402
0.00190985
0.00175927
0.0028036
0.00240588
0.00248037
0.00209517
0.00296634
0.00320594
0.00352789
0.0025516
0.00381646
0.00473057
0.00453161
0.00550034
0.00558018
0.00658008
0.0066059
3.06355e-05
0.00247759
0.00150474
0.00190384
0.001771
0.00280612
0.00238564
0.00248592
0.00211547
0.00295962
0.00322215
0.00350155
0.00257967
0.00379172
0.00473007
0.0044661
0.00549812
0.00549219
0.00645695
0.00642102
3.79907e-05
0.0024736
0.00151619
0.00189778
0.00178353
0.0028088
0.00236571
0.00249029
0.00213829
0.00295149
0.00323863
0.0034754
0.00260759
0.00376675
0.00472818
0.00440252
0.00548644
0.00540979
0.00631151
0.00625012
4.57429e-05
0.00246929
0.00152826
0.00189166
0.00179675
0.00281149
0.00234645
0.00249315
0.00216359
0.00294201
0.00325522
0.00344957
0.00263524
0.00374203
0.00472428
0.00434237
0.00546372
0.00533378
0.0061454
0.00608788
5.3892e-05
0.00246466
0.00154089
0.00188546
0.00181064
0.00281395
0.00232801
0.00249407
0.00219123
0.00293128
0.00327174
0.00342434
0.00266247
0.00371857
0.0047177
0.00428679
0.00542905
0.00526411
0.00596142
0.00592894
6.24731e-05
0.00245968
0.00155402
0.00187913
0.00182522
0.00281588
0.00231044
0.00249263
0.00222103
0.00291944
0.00328786
0.00340006
0.00268903
0.00369739
0.00470786
0.00423676
0.0053822
0.00519966
0.00576359
0.00576861
7.15355e-05
0.00245432
0.00156766
0.00187265
0.00184055
0.00281706
0.00229382
0.00248855
0.00225284
0.00290669
0.00330319
0.00337718
0.00271437
0.00367926
0.00469437
0.00419279
0.00532327
0.0051384
0.0055566
0.00560349
8.11364e-05
0.00244851
0.00158181
0.00186599
0.00185668
0.0028173
0.00227825
0.00248161
0.00228652
0.00289332
0.00331723
0.00335624
0.00273769
0.00366436
0.00467694
0.00415435
0.00525298
0.00507793
0.00534495
0.00543177
9.13408e-05
0.00244218
0.00159651
0.0018591
0.00187365
0.00281646
0.00226388
0.00247175
0.00232185
0.00287974
0.00332937
0.00333777
0.00275823
0.00365253
0.00465535
0.00412014
0.00517253
0.0050158
0.00513236
0.00525295
0.000102219
0.00243525
0.00161178
0.00185194
0.00189149
0.00281445
0.00225082
0.00245898
0.00235859
0.00286645
0.00333889
0.0033223
0.00277547
0.00364307
0.00462985
0.00408827
0.00508303
0.00494976
0.00492188
0.00506735
0.000113848
0.00242763
0.00162766
0.00184446
0.00191025
0.00281118
0.00223914
0.00244341
0.00239637
0.00285405
0.00334504
0.00331024
0.00278909
0.00363513
0.00460113
0.00405638
0.00498527
0.00487848
0.00471598
0.00487538
0.000126313
0.00241921
0.0016442
0.0018366
0.00192999
0.00280659
0.00222887
0.00242519
0.00243472
0.00284326
0.00334716
0.00330174
0.00279905
0.00362763
0.00457012
0.00402234
0.00487978
0.00480202
0.00451637
0.00467725
0.000139708
0.00240986
0.00166142
0.0018283
0.00195074
0.0028006
0.00221998
0.00240459
0.00247295
0.00283487
0.00334478
0.00329664
0.00280573
0.00361876
0.00453779
0.00398508
0.00476681
0.00472107
0.00432403
0.00447336
0.000154136
0.00239944
0.00167937
0.00181954
0.00197254
0.0027932
0.00221236
0.00238195
0.00251031
0.00282957
0.00333759
0.00329462
0.00280986
0.00360657
0.004505
0.00394441
0.00464616
0.0046362
0.00414008
0.00426467
0.000169712
0.00238781
0.00169805
0.00181028
0.00199538
0.00278446
0.00220583
0.00235775
0.00254596
0.00282791
0.0033255
0.00329512
0.00281249
0.00358913
0.0044718
0.00390081
0.00451748
0.00454765
0.00396626
0.00405209
0.000186558
0.00237481
0.00171747
0.00180053
0.00201921
0.00277449
0.00220007
0.00233264
0.00257911
0.00283015
0.00330881
0.00329712
0.00281496
0.0035654
0.00443744
0.00385568
0.00438065
0.00445504
0.00380509
0.0038365
0.000204808
0.00236028
0.00173765
0.00179027
0.002044
0.00276348
0.00219462
0.00230737
0.00260914
0.00283625
0.00328815
0.00329919
0.00281847
0.00353536
0.00440069
0.00381067
0.00423604
0.0043572
0.00365911
0.00361936
0.000224595
0.00234405
0.00175853
0.00177956
0.0020696
0.0027517
0.00218899
0.0022826
0.00263553
0.00284591
0.00326448
0.00329992
0.00282362
0.00349855
0.00436013
0.00376705
0.00408484
0.00425246
0.00352995
0.0034033
0.000246058
0.00232599
0.00178005
0.00176849
0.00209574
0.0027396
0.00218266
0.00225883
0.00265805
0.00285843
0.003239
0.00329805
0.00283047
0.00345602
0.0043144
0.00372535
0.00392918
0.0041392
0.00341833
0.00319243
0.000269346
0.00230593
0.00180212
0.0017572
0.00212209
0.00272785
0.00217506
0.00223633
0.00267685
0.00287278
0.00321286
0.00329279
0.00283859
0.00340933
0.00426249
0.00368533
0.00377166
0.00401629
0.00332378
0.00299182
0.000294616
0.00228374
0.0018246
0.0017459
0.0021482
0.00271705
0.00216574
0.00221524
0.00269242
0.00288777
0.00318688
0.0032837
0.00284706
0.00335996
0.00420389
0.00364666
0.00361478
0.00388281
0.00324463
0.00280738
0.000322027
0.00225933
0.00184723
0.00173487
0.00217354
0.00270768
0.00215451
0.00219546
0.00270551
0.00290237
0.00316128
0.00327078
0.00285487
0.00330833
0.00413849
0.00360922
0.00346105
0.00373811
0.00317787
0.00264573
0.000351726
0.00223264
0.0018697
0.00172445
0.00219761
0.00270028
0.00214135
0.00217645
0.00271692
0.00291595
0.00313595
0.00325439
0.00286125
0.0032541
0.00406613
0.00357299
0.00331335
0.00358229
0.00311871
0.00251283
0.00038384
0.00220366
0.00189162
0.00171502
0.00221999
0.00269532
0.00212649
0.0021573
0.00272735
0.00292822
0.00311044
0.00323481
0.00286565
0.00319758
0.00398666
0.0035375
0.00317471
0.00341681
0.00306086
0.00241218
0.000418497
0.00217247
0.00191259
0.00170696
0.00224032
0.00269295
0.00211054
0.00213699
0.00273708
0.00293939
0.00308402
0.00321211
0.00286783
0.00313911
0.00390015
0.00350168
0.00304758
0.00324482
0.00299797
0.00234359
0.000455812
0.0021392
0.00193253
0.00170058
0.00225827
0.00269312
0.00209447
0.0021147
0.00274582
0.00295015
0.00305602
0.00318606
0.00286802
0.00307868
0.00380679
0.00346427
0.0029336
0.00307083
0.00292548
0.00230321
0.000495867
0.0021041
0.00194995
0.00169603
0.0022738
0.0026958
0.00207914
0.0020897
0.00275291
0.00296145
0.00302619
0.00315588
0.00286645
0.00301669
0.00370674
0.00342395
0.00283326
0.00289907
0.00284134
0.00228499
0.000538693
0.00206755
0.00196435
0.00169341
0.00228705
0.00270078
0.0020654
0.0020616
0.00275732
0.00297403
0.00299478
0.0031205
0.0028628
0.00295523
0.00360063
0.00337898
0.00274647
0.00273332
0.00274476
0.00228178
0.000584277
0.00203005
0.00197513
0.00169266
0.00229817
0.00270755
0.00205412
0.00203062
0.00275777
0.00298804
0.00296268
0.00307907
0.0028561
0.00289687
0.00348991
0.00332729
0.00267239
0.00257788
0.00263602
0.00228468
0.000632531
0.00199221
0.00198183
0.00169347
0.0023075
0.00271563
0.00204566
0.00199749
0.00275303
0.00300296
0.00293133
0.00303137
0.00284494
0.0028419
0.00337746
0.0032685
0.00260854
0.00243629
0.00251749
0.00228309
0.000683266
0.00195473
0.00198388
0.00169534
0.00231546
0.00272472
0.00204006
0.0019631
0.00274228
0.00301773
0.0029021
0.00297785
0.00282805
0.0027893
0.00326591
0.00320435
0.00255169
0.00230943
0.00239432
0.00226765
0.000736174
0.00191837
0.00198108
0.00169768
0.00232237
0.00273473
0.00203713
0.00192835
0.0027253
0.00303074
0.00287579
0.00291965
0.00280487
0.00273825
0.00315589
0.00313704
0.00250055
0.00219551
0.00227229
0.00223406
0.000790807
0.00188396
0.0019735
0.00169965
0.00232848
0.00274568
0.0020366
0.00189386
0.00270238
0.00304006
0.00285251
0.00285867
0.00277493
0.00268759
0.0030473
0.00306791
0.00245695
0.00209255
0.00215411
0.00218346
0.000846601
0.00185233
0.00196152
0.00170029
0.00233369
0.00275779
0.00203816
0.00185959
0.00267446
0.00304468
0.00283142
0.00279683
0.00271579
0.00263655
0.00293949
0.00299549
0.00242332
0.00200203
0.00203923
0.00211946
0.000902897
0.00182423
0.0019459
0.00169859
0.00233768
0.00277143
0.00204174
0.00182495
0.00264272
0.00304483
0.00281056
0.00273592
0.0026725
0.00258583
0.00283207
0.00291772
0.00239954
0.00192833
0.00192807
0.00204448
0.000959021
0.00180025
0.00192768
0.00169376
0.00233992
0.00278686
0.00204773
0.00178911
0.00260767
0.00304126
0.00278795
0.00267563
0.00263007
0.00253582
0.0027252
0.00283253
0.00238191
0.00187658
0.0018257
0.00195992
0.00101428
0.00178077
0.0019081
0.00168523
0.00233946
0.00280424
0.00205687
0.00175123
0.00256873
0.00303548
0.00276327
0.00261346
0.00258859
0.00249102
0.00262079
0.00273762
0.00236502
0.00184781
0.00173951
0.00187286
0.00106805
0.00176596
0.00188849
0.00167271
0.00233511
0.00282345
0.00207034
0.00171099
0.00252439
0.0030294
0.0027378
0.00254618
0.00254644
0.00245712
0.00252215
0.00263101
0.00234229
0.00183843
0.00167567
0.00179431
0.00111979
0.00175574
0.00187023
0.00165613
0.00232546
0.00284418
0.00208949
0.0016687
0.00247262
0.00302384
0.00271421
0.00247189
0.00250025
0.00243583
0.00243644
0.00251408
0.00230571
0.00184423
0.00163418
0.00173456
0.001169
0.00174977
0.00185478
0.00163594
0.00230901
0.00286572
0.00211566
0.00162512
0.00241101
0.00301808
0.0026969
0.00239113
0.00244276
0.00242426
0.00237385
0.00239336
0.00224593
0.00185749
0.00161299
0.0016956
0.00121529
0.00174752
0.00184338
0.00161305
0.00228441
0.00288692
0.00215005
0.00158166
0.0023376
0.00301012
0.00269028
0.00230722
0.00236782
0.00241736
0.00234055
0.00228011
0.00215828
0.00186473
0.00161237
0.00167096
0.00125841
0.00174829
0.00183703
0.00158868
0.00225065
0.00290588
0.0021935
0.00154077
0.00225153
0.00299607
0.0026967
0.0022269
0.00227275
0.00240454
0.00233501
0.00219141
0.0020493
0.00184718
0.00162861
0.00165809
0.0012983
0.00175122
0.0018362
0.00156464
0.00220718
0.00291996
0.00224622
0.00150594
0.00215299
0.00297095
0.00271641
0.00215909
0.0021595
0.00237229
0.00235086
0.00214184
0.0019343
0.00179008
0.00164682
0.00166031
0.00133503
0.0017554
0.00184121
0.00154296
0.00215374
0.00292605
0.00230767
0.00148151
0.00204309
0.00292972
0.00274747
0.00211196
0.0020323
0.00231084
0.00237588
0.00213446
0.00183809
0.00169806
0.00164094
0.00167638
0.00136883
0.00175992
0.00185176
0.00152568
0.00209099
0.00292075
0.0023763
0.00147214
0.00192421
0.00286882
0.0027891
0.00209155
0.00190118
0.00221631
0.00239281
0.00216283
0.0017821
0.00159095
0.00159068
0.00168753
0.00140011
0.00176385
0.00186688
0.00151495
0.00202061
0.00290078
0.0024492
0.00148186
0.00180085
0.00278105
0.00282772
0.00210322
0.00178138
0.00209118
0.00238579
0.00221695
0.00177294
0.00149771
0.00150325
0.00166319
0.00142939
0.00176639
0.00188505
0.00151277
0.00194509
0.00286317
0.00252243
0.00151383
0.00167945
0.00266586
0.00285712
0.00214543
0.00168767
0.00194322
0.00234154
0.00228023
0.00180756
0.0014399
0.00140227
0.00158713
0.00145725
0.00176694
0.00190434
0.00152068
0.0018677
0.00280566
0.00259113
0.00156985
0.00156755
0.00252468
0.00286747
0.00221289
0.00163063
0.00178626
0.00225284
0.00233297
0.00188107
0.0014232
0.00131753
0.00147799
0.00148424
0.00176516
0.00192266
0.00153942
0.00179262
0.00272758
0.00264968
0.00164866
0.00147327
0.0023614
0.00284989
0.00229526
0.00161588
0.00163919
0.00212378
0.00235418
0.00198223
0.00144832
0.00126306
0.0013672
0.00151086
0.00176109
0.00193777
0.00156903
0.00172455
0.00262967
0.00269258
0.00174605
0.00140413
0.0021845
0.00279731
0.00237944
0.00164335
0.00151966
0.00196661
0.00232587
0.00209024
0.0015184
0.00123856
0.00128422
0.00153739
0.00175508
0.00194787
0.00160805
0.0016667
0.00251472
0.00271438
0.0018544
0.00136662
0.00200557
0.00270615
0.00245155
0.00170931
0.00144
0.00180085
0.00224271
0.0021766
0.00163079
0.00124647
0.00123272
0.00156387
0.00174794
0.00195164
0.00165336
0.00162234
0.00238867
0.00271016
0.00196614
0.00136534
0.00183806
0.00257829
0.00249832
0.00180343
0.0014065
0.0016489
0.00211584
0.00221455
0.00176698
0.00129607
0.00120549
0.00159017
0.00174063
0.00194839
0.00170107
0.00159438
0.00225938
0.0026772
0.00207137
0.00140115
0.00169431
0.00242013
0.00250922
0.00190922
0.00141908
0.00152754
0.00196414
0.00219082
0.00189425
0.00139169
0.0012033
0.00161591
0.00173421
0.0019381
0.00174682
0.00158405
0.00213483
0.00261497
0.0021604
0.00146833
0.0015831
0.00224507
0.00247827
0.00200883
0.00147346
0.00144678
0.00181233
0.00211318
0.00197975
0.00151999
0.00123626
0.00164052
0.00172947
0.00192134
0.00178705
0.00159084
0.00202182
0.00252641
0.00222462
0.00155833
0.00151157
0.00207078
0.00240648
0.00208604
0.00155791
0.00141068
0.00168071
0.00200048
0.0020062
0.00164997
0.00131018
0.00166342
0.00172685
0.00189991
0.00181923
0.00161113
0.00192532
0.00241888
0.00225909
0.00165707
0.00148119
0.00191397
0.00230026
0.00212882
0.00165473
0.00141716
0.00158096
0.00187703
0.00197849
0.00174975
0.00141426
0.00168402
0.00172653
0.00187599
0.00184124
0.00164018
0.00184861
0.00230189
0.00226308
0.0017515
0.00148898
0.00178636
0.00217296
0.00213261
0.00174563
0.0014592
0.00151873
0.00176379
0.00191422
0.00180255
0.00152289
0.00170189
0.00172831
0.00185189
0.00185251
0.00167359
0.00179305
0.00218526
0.00223805
0.00183086
0.00152534
0.00169399
0.00204171
0.00210061
0.00181594
0.00152281
0.00149369
0.00167281
0.00183435
0.00181071
0.00161064
0.00171678
0.00173176
0.0018294
0.00185377
0.00170592
0.00175762
0.00207738
0.00218896
0.00188804
0.00157793
0.00163724
0.00192174
0.00204077
0.00185724
0.00159167
0.00150077
0.00161018
0.00175679
0.00178752
0.00166499
0.00172865
0.00173613
0.0018096
0.00184685
0.00173325
0.00173841
0.00198382
0.00212372
0.0019204
0.00163475
0.00161282
0.00182325
0.00196562
0.00186885
0.00165225
0.00152993
0.00157622
0.00169227
0.00174828
0.00168727
0.00173763
0.00174076
0.00179302
0.0018343
0.00175308
0.00173088
0.0019075
0.00205115
0.00192917
0.00168614
0.00161282
0.00175039
0.00188829
0.001856
0.0016959
0.0015686
0.00156658
0.00164595
0.00170634
0.00168667
0.00174392
0.00174451
0.00177964
0.00181857
0.00176467
0.00172995
0.00184837
0.00197907
0.00191799
0.0017256
0.00162726
0.00170206
0.00181856
0.00182662
0.00171981
0.00160608
0.00157422
0.00161832
0.00167014
0.00167355
0.00174781
0.00174716
0.00176897
0.00180173
0.00176857
0.00173145
0.00180472
0.00191307
0.00189257
0.00175026
0.00164729
0.00167455
0.00176188
0.00178975
0.00172631
0.00163549
0.00159054
0.00160634
0.00164358
0.00165655
0.00174965
0.00174842
0.00176036
0.00178518
0.00176614
0.00173244
0.00177342
0.0018563
0.00185917
0.00176054
0.00166639
0.00166215
0.00171963
0.00175263
0.0017203
0.00165415
0.00160828
0.00160537
0.00162715
0.00164113
0.00174976
0.00174817
0.00175307
0.00176971
0.0017591
0.00173127
0.00175082
0.00180962
0.00182313
0.00175883
0.00168038
0.00165855
0.00169035
0.0017197
0.00170694
0.00166262
0.00162286
0.00161013
0.0016192
0.00162975
0.00174843
0.00174647
0.00174648
0.00175565
0.00174914
0.00172729
0.00173368
0.00177226
0.0017882
0.00174842
0.00168745
0.00165852
0.0016713
0.0016928
0.00169051
0.00166318
0.00163231
0.00161638
0.00161695
0.00162282
0.00174592
0.00174347
0.00174013
0.00174298
0.00173763
0.00172064
0.00171955
0.00174263
0.00175647
0.00173274
0.00168773
0.00165853
0.00165899
0.00167193
0.00167389
0.00165836
0.00163639
0.00162134
0.00161736
0.00161928
0.00174247
0.00173941
0.00173368
0.00173149
0.00172553
0.00171186
0.00170682
0.00171888
0.0017287
0.00171454
0.00168241
0.00165649
0.00165017
0.00165601
0.00165855
0.00165033
0.0016358
0.00162355
0.00161799
0.00161741
0.0017383
0.00173452
0.001727
0.00172091
0.00171344
0.00170161
0.0016946
0.00169918
0.00170465
0.00169572
0.00167307
0.00165159
0.00164235
0.0016432
0.00164472
0.0016405
0.00163144
0.00162247
0.00161717
0.0016155
0.00173363
0.00172907
0.00172008
0.00171097
0.00170163
0.00169046
0.0016824
0.00168201
0.00168355
0.00167704
0.00166099
0.00164396
0.00163413
0.00163188
0.0016319
0.00162949
0.00162405
0.00161805
0.00161395
0.00161223
0.00172871
0.00172331
0.00171305
0.00170155
0.00169028
0.001679
0.0016702
0.0016664
0.00166462
0.00165868
0.00164675
0.00163339
0.00162411
0.00162015
0.00161881
0.00161695
0.00161357
0.00160972
0.00160687
0.00160552
0.00172391
0.00171806
0.00170695
0.00169384
0.00168103
0.00166934
0.00166002
0.00165417
0.00165003
0.00164397
0.00163455
0.00162402
0.00161576
0.00161102
0.00160864
0.00160681
0.00160469
0.0016026
0.00160114
0.00160055
0.00171719
0.00170918
0.00169588
0.00168026
0.00166498
0.00165145
0.00164033
0.00163185
0.00162481
0.00161715
0.00160802
0.00159863
0.00159088
0.00158558
0.0015822
0.00157977
0.00157781
0.00157638
0.00157567
0.00157563
0.0107201
0.00739508
0.000434733
-0.00534779
-0.00706895
-0.00591641
-0.00447509
-0.00364836
-0.0033383
-0.00324443
-0.00296539
-0.00255813
-0.00227397
-0.00201478
-0.00187206
-0.00185053
-0.0016352
-0.00136054
-0.0012522
-0.00115707
-0.00103654
-0.000917187
-0.00074837
-0.000622031
-0.000568921
-0.000459554
-0.000289584
-0.000159284
-5.02894e-05
0.000126826
0.00035472
0.000554835
0.000741328
0.000958797
0.00117843
0.00138313
0.00160229
0.00182925
0.00204172
0.00225693
0.00248662
0.00271202
0.00292795
0.00314842
0.00337509
0.00359921
0.00382012
0.00404235
0.00426649
0.00449111
0.00471643
0.00494339
0.00517224
0.00540293
0.00563558
0.00587033
0.00610723
0.00634633
0.00658778
0.00683176
0.00707858
0.00732846
0.00758174
0.0078386
0.00809937
0.0083641
0.00863319
0.00890649
0.00918462
0.00946705
0.00975485
0.0100469
0.010345
0.0106472
0.010956
0.0112689
0.0115889
0.0119132
0.0122444
0.0125812
0.0129235
0.0132739
0.0136274
0.0139919
0.0143577
0.0147354
0.0151162
0.0155052
0.015904
0.0163037
0.0167205
0.0171352
0.0175656
0.0180031
0.018444
0.018909
0.0193717
0.0198532
0.0204081
0.020953
0.0101312
0.00728597
0.000528179
-0.00521048
-0.00697651
-0.00586732
-0.00444473
-0.00362827
-0.00332399
-0.00323392
-0.00295702
-0.00255063
-0.00226752
-0.00200892
-0.00186658
-0.00184622
-0.00163146
-0.00135673
-0.00124885
-0.00115416
-0.00103386
-0.000914887
-0.000746255
-0.000619997
-0.000567228
-0.000458172
-0.000288304
-0.00015814
-4.94033e-05
0.000127517
0.000355356
0.000555397
0.000741749
0.000959135
0.00117873
0.00138336
0.00160246
0.00182942
0.00204185
0.00225702
0.00248669
0.00271208
0.00292799
0.00314845
0.00337511
0.00359923
0.00382013
0.00404235
0.0042665
0.00449111
0.00471643
0.00494339
0.00517224
0.00540293
0.00563558
0.00587032
0.00610722
0.00634633
0.00658778
0.00683176
0.00707858
0.00732846
0.00758174
0.0078386
0.00809937
0.0083641
0.00863319
0.00890649
0.00918462
0.00946705
0.00975485
0.0100469
0.010345
0.0106472
0.010956
0.0112689
0.0115889
0.0119132
0.0122444
0.0125812
0.0129235
0.0132739
0.0136274
0.0139919
0.0143577
0.0147354
0.0151162
0.0155052
0.015904
0.0163037
0.0167205
0.0171352
0.0175656
0.0180031
0.018444
0.018909
0.0193717
0.0198532
0.0204081
0.0209531
0.00961246
0.00722801
0.000741251
-0.0049458
-0.00682555
-0.00580913
-0.00441685
-0.00360747
-0.00330703
-0.00322034
-0.00294606
-0.00254181
-0.00226077
-0.00200319
-0.00186138
-0.00184202
-0.00162769
-0.00135311
-0.00124585
-0.00115149
-0.00103133
-0.000912714
-0.000744238
-0.0006181
-0.000565664
-0.000456813
-0.000287006
-0.000157026
-4.85559e-05
0.000128225
0.000356035
0.000555977
0.000742184
0.000959507
0.00117906
0.0013836
0.00160265
0.0018296
0.00204199
0.00225711
0.00248677
0.00271216
0.00292804
0.00314849
0.00337515
0.00359925
0.00382015
0.00404236
0.0042665
0.00449112
0.00471643
0.00494339
0.00517224
0.00540293
0.00563558
0.00587032
0.00610722
0.00634633
0.00658778
0.00683176
0.00707858
0.00732846
0.00758174
0.0078386
0.00809937
0.0083641
0.00863319
0.00890649
0.00918462
0.00946705
0.00975485
0.0100469
0.010345
0.0106472
0.010956
0.0112689
0.0115889
0.0119132
0.0122444
0.0125812
0.0129235
0.0132739
0.0136274
0.0139919
0.0143577
0.0147354
0.0151162
0.0155052
0.015904
0.0163037
0.0167205
0.0171352
0.0175656
0.0180031
0.018444
0.018909
0.0193717
0.0198532
0.0204081
0.0209533
0.00912432
0.00715644
0.000978808
-0.00463608
-0.00663084
-0.00573038
-0.00437634
-0.00357608
-0.00328069
-0.00319835
-0.00292851
-0.00252885
-0.00225159
-0.00199589
-0.00185449
-0.00183558
-0.00162209
-0.00134858
-0.00124217
-0.00114786
-0.0010277
-0.000909568
-0.000741463
-0.000615505
-0.000563289
-0.000454621
-0.000285006
-0.000155307
-4.71129e-05
0.000129483
0.000357163
0.000556929
0.000742955
0.000960174
0.00117962
0.00138402
0.001603
0.00182991
0.00204225
0.00225731
0.00248693
0.00271229
0.00292814
0.00314857
0.00337521
0.00359931
0.00382019
0.00404239
0.00426653
0.00449113
0.00471644
0.0049434
0.00517224
0.00540293
0.00563558
0.00587032
0.00610722
0.00634633
0.00658778
0.00683176
0.00707858
0.00732846
0.00758174
0.0078386
0.00809937
0.0083641
0.00863319
0.00890649
0.00918462
0.00946705
0.00975485
0.0100469
0.010345
0.0106472
0.010956
0.0112689
0.0115889
0.0119132
0.0122444
0.0125812
0.0129235
0.0132739
0.0136274
0.0139919
0.0143577
0.0147354
0.0151162
0.0155052
0.015904
0.0163037
0.0167205
0.0171352
0.0175656
0.0180031
0.018444
0.018909
0.0193717
0.0198532
0.020408
0.0209536
0.00862834
0.00704269
0.0012149
-0.00431097
-0.00641831
-0.00564174
-0.00433035
-0.00353818
-0.00324607
-0.00316719
-0.00290302
-0.00251038
-0.00223898
-0.00198666
-0.00184547
-0.00182582
-0.00161359
-0.00134257
-0.00123746
-0.00114291
-0.00102244
-0.000904862
-0.000737535
-0.000611783
-0.00055942
-0.000450899
-0.000281767
-0.000152454
-4.44891e-05
0.000131811
0.000359146
0.000558624
0.000744422
0.000961435
0.00118065
0.00138483
0.00160366
0.00183048
0.00204274
0.00225771
0.00248725
0.00271253
0.00292834
0.00314874
0.00337535
0.00359941
0.00382027
0.00404246
0.00426657
0.00449117
0.00471647
0.00494341
0.00517225
0.00540294
0.00563558
0.00587033
0.00610723
0.00634633
0.00658778
0.00683176
0.00707858
0.00732846
0.00758174
0.0078386
0.00809937
0.0083641
0.0086332
0.00890649
0.00918462
0.00946705
0.00975485
0.0100469
0.010345
0.0106472
0.010956
0.0112689
0.0115889
0.0119132
0.0122444
0.0125812
0.0129235
0.0132739
0.0136274
0.0139919
0.0143577
0.0147354
0.0151162
0.0155052
0.015904
0.0163037
0.0167205
0.0171352
0.0175656
0.0180031
0.018444
0.018909
0.0193717
0.0198532
0.0204079
0.0209539
0.00812199
0.0068941
0.00145212
-0.00397398
-0.00619435
-0.00554823
-0.00428412
-0.00349901
-0.00320743
-0.00313013
-0.00287171
-0.00248746
-0.00222344
-0.00197591
-0.00183462
-0.00181281
-0.00160208
-0.00133474
-0.00123142
-0.00113652
-0.0010154
-0.00089837
-0.000732357
-0.000606829
-0.000553718
-0.000445209
-0.000276906
-0.00014806
-4.02239e-05
0.000135606
0.000362297
0.000561388
0.000746925
0.000963588
0.00118243
0.00138628
0.00160484
0.00183148
0.00204362
0.00225846
0.00248783
0.00271297
0.00292872
0.00314908
0.00337562
0.00359961
0.00382043
0.00404259
0.00426668
0.00449124
0.00471652
0.00494345
0.00517228
0.00540295
0.00563559
0.00587033
0.00610723
0.00634633
0.00658778
0.00683176
0.00707858
0.00732846
0.00758174
0.0078386
0.00809937
0.0083641
0.0086332
0.00890649
0.00918462
0.00946705
0.00975485
0.0100469
0.010345
0.0106472
0.010956
0.0112689
0.0115889
0.0119132
0.0122444
0.0125812
0.0129235
0.0132739
0.0136274
0.0139919
0.0143577
0.0147354
0.0151162
0.0155052
0.015904
0.0163037
0.0167205
0.0171352
0.0175656
0.0180031
0.018444
0.018909
0.0193717
0.0198531
0.0204078
0.0209542
0.00761959
0.00671952
0.0016905
-0.00362859
-0.00596107
-0.00545064
-0.00423837
-0.00345971
-0.00316655
-0.00308964
-0.00283687
-0.00246165
-0.00220592
-0.00196416
-0.00182267
-0.0017977
-0.00158832
-0.00132521
-0.00122393
-0.00112876
-0.00100676
-0.000890262
-0.000726057
-0.000600761
-0.000546254
-0.000437552
-0.000270338
-0.000141927
-3.40574e-05
0.000141069
0.000366743
0.000565351
0.000750635
0.000966806
0.0011851
0.00138852
0.00160668
0.00183303
0.00204502
0.00225968
0.00248877
0.0027137
0.00292936
0.00314964
0.00337607
0.00359996
0.00382072
0.00404283
0.00426687
0.00449139
0.00471663
0.00494353
0.00517234
0.00540299
0.00563562
0.00587035
0.00610724
0.00634634
0.00658778
0.00683177
0.00707858
0.00732846
0.00758174
0.0078386
0.00809937
0.0083641
0.0086332
0.00890649
0.00918462
0.00946705
0.00975485
0.0100469
0.010345
0.0106472
0.010956
0.0112689
0.0115889
0.0119132
0.0122444
0.0125812
0.0129235
0.0132739
0.0136274
0.0139919
0.0143577
0.0147354
0.0151162
0.0155052
0.015904
0.0163037
0.0167205
0.0171352
0.0175656
0.018003
0.018444
0.018909
0.0193717
0.0198531
0.0204076
0.0209546
0.00713224
0.00651931
0.00192211
-0.00327897
-0.00571856
-0.00534761
-0.00419226
-0.00342027
-0.00312394
-0.00304677
-0.00279966
-0.00243381
-0.00218688
-0.00195153
-0.00181005
-0.00178151
-0.00157327
-0.00131438
-0.00121518
-0.00111984
-0.000996919
-0.000880955
-0.000718903
-0.000593855
-0.000537484
-0.000428404
-0.000262387
-0.00013423
-2.60722e-05
0.000148147
0.0003724
0.000570414
0.000755478
0.00097107
0.0011887
0.00139159
0.00160922
0.00183516
0.00204699
0.00226143
0.00249013
0.00271475
0.00293029
0.00315046
0.00337673
0.00360048
0.00382115
0.0040432
0.00426717
0.00449163
0.00471682
0.00494368
0.00517244
0.00540307
0.00563567
0.00587038
0.00610726
0.00634634
0.00658778
0.00683177
0.00707858
0.00732846
0.00758174
0.0078386
0.00809937
0.0083641
0.0086332
0.00890649
0.00918462
0.00946705
0.00975485
0.0100469
0.010345
0.0106472
0.010956
0.0112689
0.0115889
0.0119132
0.0122444
0.0125812
0.0129235
0.0132739
0.0136274
0.0139919
0.0143577
0.0147354
0.0151162
0.0155052
0.015904
0.0163037
0.0167205
0.0171352
0.0175656
0.018003
0.018444
0.018909
0.0193717
0.019853
0.0204074
0.020955
0.00666695
0.00629136
0.00213955
-0.00292656
-0.00546462
-0.00523688
-0.0041449
-0.00338097
-0.00308009
-0.00300187
-0.00276046
-0.00240429
-0.00216649
-0.001938
-0.00179687
-0.00176466
-0.00155737
-0.00130268
-0.00120549
-0.00111003
-0.0009862
-0.000870797
-0.000711101
-0.000586352
-0.000527882
-0.000418331
-0.000253559
-0.000125426
-1.66516e-05
0.000156583
0.000379068
0.000576323
0.000761176
0.00097616
0.00119308
0.0013954
0.00161239
0.00183783
0.00204947
0.00226367
0.00249189
0.00271613
0.00293151
0.00315156
0.00337761
0.00360117
0.00382174
0.00404371
0.00426759
0.00449196
0.00471709
0.00494389
0.00517261
0.00540319
0.00563575
0.00587043
0.00610729
0.00634636
0.00658779
0.00683177
0.00707858
0.00732846
0.00758174
0.0078386
0.00809937
0.0083641
0.0086332
0.00890649
0.00918462
0.00946705
0.00975485
0.0100469
0.010345
0.0106472
0.010956
0.0112689
0.0115889
0.0119132
0.0122444
0.0125812
0.0129235
0.0132739
0.0136274
0.0139919
0.0143577
0.0147354
0.0151162
0.0155052
0.015904
0.0163037
0.0167205
0.0171352
0.0175656
0.018003
0.018444
0.0189089
0.0193716
0.0198529
0.0204071
0.0209553
0.00622884
0.00603683
0.00233824
-0.00257158
-0.00519753
-0.0051169
-0.00409586
-0.00334244
-0.00303559
-0.00295514
-0.00271941
-0.00237321
-0.00214482
-0.00192356
-0.00178307
-0.00174714
-0.00154072
-0.00129028
-0.00119517
-0.00109959
-0.000974827
-0.000859973
-0.000702758
-0.000578392
-0.000517724
-0.000407665
-0.0002442
-0.000115949
-6.26215e-06
0.000166043
0.000386533
0.000582845
0.000767445
0.000981815
0.00119803
0.00139977
0.00161604
0.00184091
0.00205236
0.00226631
0.00249399
0.00271779
0.002933
0.00315288
0.00337868
0.00360203
0.00382247
0.00404434
0.00426811
0.00449239
0.00471744
0.00494418
0.00517283
0.00540335
0.00563587
0.00587051
0.00610734
0.00634639
0.00658781
0.00683178
0.00707858
0.00732846
0.00758174
0.0078386
0.00809937
0.0083641
0.0086332
0.00890649
0.00918462
0.00946705
0.00975485
0.0100469
0.010345
0.0106472
0.010956
0.0112689
0.0115889
0.0119132
0.0122444
0.0125812
0.0129235
0.0132739
0.0136274
0.0139919
0.0143577
0.0147354
0.0151162
0.0155052
0.015904
0.0163037
0.0167205
0.0171352
0.0175656
0.018003
0.018444
0.0189089
0.0193716
0.0198528
0.0204068
0.0209557
0.00582289
0.00576098
0.00251444
-0.00221571
-0.00491709
-0.00498655
-0.00404466
-0.0033052
-0.00299114
-0.00290678
-0.00267643
-0.0023405
-0.00212184
-0.00190812
-0.00176851
-0.00172883
-0.00152326
-0.00127726
-0.00118437
-0.00108868
-0.000962914
-0.000848552
-0.000693923
-0.000570048
-0.000507118
-0.000396497
-0.000234414
-0.000106033
4.74182e-06
0.000176215
0.000394607
0.000589834
0.000774116
0.000987854
0.00120337
0.00140453
0.00162004
0.00184429
0.00205554
0.00226923
0.00249634
0.00271967
0.00293469
0.00315439
0.00337991
0.00360301
0.0038233
0.00404507
0.00426873
0.0044929
0.00471786
0.00494452
0.0051731
0.00540356
0.00563602
0.00587062
0.00610741
0.00634643
0.00658783