/*--------------------------------*- C++ -*----------------------------------*\
| =========                 |                                                 |
| \\      /  F ield         | OpenFOAM: The Open Source CFD Toolbox           |
|  \\    /   O peration     | Version:  v1912                                 |
|   \\  /    A nd           | Website:  www.openfoam.com                      |
|    \\/     M anipulation  |                                                 |
\*---------------------------------------------------------------------------*/
FoamFile
{
    version     2.0;
    format      ascii;
    class       surfaceScalarField;
    location    "0.2";
    object      phi;
}
// * * * * * * * * * * * * * * * * * * * * * * * * * * * * * * * * * * * * * //

dimensions      [0 3 -1 0 0 0 0];
oriented        oriented;


internalField   nonuniform List<scalar> 
19000
(
1.17468e-06
-4.58671e-07
1.17281e-06
4.92391e-08
1.18855e-06
-1.60267e-07
1.17418e-06
3.16459e-07
1.17971e-06
1.24087e-07
1.17933e-06
8.50254e-07
1.18443e-06
9.7092e-08
1.15008e-06
-3.851e-07
1.19449e-06
-8.80695e-07
1.1816e-06
-7.15361e-07
1.1501e-06
-6.66364e-07
1.16425e-06
-1.38523e-07
1.18241e-06
-1.16118e-07
1.18112e-06
1.75891e-07
1.18201e-06
2.33588e-07
1.16693e-06
9.45136e-08
1.18546e-06
4.52096e-07
1.15572e-06
1.61218e-07
1.15988e-06
3.31261e-07
1.74245e-07
1.12476e-06
1.23214e-06
-4.66551e-07
1.23128e-06
5.01009e-08
1.24756e-06
-1.76549e-07
1.23575e-06
3.28271e-07
1.23762e-06
1.22216e-07
1.24622e-06
8.41654e-07
1.24247e-06
1.00846e-07
1.21193e-06
-3.54565e-07
1.24866e-06
-9.17421e-07
1.23724e-06
-7.03947e-07
1.20922e-06
-6.38342e-07
1.22459e-06
-1.5389e-07
1.23888e-06
-1.30412e-07
1.24664e-06
1.68137e-07
1.23642e-06
2.43807e-07
1.23228e-06
9.86497e-08
1.23192e-06
4.52453e-07
1.22744e-06
1.65705e-07
1.20146e-06
3.57242e-07
1.64469e-07
1.21123e-06
1.29035e-06
-4.74122e-07
1.29462e-06
4.58314e-08
1.30794e-06
-1.89862e-07
1.30283e-06
3.33377e-07
1.29958e-06
1.25463e-07
1.31465e-06
8.26589e-07
1.3023e-06
1.13196e-07
1.27668e-06
-3.28941e-07
1.29851e-06
-9.39254e-07
1.29458e-06
-7.00021e-07
1.2678e-06
-6.11558e-07
1.28581e-06
-1.71898e-07
1.29506e-06
-1.39668e-07
1.31088e-06
1.52315e-07
1.2965e-06
2.58185e-07
1.29488e-06
1.00271e-07
1.29482e-06
4.52516e-07
1.29283e-06
1.67698e-07
1.27806e-06
3.72013e-07
1.72693e-07
1.26983e-06
1.3495e-06
-4.79523e-07
1.35899e-06
3.63437e-08
1.36859e-06
-1.99459e-07
1.37039e-06
3.31571e-07
1.36422e-06
1.31641e-07
1.38017e-06
8.10635e-07
1.36282e-06
1.3055e-07
1.34205e-06
-3.08177e-07
1.34724e-06
-9.44446e-07
1.34892e-06
-7.01694e-07
1.32737e-06
-5.90013e-07
1.34392e-06
-1.88448e-07
1.35275e-06
-1.48494e-07
1.36962e-06
1.35447e-07
1.36099e-06
2.66814e-07
1.35651e-06
1.04747e-07
1.36031e-06
4.48719e-07
1.3576e-06
1.70408e-07
1.35207e-06
3.77543e-07
1.87931e-07
1.33683e-06
1.41042e-06
-4.81593e-07
1.42279e-06
2.39819e-08
1.42916e-06
-2.05835e-07
1.4356e-06
3.25132e-07
1.42966e-06
1.37585e-07
1.4431e-06
7.97196e-07
1.42539e-06
1.48254e-07
1.40825e-06
-2.91035e-07
1.40002e-06
-9.36217e-07
1.40267e-06
-7.04346e-07
1.38937e-06
-5.76711e-07
1.40329e-06
-2.02362e-07
1.41252e-06
-1.57726e-07
1.42865e-06
1.19312e-07
1.42675e-06
2.68717e-07
1.42147e-06
1.10023e-07
1.42585e-06
4.44347e-07
1.42291e-06
1.73343e-07
1.42301e-06
3.77448e-07
2.04893e-07
1.40604e-06
1.47438e-06
-4.80294e-07
1.48654e-06
1.18226e-08
1.49062e-06
-2.09923e-07
1.49881e-06
3.16951e-07
1.49514e-06
1.41247e-07
1.50586e-06
7.86476e-07
1.49132e-06
1.62799e-07
1.47706e-06
-2.76781e-07
1.46019e-06
-9.19338e-07
1.46073e-06
-7.0489e-07
1.45436e-06
-5.70346e-07
1.46717e-06
-2.15168e-07
1.47536e-06
-1.65914e-07
1.49085e-06
1.03823e-07
1.49365e-06
2.65914e-07
1.48976e-06
1.13915e-07
1.49429e-06
4.39815e-07
1.49017e-06
1.77461e-07
1.49433e-06
3.73292e-07
2.21801e-07
1.47742e-06
1.54233e-06
-4.76408e-07
1.5521e-06
2.05367e-09
1.55452e-06
-2.12348e-07
1.56237e-06
3.09108e-07
1.56141e-06
1.42207e-07
1.57128e-06
7.76598e-07
1.56127e-06
1.72813e-07
1.54973e-06
-2.65242e-07
1.52794e-06
-8.97548e-07
1.52547e-06
-7.02423e-07
1.52265e-06
-5.67522e-07
1.53569e-06
-2.28206e-07
1.5423e-06
-1.72529e-07
1.55695e-06
8.91807e-08
1.56247e-06
2.60385e-07
1.56056e-06
1.15828e-07
1.56615e-06
4.34222e-07
1.56028e-06
1.83332e-07
1.56704e-06
3.66531e-07
2.37947e-07
1.5509e-06
1.61467e-06
-4.70947e-07
1.62137e-06
-4.64772e-09
1.62226e-06
-2.13238e-07
1.62889e-06
3.02475e-07
1.6301e-06
1.40998e-07
1.64128e-06
7.65423e-07
1.63553e-06
1.78565e-07
1.62651e-06
-2.56225e-07
1.60199e-06
-8.73029e-07
1.59673e-06
-6.97163e-07
1.59461e-06
-5.65402e-07
1.60804e-06
-2.41639e-07
1.61351e-06
-1.78001e-07
1.62724e-06
7.54549e-08
1.63405e-06
2.53569e-07
1.63366e-06
1.16222e-07
1.64095e-06
4.26929e-07
1.63338e-06
1.9091e-07
1.64163e-06
3.58277e-07
2.53227e-07
1.62635e-06
1.69134e-06
-4.64716e-07
1.69546e-06
-8.76692e-09
1.69474e-06
-2.12513e-07
1.70016e-06
2.97052e-07
1.70282e-06
1.38342e-07
1.71653e-06
7.51715e-07
1.71404e-06
1.81055e-07
1.70717e-06
-2.49364e-07
1.68107e-06
-8.46927e-07
1.67353e-06
-6.89617e-07
1.67049e-06
-5.62361e-07
1.68374e-06
-2.54897e-07
1.6885e-06
-1.82761e-07
1.70154e-06
6.2417e-08
1.70893e-06
2.46182e-07
1.70925e-06
1.15898e-07
1.71841e-06
4.17775e-07
1.7094e-06
1.9992e-07
1.71842e-06
3.49252e-07
2.67706e-07
1.70394e-06
1.77219e-06
-4.58185e-07
1.77463e-06
-1.12095e-08
1.77233e-06
-2.10215e-07
1.77693e-06
2.9246e-07
1.78037e-06
1.34902e-07
1.79679e-06
7.35292e-07
1.79651e-06
1.81338e-07
1.79142e-06
-2.4428e-07
1.76443e-06
-8.19934e-07
1.75515e-06
-6.80337e-07
1.75037e-06
-5.57586e-07
1.76262e-06
-2.67149e-07
1.7667e-06
-1.86832e-07
1.77922e-06
4.98885e-08
1.78703e-06
2.3838e-07
1.78736e-06
1.15562e-07
1.79824e-06
4.06896e-07
1.78814e-06
2.10017e-07
1.79747e-06
3.39925e-07
2.81285e-07
1.78389e-06
1.85712e-06
-4.5156e-07
1.85865e-06
-1.27387e-08
1.85504e-06
-2.06601e-07
1.85925e-06
2.88251e-07
1.86283e-06
1.3132e-07
1.88148e-06
7.16644e-07
1.88262e-06
1.80198e-07
1.87903e-06
-2.40694e-07
1.85167e-06
-7.92573e-07
1.84126e-06
-6.69925e-07
1.83434e-06
-5.50666e-07
1.84467e-06
-2.77482e-07
1.84774e-06
-1.89895e-07
1.8596e-06
3.8026e-08
1.86783e-06
2.30145e-07
1.86771e-06
1.1569e-07
1.88003e-06
3.94572e-07
1.86928e-06
2.20768e-07
1.87865e-06
3.30557e-07
2.93531e-07
1.8664e-06
1.94617e-06
-4.44889e-07
1.94723e-06
-1.38048e-08
1.94265e-06
-2.02016e-07
1.94689e-06
2.84013e-07
1.95002e-06
1.28187e-07
1.97019e-06
6.96473e-07
1.97229e-06
1.78103e-07
1.96999e-06
-2.38398e-07
1.94265e-06
-7.65229e-07
1.93171e-06
-6.58992e-07
1.92253e-06
-5.41479e-07
1.93012e-06
-2.85071e-07
1.93171e-06
-1.91485e-07
1.94238e-06
2.73517e-08
1.95097e-06
2.21555e-07
1.95009e-06
1.1657e-07
1.96353e-06
3.81127e-07
1.9527e-06
2.31607e-07
1.96198e-06
3.21269e-07
3.03697e-07
1.95182e-06
2.03943e-06
-4.38131e-07
2.04026e-06
-1.4638e-08
2.03499e-06
-1.9674e-07
2.03958e-06
2.79419e-07
2.04184e-06
1.25927e-07
2.06294e-06
6.75375e-07
2.06571e-06
1.75332e-07
2.0645e-06
-2.3718e-07
2.03737e-06
-7.38104e-07
2.0264e-06
-6.48025e-07
2.01514e-06
-5.30212e-07
2.01946e-06
-2.89395e-07
2.01923e-06
-1.91253e-07
2.02803e-06
1.85548e-08
2.03675e-06
2.12826e-07
2.03498e-06
1.1835e-07
2.04919e-06
3.66913e-07
2.03893e-06
2.41867e-07
2.04806e-06
3.12138e-07
3.10993e-07
2.04076e-06
2.13707e-06
-4.31204e-07
2.13783e-06
-1.53904e-08
2.132e-06
-1.90918e-07
2.13718e-06
2.74244e-07
2.1384e-06
1.24701e-07
2.16008e-06
6.53701e-07
2.16331e-06
1.72101e-07
2.16292e-06
-2.36791e-07
2.13603e-06
-7.11218e-07
2.12526e-06
-6.37248e-07
2.11237e-06
-5.17328e-07
2.11337e-06
-2.90396e-07
2.11129e-06
-1.89174e-07
2.11768e-06
1.21703e-08
2.12629e-06
2.0422e-07
2.1236e-06
1.2103e-07
2.13821e-06
3.52305e-07
2.12917e-06
2.50913e-07
2.13803e-06
3.03275e-07
3.14921e-07
2.1341e-06
2.2393e-06
-4.24014e-07
2.24012e-06
-1.62103e-08
2.23378e-06
-1.84579e-07
2.23965e-06
2.68378e-07
2.2399e-06
1.24447e-07
2.26203e-06
6.31567e-07
2.26551e-06
1.68627e-07
2.26568e-06
-2.36968e-07
2.23896e-06
-6.84491e-07
2.22831e-06
-6.26599e-07
2.21441e-06
-5.03433e-07
2.21244e-06
-2.88422e-07
2.20884e-06
-1.85578e-07
2.2127e-06
8.30822e-09
2.22098e-06
1.95949e-07
2.21756e-06
1.24444e-07
2.23216e-06
3.37705e-07
2.22479e-06
2.58285e-07
2.23325e-06
2.94816e-07
3.15474e-07
2.2327e-06
2.34634e-06
-4.16481e-07
2.34738e-06
-1.72466e-08
2.34049e-06
-1.77693e-07
2.34708e-06
2.61795e-07
2.34653e-06
1.24994e-07
2.36915e-06
6.0895e-07
2.37267e-06
1.65105e-07
2.37317e-06
-2.3747e-07
2.34652e-06
-6.5784e-07
2.33574e-06
-6.15817e-07
2.32142e-06
-4.89113e-07
2.31701e-06
-2.84015e-07
2.31245e-06
-1.81016e-07
2.31411e-06
6.64691e-09
2.32194e-06
1.88123e-07
2.31811e-06
1.28271e-07
2.33231e-06
3.23506e-07
2.32682e-06
2.63773e-07
2.3348e-06
2.86834e-07
3.13121e-07
2.33715e-06
2.45846e-06
-4.08548e-07
2.45984e-06
-1.8627e-08
2.45237e-06
-1.70218e-07
2.45965e-06
2.54515e-07
2.45848e-06
1.26164e-07
2.48164e-06
5.85791e-07
2.48507e-06
1.61678e-07
2.48569e-06
-2.38098e-07
2.4591e-06
-6.31246e-07
2.44785e-06
-6.04571e-07
2.43357e-06
-4.74833e-07
2.42726e-06
-2.77703e-07
2.42228e-06
-1.76036e-07
2.42231e-06
6.61413e-09
2.42965e-06
1.80781e-07
2.42581e-06
1.32119e-07
2.43928e-06
3.10028e-07
2.43565e-06
2.67406e-07
2.44313e-06
2.79357e-07
3.08514e-07
2.44774e-06
2.57592e-06
-4.00177e-07
2.57774e-06
-2.04443e-08
2.56964e-06
-1.62122e-07
2.57759e-06
2.46569e-07
2.57593e-06
1.27822e-07
2.59966e-06
5.62061e-07
2.60293e-06
1.58413e-07
2.60351e-06
-2.38684e-07
2.57704e-06
-6.04778e-07
2.56502e-06
-5.92543e-07
2.5511e-06
-4.60916e-07
2.54329e-06
-2.69898e-07
2.53825e-06
-1.70997e-07
2.53729e-06
7.58024e-09
2.5441e-06
1.73972e-07
2.5406e-06
1.35621e-07
2.55318e-06
2.97441e-07
2.55118e-06
2.69404e-07
2.55819e-06
2.7235e-07
3.02267e-07
2.56444e-06
2.699e-06
-3.91346e-07
2.70131e-06
-2.27567e-08
2.69258e-06
-1.5339e-07
2.70116e-06
2.37991e-07
2.6991e-06
1.29877e-07
2.72338e-06
5.37786e-07
2.72648e-06
1.55309e-07
2.72687e-06
-2.39078e-07
2.70067e-06
-5.78572e-07
2.68759e-06
-5.79468e-07
2.67424e-06
-4.47558e-07
2.66524e-06
-2.60901e-07
2.66027e-06
-1.66025e-07
2.65886e-06
8.98728e-09
2.66504e-06
1.67789e-07
2.66214e-06
1.38521e-07
2.67386e-06
2.85721e-07
2.67316e-06
2.70111e-07
2.6798e-06
2.65707e-07
2.94873e-07
2.68719e-06
2.82796e-06
-3.82041e-07
2.8308e-06
-2.55964e-08
2.82144e-06
-1.44024e-07
2.83062e-06
2.2881e-07
2.82824e-06
1.32256e-07
2.85298e-06
5.13047e-07
2.85598e-06
1.52309e-07
2.85603e-06
-2.3913e-07
2.83027e-06
-5.52815e-07
2.81594e-06
-5.65134e-07
2.80322e-06
-4.34842e-07
2.79329e-06
-2.50968e-07
2.78832e-06
-1.61051e-07
2.78691e-06
1.03963e-08
2.79235e-06
1.62352e-07
2.79016e-06
1.40707e-07
2.80118e-06
2.747e-07
2.80144e-06
2.69855e-07
2.80782e-06
2.59318e-07
2.86677e-07
2.81602e-06
2.96311e-06
-3.72255e-07
2.96649e-06
-2.89784e-08
2.95651e-06
-1.34037e-07
2.96625e-06
2.19064e-07
2.96362e-06
1.34891e-07
2.9887e-06
4.87968e-07
2.99169e-06
1.49314e-07
2.99125e-06
-2.38684e-07
2.96615e-06
-5.2772e-07
2.9504e-06
-5.49386e-07
2.9383e-06
-4.22743e-07
2.92771e-06
-2.40375e-07
2.92254e-06
-1.55882e-07
2.92144e-06
1.14975e-08
2.92605e-06
1.57739e-07
2.92454e-06
1.42222e-07
2.9351e-06
2.64136e-07
2.9361e-06
2.68858e-07
2.94226e-06
2.5316e-07
2.77862e-07
2.95107e-06
3.10474e-06
-3.61987e-07
3.10867e-06
-3.2906e-08
3.09809e-06
-1.2346e-07
3.10835e-06
2.088e-07
3.10554e-06
1.377e-07
3.1308e-06
4.62714e-07
3.13392e-06
1.46189e-07
3.13281e-06
-2.37571e-07
3.10859e-06
-5.03502e-07
3.09135e-06
-5.32149e-07
3.07973e-06
-4.11123e-07
3.06879e-06
-2.29429e-07
3.06318e-06
-1.50272e-07
3.06259e-06
1.20865e-08
3.0664e-06
1.53931e-07
3.06536e-06
1.4326e-07
3.07571e-06
2.53783e-07
3.07738e-06
2.67191e-07
3.08323e-06
2.47309e-07
2.685e-07
3.09259e-06
3.25316e-06
-3.51238e-07
3.25763e-06
-3.73733e-08
3.2465e-06
-1.12335e-07
3.25722e-06
1.98084e-07
3.25434e-06
1.40582e-07
3.27957e-06
4.37485e-07
3.28299e-06
1.42768e-07
3.28103e-06
-2.35612e-07
3.25785e-06
-4.80329e-07
3.23917e-06
-5.1347e-07
3.22781e-06
-3.9976e-07
3.21683e-06
-2.18447e-07
3.21053e-06
-1.43976e-07
3.21055e-06
1.20693e-08
3.21371e-06
1.50773e-07
3.21287e-06
1.44096e-07
3.22317e-06
2.43484e-07
3.22557e-06
2.64791e-07
3.23099e-06
2.41894e-07
2.58641e-07
3.24085e-06
3.40871e-06
-3.40016e-07
3.4137e-06
-4.23649e-08
3.40209e-06
-1.00721e-07
3.41317e-06
1.87001e-07
3.41034e-06
1.43416e-07
3.4353e-06
4.12518e-07
3.43921e-06
1.38864e-07
3.43623e-06
-2.32634e-07
3.41417e-06
-4.58271e-07
3.39425e-06
-4.93551e-07
3.38286e-06
-3.88369e-07
3.37213e-06
-2.0772e-07
3.36498e-06
-1.36821e-07
3.36555e-06
1.14933e-08
3.36832e-06
1.48009e-07
3.36747e-06
1.4495e-07
3.37771e-06
2.33241e-07
3.381e-06
2.61504e-07
3.38587e-06
2.3702e-07
2.48395e-07
3.39612e-06
3.57173e-06
-3.28333e-07
3.57722e-06
-4.78567e-08
3.5652e-06
-8.86955e-08
3.57654e-06
1.75659e-07
3.57389e-06
1.4606e-07
3.59833e-06
3.88082e-07
3.60292e-06
1.34274e-07
3.59877e-06
-2.28488e-07
3.5778e-06
-4.37295e-07
3.55696e-06
-4.72711e-07
3.54524e-06
-3.76653e-07
3.53499e-06
-1.97467e-07
3.52694e-06
-1.28772e-07
3.52787e-06
1.05621e-08
3.53053e-06
1.45347e-07
3.52957e-06
1.45913e-07
3.53962e-06
2.23188e-07
3.54396e-06
2.57163e-07
3.54827e-06
2.32708e-07
2.37977e-07
3.55869e-06
3.74258e-06
-3.16209e-07
3.74854e-06
-5.38142e-08
3.7362e-06
-7.6358e-08
3.74767e-06
1.64188e-07
3.74538e-06
1.48351e-07
3.769e-06
3.64459e-07
3.77445e-06
1.28822e-07
3.76907e-06
-2.23098e-07
3.74905e-06
-4.17281e-07
3.72766e-06
-4.51318e-07
3.71534e-06
-3.64334e-07
3.70569e-06
-1.87821e-07
3.69686e-06
-1.19935e-07
3.69784e-06
9.57394e-09
3.70066e-06
1.42535e-07
3.69961e-06
1.46962e-07
3.70928e-06
2.13515e-07
3.71478e-06
2.51662e-07
3.71862e-06
2.28869e-07
2.27699e-07
3.7289e-06
3.92165e-06
-3.03668e-07
3.92802e-06
-6.01905e-08
3.9155e-06
-6.38311e-08
3.92694e-06
1.52741e-07
3.92517e-06
1.5012e-07
3.94772e-06
3.41912e-07
3.95414e-06
1.224e-07
3.94755e-06
-2.16505e-07
3.9283e-06
-3.98029e-07
3.90671e-06
-4.29729e-07
3.89359e-06
-3.51209e-07
3.88455e-06
-1.78787e-07
3.87515e-06
-1.10534e-07
3.8759e-06
8.82397e-09
3.87903e-06
1.39409e-07
3.87797e-06
1.4802e-07
3.88713e-06
2.04352e-07
3.89376e-06
2.45034e-07
3.89734e-06
2.25293e-07
2.17916e-07
3.90712e-06
4.10932e-06
-2.90741e-07
4.11606e-06
-6.69256e-08
4.10349e-06
-5.12617e-08
4.11474e-06
1.41488e-07
4.11367e-06
1.51189e-07
4.13492e-06
3.20663e-07
4.14232e-06
1.15003e-07
4.13471e-06
-2.08897e-07
4.11594e-06
-3.79259e-07
4.09447e-06
-4.08261e-07
4.08045e-06
-3.37187e-07
4.0719e-06
-1.70236e-07
4.06222e-06
-1.00853e-07
4.06252e-06
8.52655e-09
4.06598e-06
1.35946e-07
4.06507e-06
1.48936e-07
4.07361e-06
1.95804e-07
4.08125e-06
2.37394e-07
4.08483e-06
2.21713e-07
2.08946e-07
4.0938e-06
4.30603e-06
-2.77468e-07
4.31305e-06
-7.39434e-08
4.30061e-06
-3.8821e-08
4.31148e-06
1.30616e-07
4.31125e-06
1.51416e-07
4.33108e-06
3.00837e-07
4.33932e-06
1.06757e-07
4.33101e-06
-2.0058e-07
4.3124e-06
-3.60653e-07
4.29129e-06
-3.87153e-07
4.27641e-06
-3.22309e-07
4.26814e-06
-1.61961e-07
4.25845e-06
-9.11613e-08
4.25819e-06
8.78859e-09
4.26192e-06
1.32209e-07
4.26129e-06
1.49567e-07
4.26919e-06
1.87906e-07
4.27764e-06
2.28941e-07
4.28151e-06
2.17842e-07
2.01009e-07
4.28945e-06
4.5122e-06
-2.63898e-07
4.51941e-06
-8.11518e-08
4.50729e-06
-2.66994e-08
4.51759e-06
1.20317e-07
4.5183e-06
1.50708e-07
4.53668e-06
2.82451e-07
4.54553e-06
9.79064e-08
4.53688e-06
-1.91921e-07
4.51813e-06
-3.41908e-07
4.49751e-06
-3.66534e-07
4.48195e-06
-3.06748e-07
4.47372e-06
-1.53733e-07
4.46421e-06
-8.16482e-08
4.46339e-06
9.61051e-09
4.46732e-06
1.28282e-07
4.46705e-06
1.4983e-07
4.47431e-06
1.80646e-07
4.48337e-06
2.19888e-07
4.48777e-06
2.13441e-07
1.94172e-07
4.4946e-06
4.72831e-06
-2.50089e-07
4.73559e-06
-8.84407e-08
4.724e-06
-1.51015e-08
4.73353e-06
1.10779e-07
4.73522e-06
1.4902e-07
4.75223e-06
2.65443e-07
4.76137e-06
8.87635e-08
4.75274e-06
-1.83287e-07
4.73362e-06
-3.22794e-07
4.71351e-06
-3.46423e-07
4.69754e-06
-2.90772e-07
4.68916e-06
-1.45354e-07
4.67991e-06
-7.24041e-08
4.67861e-06
1.09162e-08
4.68266e-06
1.24227e-07
4.6828e-06
1.49696e-07
4.68944e-06
1.73999e-07
4.69889e-06
2.10437e-07
4.70399e-06
2.08345e-07
1.88325e-07
4.70984e-06
4.95482e-06
-2.36108e-07
4.96206e-06
-9.5681e-08
4.95119e-06
-4.23748e-09
4.9598e-06
1.02169e-07
4.96246e-06
1.46358e-07
4.97822e-06
2.49688e-07
4.98732e-06
7.9668e-08
4.979e-06
-1.74973e-07
4.95944e-06
-3.0323e-07
4.93972e-06
-3.26702e-07
4.92363e-06
-2.74682e-07
4.915e-06
-1.36726e-07
4.906e-06
-6.3408e-08
4.90433e-06
1.25896e-08
4.90845e-06
1.20104e-07
4.90902e-06
1.49128e-07
4.91509e-06
1.67928e-07
4.92472e-06
2.0081e-07
4.9306e-06
2.02462e-07
1.83222e-07
4.9357e-06
5.19224e-06
-2.22033e-07
5.19928e-06
-1.02723e-07
5.18936e-06
5.68639e-09
5.19691e-06
9.46189e-08
5.20049e-06
1.42778e-07
5.21515e-06
2.35024e-07
5.22388e-06
7.09374e-08
5.21607e-06
-1.67164e-07
5.19617e-06
-2.83326e-07
5.17661e-06
-3.07146e-07
5.16067e-06
-2.58737e-07
5.15179e-06
-1.27851e-07
5.14298e-06
-5.45981e-08
5.14104e-06
1.45385e-08
5.14521e-06
1.15932e-07
5.14623e-06
1.48102e-07
5.15178e-06
1.62384e-07
5.16135e-06
1.91239e-07
5.16805e-06
1.95758e-07
1.7856e-07
5.17271e-06
5.4411e-06
-2.07948e-07
5.44778e-06
-1.09401e-07
5.43899e-06
1.44831e-08
5.4454e-06
8.82014e-08
5.44979e-06
1.38391e-07
5.46354e-06
2.21271e-07
5.47165e-06
6.28289e-08
5.46438e-06
-1.59888e-07
5.44443e-06
-2.63382e-07
5.42476e-06
-2.87468e-07
5.4091e-06
-2.43079e-07
5.40011e-06
-1.18861e-07
5.39143e-06
-4.59155e-08
5.38921e-06
1.67579e-08
5.39348e-06
1.11659e-07
5.39497e-06
1.46612e-07
5.40003e-06
1.5732e-07
5.40935e-06
1.81924e-07
5.4168e-06
1.88307e-07
1.73984e-07
5.42138e-06
5.70196e-06
-1.9395e-07
5.70808e-06
-1.15522e-07
5.70057e-06
2.19905e-08
5.70586e-06
8.29164e-08
5.7109e-06
1.33347e-07
5.72391e-06
2.08262e-07
5.73124e-06
5.55007e-08
5.72437e-06
-1.53025e-07
5.70479e-06
-2.43797e-07
5.68476e-06
-2.67439e-07
5.6694e-06
-2.27721e-07
5.66048e-06
-1.09938e-07
5.65194e-06
-3.73768e-08
5.64938e-06
1.93171e-08
5.6538e-06
1.07241e-07
5.65579e-06
1.44622e-07
5.66042e-06
1.52688e-07
5.66934e-06
1.73004e-07
5.67734e-06
1.80305e-07
1.69134e-07
5.68219e-06
5.97538e-06
-1.80136e-07
5.98073e-06
-1.20869e-07
5.97464e-06
2.80759e-08
5.97888e-06
7.86807e-08
5.9844e-06
1.27826e-07
5.99678e-06
1.95875e-07
6.00328e-06
4.90053e-08
5.99661e-06
-1.46359e-07
5.97776e-06
-2.2494e-07
5.95731e-06
-2.46995e-07
5.94211e-06
-2.1252e-07
5.93344e-06
-1.01269e-07
5.92513e-06
-2.90585e-08
5.9222e-06
2.22416e-08
5.92668e-06
1.02763e-07
5.92925e-06
1.42052e-07
5.93355e-06
1.48391e-07
5.94197e-06
1.64583e-07
5.95025e-06
1.72018e-07
1.63734e-07
5.95565e-06
6.26196e-06
-1.6661e-07
6.26628e-06
-1.25188e-07
6.26173e-06
3.26296e-08
6.26509e-06
7.53229e-08
6.27088e-06
1.22028e-07
6.28274e-06
1.84021e-07
6.28842e-06
4.33213e-08
6.2817e-06
-1.39642e-07
6.26386e-06
-2.071e-07
6.2431e-06
-2.2623e-07
6.22784e-06
-1.97263e-07
6.21955e-06
-9.29735e-08
6.21159e-06
-2.10992e-08
6.20835e-06
2.54813e-08
6.21269e-06
9.8417e-08
6.2159e-06
1.38846e-07
6.22003e-06
1.44264e-07
6.2279e-06
1.56712e-07
6.23618e-06
1.63739e-07
1.57639e-07
6.24227e-06
6.56234e-06
-1.53478e-07
6.56534e-06
-1.2819e-07
6.5624e-06
3.55667e-08
6.56513e-06
7.25981e-08
6.57101e-06
1.16147e-07
6.58236e-06
1.72672e-07
6.58732e-06
3.83619e-08
6.58034e-06
-1.32665e-07
6.56359e-06
-1.90348e-07
6.54284e-06
-2.05483e-07
6.5273e-06
-1.81721e-07
6.51936e-06
-8.50381e-08
6.51195e-06
-1.36871e-08
6.50847e-06
2.89633e-08
6.51254e-06
9.43431e-08
6.51634e-06
1.35042e-07
6.52041e-06
1.40203e-07
6.52782e-06
1.493e-07
6.53586e-06
1.55702e-07
1.50928e-07
6.54257e-06
6.87715e-06
-1.40842e-07
6.8786e-06
-1.29636e-07
6.87727e-06
3.68938e-08
6.87966e-06
7.0208e-08
6.88545e-06
1.10356e-07
6.89627e-06
1.61853e-07
6.90061e-06
3.40277e-08
6.89327e-06
-1.25323e-07
6.87746e-06
-1.74547e-07
6.85719e-06
-1.85211e-07
6.84127e-06
-1.65799e-07
6.83352e-06
-7.72916e-08
6.82681e-06
-6.97568e-09
6.82321e-06
3.25656e-08
6.82698e-06
9.05759e-08
6.83124e-06
1.30783e-07
6.83527e-06
1.36173e-07
6.84239e-06
1.42179e-07
6.85004e-06
1.4805e-07
1.43847e-07
6.85712e-06
7.20709e-06
-1.28799e-07
7.20683e-06
-1.29374e-07
7.207e-06
3.67235e-08
7.20936e-06
6.78487e-08
7.21494e-06
1.04772e-07
7.22516e-06
1.51641e-07
7.22895e-06
3.02356e-08
7.2213e-06
-1.1767e-07
7.20615e-06
-1.59404e-07
7.18677e-06
-1.65823e-07
7.17056e-06
-1.49594e-07
7.16276e-06
-6.9495e-08
7.15679e-06
-1.00292e-09
7.15326e-06
3.60996e-08
7.15671e-06
8.71287e-08
7.16127e-06
1.26218e-07
7.16529e-06
1.32152e-07
7.17218e-06
1.35285e-07
7.1795e-06
1.40738e-07
1.36726e-07
7.18662e-06
7.55286e-06
-1.17433e-07
7.55085e-06
-1.27363e-07
7.55229e-06
3.52804e-08
7.55491e-06
6.52313e-08
7.56023e-06
9.94534e-08
7.56973e-06
1.42135e-07
7.57303e-06
2.69428e-08
7.56521e-06
-1.09856e-07
7.55045e-06
-1.44642e-07
7.53215e-06
-1.47526e-07
7.51597e-06
-1.33409e-07
7.50791e-06
-6.1432e-08
7.50254e-06
4.36547e-09
7.49932e-06
3.93214e-08
7.50244e-06
8.40083e-08
7.50724e-06
1.21418e-07
7.51122e-06
1.28171e-07
7.51781e-06
1.28695e-07
7.52498e-06
1.33561e-07
1.29865e-07
7.53184e-06
7.91519e-06
-1.06814e-07
7.9115e-06
-1.23675e-07
7.9139e-06
3.28833e-08
7.91702e-06
6.21087e-08
7.92208e-06
9.43948e-08
7.93077e-06
1.3345e-07
7.93357e-06
2.41436e-08
7.92579e-06
-1.02078e-07
7.91122e-06
-1.3007e-07
7.89399e-06
-1.30296e-07
7.87824e-06
-1.17658e-07
7.86984e-06
-5.30387e-08
7.86484e-06
9.36884e-09
7.86202e-06
4.21426e-08
7.86491e-06
8.11133e-08
7.86992e-06
1.16409e-07
7.87383e-06
1.24264e-07
7.87998e-06
1.22544e-07
7.88719e-06
1.26353e-07
1.23436e-07
7.89362e-06
8.29486e-06
-9.69922e-08
8.28966e-06
-1.18479e-07
8.29264e-06
2.99088e-08
8.29644e-06
5.83066e-08
8.30131e-06
8.95223e-08
8.30908e-06
1.2568e-07
8.31132e-06
2.19018e-08
8.30379e-06
-9.45408e-08
8.28943e-06
-1.15714e-07
8.27288e-06
-1.13751e-07
8.25802e-06
-1.02796e-07
8.2495e-06
-4.45159e-08
8.24457e-06
1.42995e-08
8.24208e-06
4.4637e-08
8.24491e-06
7.82772e-08
8.25011e-06
1.11214e-07
8.25396e-06
1.20407e-07
8.25952e-06
1.16988e-07
8.26677e-06
1.19103e-07
1.17349e-07
8.27286e-06
8.69267e-06
-8.7996e-08
8.6862e-06
-1.12015e-07
8.68936e-06
2.67461e-08
8.69393e-06
5.37362e-08
8.69875e-06
8.47046e-08
8.70553e-06
1.18903e-07
8.70712e-06
2.031e-08
8.69998e-06
-8.74008e-08
8.68603e-06
-1.01761e-07
8.6698e-06
-9.75176e-08
8.65597e-06
-8.89673e-08
8.6478e-06
-3.63535e-08
8.64274e-06
1.93607e-08
8.64028e-06
4.70991e-08
8.64316e-06
7.54019e-08
8.6486e-06
1.05771e-07
8.65252e-06
1.16488e-07
8.65734e-06
1.12167e-07
8.66445e-06
1.11991e-07
1.1142e-07
8.67038e-06
9.10945e-06
-7.98252e-08
9.10201e-06
-1.04578e-07
9.10499e-06
2.37704e-08
9.11032e-06
4.84015e-08
9.11526e-06
7.97689e-08
9.12102e-06
1.13143e-07
9.12184e-06
1.94852e-08
9.11517e-06
-8.07262e-08
9.10192e-06
-8.85132e-08
9.08577e-06
-8.13662e-08
9.07286e-06
-7.60574e-08
9.06548e-06
-2.89755e-08
9.06041e-06
2.44299e-08
9.05766e-06
4.98518e-08
9.06039e-06
7.26725e-08
9.06619e-06
9.99652e-08
9.0704e-06
1.12285e-07
9.0744e-06
1.08161e-07
9.08112e-06
1.05273e-07
1.05526e-07
9.08701e-06
9.54607e-06
-7.24377e-08
9.53799e-06
-9.64971e-08
9.54047e-06
2.12895e-08
9.54646e-06
4.24088e-08
9.5517e-06
7.45314e-08
9.55651e-06
1.0834e-07
9.55641e-06
1.95849e-08
9.5502e-06
-7.45203e-08
9.53797e-06
-7.6282e-08
9.52191e-06
-6.53109e-08
9.50947e-06
-6.36176e-08
9.50318e-06
-2.26769e-08
9.49853e-06
2.90725e-08
9.49535e-06
5.30364e-08
9.49754e-06
7.04832e-08
9.50365e-06
9.38561e-08
9.50847e-06
1.07462e-07
9.51173e-06
1.04898e-07
9.51775e-06
9.92584e-08
9.962e-08
9.52365e-06
1.00034e-05
-6.5752e-08
9.99507e-06
-8.81157e-08
9.99682e-06
1.95347e-08
1.00033e-05
3.59595e-08
1.0009e-05
6.88081e-08
1.0013e-05
1.04356e-07
1.00118e-05
2.07478e-08
1.0006e-05
-6.86752e-08
9.99505e-06
-6.53573e-08
9.97934e-06
-4.96075e-08
9.96688e-06
-5.11531e-08
9.96168e-06
-1.74799e-08
9.95797e-06
3.27843e-08
9.95445e-06
5.65543e-08
9.95572e-06
6.92121e-08
9.9618e-06
8.77826e-08
9.96752e-06
1.01736e-07
9.97047e-06
1.01949e-07
9.97533e-06
9.44033e-08
9.36285e-08
9.98132e-06
1.04825e-05
-5.96557e-08
1.04742e-05
-7.9775e-08
1.04751e-05
1.86369e-08
1.04817e-05
2.93479e-08
1.04881e-05
6.24514e-08
1.04915e-05
1.00965e-07
1.04891e-05
2.30901e-08
1.04835e-05
-6.30133e-08
1.0474e-05
-5.594e-08
1.04591e-05
-3.46529e-08
1.04463e-05
-3.83426e-08
1.04418e-05
-1.30111e-08
1.04395e-05
3.51016e-08
1.0436e-05
6.00355e-08
1.04362e-05
6.90278e-08
1.04417e-05
8.23039e-08
1.04482e-05
9.51717e-08
1.04516e-05
9.85392e-08
1.04551e-05
9.09689e-08
8.77306e-08
1.0461e-05
1.09844e-05
-5.40187e-08
1.09764e-05
-7.18058e-08
1.09764e-05
1.86515e-08
1.09828e-05
2.29283e-08
1.09899e-05
5.53642e-08
1.0993e-05
9.78635e-08
1.09894e-05
2.66741e-08
1.09837e-05
-5.7271e-08
1.09759e-05
-4.81809e-08
1.09621e-05
-2.08547e-08
1.09489e-05
-2.51375e-08
1.09445e-05
-8.62376e-09
1.09439e-05
3.57659e-08
1.0941e-05
6.29275e-08
1.09402e-05
6.98483e-08
1.09445e-05
7.79509e-08
1.09514e-05
8.82328e-08
1.0956e-05
9.39537e-08
1.09584e-05
8.85526e-08
8.25749e-08
1.09636e-05
1.151e-05
-4.8702e-08
1.15028e-05
-6.45093e-08
1.15019e-05
1.95514e-08
1.15077e-05
1.70827e-08
1.15155e-05
4.75324e-08
1.15187e-05
9.4723e-08
1.15139e-05
3.14358e-08
1.15078e-05
-5.11353e-08
1.15017e-05
-4.20691e-08
1.14895e-05
-8.64758e-09
1.1476e-05
-1.16975e-08
1.14711e-05
-3.7199e-09
1.14719e-05
3.50016e-08
1.14703e-05
6.45171e-08
1.14687e-05
7.14212e-08
1.14717e-05
7.49741e-08
1.14783e-05
8.16477e-08
1.14842e-05
8.80674e-08
1.14866e-05
8.60917e-08
7.86804e-08
1.14905e-05
1.20607e-05
-4.35755e-08
1.20543e-05
-5.81294e-08
1.20526e-05
2.12352e-08
1.20575e-05
1.21825e-08
1.2066e-05
3.90316e-08
1.20695e-05
9.12101e-08
1.20638e-05
3.72007e-08
1.20569e-05
-4.42983e-08
1.20523e-05
-3.74227e-08
1.20421e-05
1.55375e-09
1.20288e-05
1.64613e-09
1.20229e-05
2.09891e-09
1.20245e-05
3.3417e-08
1.20247e-05
6.43023e-08
1.20229e-05
7.32207e-08
1.20246e-05
7.33178e-08
1.20301e-05
7.60885e-08
1.20367e-05
8.14679e-08
1.20403e-05
8.25593e-08
7.58418e-08
1.20431e-05
1.26375e-05
-3.85274e-08
1.26322e-05
-5.28131e-08
1.263e-05
2.34949e-08
1.26336e-05
8.56711e-09
1.26426e-05
3.00523e-08
1.26468e-05
8.69942e-08
1.26403e-05
4.37158e-08
1.26325e-05
-3.6541e-08
1.2629e-05
-3.39088e-08
1.2621e-05
9.49654e-09
1.26083e-05
1.44065e-08
1.26015e-05
8.9341e-09
1.26031e-05
3.17984e-08
1.26051e-05
6.228e-08
1.26039e-05
7.43912e-08
1.26044e-05
7.28613e-08
1.26086e-05
7.18313e-08
1.26151e-05
7.49678e-08
1.26199e-05
7.77914e-08
7.31261e-08
1.26226e-05
1.32419e-05
-3.34785e-08
1.32377e-05
-4.86033e-08
1.32351e-05
2.60497e-08
1.32372e-05
6.49616e-09
1.32463e-05
2.0895e-08
1.32515e-05
8.18233e-08
1.32447e-05
5.05786e-08
1.32358e-05
-2.77214e-08
1.3233e-05
-3.10436e-08
1.32274e-05
1.50254e-08
1.32158e-05
2.60729e-08
1.32081e-05
1.66451e-08
1.3209e-05
3.08629e-08
1.32124e-05
5.88313e-08
1.32127e-05
7.41845e-08
1.32122e-05
7.32873e-08
1.32152e-05
6.88388e-08
1.3221e-05
6.92057e-08
1.32264e-05
7.23976e-08
6.96601e-08
1.32298e-05
1.38751e-05
-2.83925e-08
1.38719e-05
-4.54197e-08
1.38694e-05
2.85562e-08
1.38698e-05
6.09614e-09
1.38787e-05
1.19902e-08
1.3885e-05
7.55398e-08
1.38783e-05
5.72801e-08
1.38684e-05
-1.7832e-08
1.38656e-05
-2.82252e-08
1.38624e-05
1.81755e-08
1.38525e-05
3.60363e-08
1.38441e-05
2.50131e-08
1.38439e-05
3.10714e-08
1.38481e-05
5.45818e-08
1.385e-05
7.22753e-08
1.38495e-05
7.38731e-08
1.38511e-05
6.71593e-08
1.3856e-05
6.43615e-08
1.38613e-05
6.70655e-08
6.5479e-08
1.38655e-05
1.45386e-05
-2.32852e-08
1.45362e-05
-4.3056e-08
1.45341e-05
3.06198e-08
1.45328e-05
7.37909e-09
1.4541e-05
3.84149e-09
1.45484e-05
6.809e-08
1.45425e-05
6.32567e-08
1.45316e-05
-6.99629e-09
1.45282e-05
-2.4837e-08
1.45273e-05
1.9167e-08
1.45195e-05
4.37674e-08
1.45109e-05
3.36749e-08
1.45094e-05
3.25642e-08
1.45136e-05
5.03178e-08
1.45171e-05
6.87965e-08
1.45173e-05
7.36659e-08
1.45177e-05
6.67871e-08
1.45216e-05
6.04608e-08
1.45265e-05
6.21568e-08
6.12143e-08
1.45308e-05
1.52338e-05
-1.82212e-08
1.5232e-05
-4.12222e-08
1.52307e-05
3.1888e-08
1.52279e-05
1.01584e-08
1.52348e-05
-2.97773e-09
1.52433e-05
5.95789e-08
1.52386e-05
6.78883e-08
1.52271e-05
4.55351e-09
1.52227e-05
-2.04055e-08
1.52234e-05
1.84663e-08
1.52182e-05
4.89414e-08
1.52098e-05
4.21003e-08
1.52071e-05
3.52612e-08
1.52106e-05
4.67303e-08
1.52152e-05
6.42353e-08
1.52169e-05
7.19861e-08
1.52165e-05
6.71684e-08
1.52191e-05
5.78555e-08
1.52237e-05
5.75261e-08
5.74446e-08
1.52275e-05
1.59624e-05
-1.3309e-08
1.59608e-05
-3.95771e-08
1.59606e-05
3.20833e-08
1.59566e-05
1.41131e-08
1.59616e-05
-7.94158e-09
1.59709e-05
5.02683e-08
1.59681e-05
7.0647e-08
1.59563e-05
1.63494e-08
1.59505e-05
-1.45764e-08
1.59522e-05
1.67401e-08
1.59497e-05
5.14565e-08
1.59422e-05
4.96318e-08
1.59385e-05
3.89738e-08
1.5941e-05
4.42398e-08
1.5946e-05
5.9215e-08
1.59492e-05
6.87775e-08
1.59491e-05
6.72592e-08
1.59501e-05
5.68665e-08
1.59545e-05
5.31585e-08
5.42029e-08
1.59577e-05
1.6726e-05
-8.69167e-09
1.67242e-05
-3.77604e-08
1.67252e-05
3.10511e-08
1.67205e-05
1.87808e-08
1.67232e-05
-1.0638e-08
1.67329e-05
4.05627e-08
1.67324e-05
7.12065e-08
1.67209e-05
2.77905e-08
1.67137e-05
-7.3096e-09
1.67156e-05
1.48036e-08
1.67156e-05
5.14808e-08
1.67096e-05
5.55912e-08
1.67052e-05
4.34205e-08
1.67064e-05
4.29717e-08
1.67113e-05
5.43435e-08
1.67156e-05
6.45128e-08
1.67168e-05
6.60681e-08
1.67165e-05
5.71462e-08
1.672e-05
4.96815e-08
5.08982e-08
1.67233e-05
1.75262e-05
-4.51689e-09
1.75239e-05
-3.546e-08
1.75261e-05
2.87996e-08
1.75213e-05
2.3612e-08
1.75216e-05
-1.08955e-08
1.75311e-05
3.10478e-08
1.75329e-05
6.94273e-08
1.75224e-05
3.82355e-08
1.75139e-05
1.18105e-09
1.75153e-05
1.34727e-08
1.75173e-05
4.94069e-08
1.75135e-05
5.94367e-08
1.75088e-05
4.81335e-08
1.75088e-05
4.28907e-08
1.75131e-05
5.01168e-08
1.75178e-05
5.97811e-08
1.75206e-05
6.3313e-08
1.75201e-05
5.76347e-08
1.7522e-05
4.77533e-08
4.72804e-08
1.75256e-05
1.83647e-05
-9.1788e-10
1.83618e-05
-3.24676e-08
1.8365e-05
2.5529e-08
1.83606e-05
2.80344e-08
1.83586e-05
-8.85555e-09
1.83672e-05
2.24107e-08
1.83711e-05
6.55236e-08
1.83624e-05
4.6964e-08
1.83531e-05
1.04203e-08
1.83532e-05
1.34394e-08
1.83567e-05
4.58615e-08
1.83552e-05
6.09252e-08
1.83509e-05
5.24458e-08
1.83499e-05
4.38794e-08
1.83532e-05
4.68262e-08
1.8358e-05
5.50409e-08
1.83618e-05
5.94515e-08
1.83623e-05
5.71553e-08
1.83627e-05
4.73054e-08
4.38791e-08
1.83661e-05
1.92435e-05
2.01446e-09
1.92397e-05
-2.87031e-08
1.92436e-05
2.15834e-08
1.92401e-05
3.15272e-08
1.92362e-05
-4.93669e-09