/*--------------------------------*- C++ -*----------------------------------*\
| =========                 |                                                 |
| \\      /  F ield         | OpenFOAM: The Open Source CFD Toolbox           |
|  \\    /   O peration     | Version:  v1912                                 |
|   \\  /    A nd           | Website:  www.openfoam.com                      |
|    \\/     M anipulation  |                                                 |
\*---------------------------------------------------------------------------*/
FoamFile
{
    version     2.0;
    format      ascii;
    class       volVectorField;
    location    "7.55";
    object      U;
}
// * * * * * * * * * * * * * * * * * * * * * * * * * * * * * * * * * * * * * //

dimensions      [0 1 -1 0 0 0 0];


internalField   nonuniform List<vector> 
9600
(
(0.978925 -0.00829786 0)
(1.00299 0.00158797 0)
(1.00307 0.00479252 0)
(1.01131 0.00612165 0)
(0.97331 0.0141034 0)
(0.996166 -0.0203464 0)
(0.923279 0.00141434 0)
(1.08188 -0.0299568 0)
(0.911028 -0.0202716 0)
(1.08827 0.0111969 0)
(0.982912 0.0108326 0)
(1.04007 0.033129 0)
(1.02352 0.0268433 0)
(1.03089 0.0174906 0)
(1.00902 0.0281703 0)
(1.03123 -0.0122194 0)
(0.97038 0.01679 0)
(1.04979 -0.0329032 0)
(0.892118 -0.00059507 0)
(1.05077 -0.0438464 0)
(0.981839 -0.00818127 0)
(1.00246 0.00141776 0)
(1.00533 0.00470553 0)
(1.00983 0.00637792 0)
(0.977641 0.0141495 0)
(0.990162 -0.0196137 0)
(0.931238 -3.39729e-05 0)
(1.06267 -0.0296242 0)
(0.918033 -0.0206019 0)
(1.07971 0.0104357 0)
(0.993926 0.0113262 0)
(1.03226 0.0327495 0)
(1.03386 0.0270071 0)
(1.02077 0.01787 0)
(1.02444 0.0278606 0)
(1.01218 -0.0109468 0)
(1.00979 0.0156255 0)
(1.00286 -0.0304393 0)
(0.980736 -0.000634876 0)
(0.964103 -0.0428853 0)
(0.985906 -0.00807766 0)
(1.00087 0.00121739 0)
(1.00927 0.00465161 0)
(1.00752 0.00666853 0)
(0.983967 0.0142943 0)
(0.986215 -0.0191794 0)
(0.943198 -0.000613859 0)
(1.04255 -0.0293845 0)
(0.936616 -0.0209252 0)
(1.05942 0.00937293 0)
(1.01002 0.0120268 0)
(1.02377 0.0320513 0)
(1.03302 0.0271905 0)
(1.02174 0.0181335 0)
(1.01989 0.0278231 0)
(1.02372 -0.0103498 0)
(1.00823 0.0151685 0)
(1.01879 -0.0286154 0)
(0.991498 -0.00161351 0)
(0.985589 -0.0346928 0)
(0.99013 -0.00799007 0)
(0.998567 0.0010248 0)
(1.01304 0.00461288 0)
(1.00498 0.00690603 0)
(0.990161 0.0144372 0)
(0.984807 -0.0187261 0)
(0.956461 -0.00127621 0)
(1.0225 -0.0293412 0)
(0.958547 -0.0211486 0)
(1.03538 0.00836042 0)
(1.02119 0.0125154 0)
(1.01787 0.0316342 0)
(1.02775 0.0272305 0)
(1.01928 0.0183037 0)
(1.02202 0.0276966 0)
(1.02288 -0.00999808 0)
(1.01483 0.015284 0)
(1.01481 -0.0284651 0)
(0.996327 -0.000147683 0)
(0.982396 -0.0334848 0)
(0.993762 -0.00790576 0)
(0.996359 0.000831856 0)
(1.01491 0.00456862 0)
(1.00232 0.00711636 0)
(0.995247 0.0145688 0)
(0.986292 -0.0183306 0)
(0.968355 -0.00169754 0)
(1.00672 -0.0293992 0)
(0.974588 -0.021295 0)
(1.01677 0.00751401 0)
(1.02428 0.0127176 0)
(1.0145 0.0315318 0)
(1.02413 0.0272583 0)
(1.01854 0.0184297 0)
(1.02446 0.0272611 0)
(1.02767 -0.00914553 0)
(1.01786 0.014352 0)
(1.02052 -0.0262305 0)
(0.998806 -0.000778452 0)
(0.988166 -0.0301235 0)
(0.996416 -0.00782299 0)
(0.994783 0.000642869 0)
(1.0143 0.00453213 0)
(0.999552 0.00730454 0)
(0.999456 0.014659 0)
(0.98975 -0.017978 0)
(0.978033 -0.00193812 0)
(0.99608 -0.0294572 0)
(0.981438 -0.0214075 0)
(1.00565 0.0068212 0)
(1.02217 0.0127292 0)
(1.01292 0.0314718 0)
(1.02361 0.0272685 0)
(1.02072 0.0183679 0)
(1.02797 0.0269087 0)
(1.03096 -0.00871356 0)
(1.0213 0.0140187 0)
(1.02201 -0.0248889 0)
(1.00137 -0.000773572 0)
(0.990385 -0.0269001 0)
(0.9981 -0.00774182 0)
(0.993866 0.000475523 0)
(1.01176 0.00451411 0)
(0.996877 0.00744578 0)
(1.00339 0.0146824 0)
(0.9938 -0.0176583 0)
(0.986064 -0.00203021 0)
(0.989652 -0.0294247 0)
(0.980989 -0.0215221 0)
(0.998976 0.00618409 0)
(1.01821 0.01261 0)
(1.01249 0.0312929 0)
(1.025 0.027163 0)
(1.02406 0.0182514 0)
(1.03161 0.0264381 0)
(1.03326 -0.00801345 0)
(1.0236 0.0135112 0)
(1.02347 -0.0231259 0)
(1.00353 -0.000862808 0)
(0.992971 -0.0236554 0)
(0.999069 -0.00766021 0)
(0.993355 0.000338757 0)
(1.00843 0.00451506 0)
(0.994663 0.00751727 0)
(1.00729 0.014634 0)
(0.99726 -0.0173651 0)
(0.993312 -0.00200809 0)
(0.986144 -0.0292332 0)
(0.976671 -0.0216396 0)
(0.993639 0.00553052 0)
(1.01388 0.0123815 0)
(1.0125 0.0309548 0)
(1.02675 0.0269826 0)
(1.02687 0.0180753 0)
(1.03434 0.0260126 0)
(1.03445 -0.00726814 0)
(1.0249 0.0129884 0)
(1.02386 -0.0213139 0)
(1.00514 -0.00106332 0)
(0.994878 -0.0205333 0)
(0.999636 -0.00757558 0)
(0.99298 0.000230462 0)
(1.0053 0.00453028 0)
(0.993193 0.00751019 0)
(1.01089 0.0145218 0)
(0.999508 -0.0171004 0)
(1.00008 -0.00191161 0)
(0.984771 -0.0288427 0)
(0.971442 -0.0217252 0)
(0.988464 0.00483918 0)
(1.00946 0.0120377 0)
(1.01227 0.0304701 0)
(1.02779 0.0267522 0)
(1.02839 0.0178823 0)
(1.03569 0.0256043 0)
(1.03452 -0.00642628 0)
(1.02509 0.0124394 0)
(1.02335 -0.0194025 0)
(1.00612 -0.00131578 0)
(0.996136 -0.0175025 0)
(1.00005 -0.0074854 0)
(0.992552 0.000142941 0)
(1.00291 0.00455311 0)
(0.992535 0.00742953 0)
(1.0137 0.0143702 0)
(1.00058 -0.016868 0)
(1.00591 -0.00178409 0)
(0.985229 -0.0282393 0)
(0.967315 -0.0217488 0)
(0.983598 0.00410998 0)
(1.00481 0.0115751 0)
(1.01128 0.0298486 0)
(1.02755 0.0264852 0)
(1.02836 0.0176776 0)
(1.03555 0.0251972 0)
(1.03357 -0.00550013 0)
(1.02428 0.0118743 0)
(1.02197 -0.0174256 0)
(1.00646 -0.00162023 0)
(0.996732 -0.0146273 0)
(1.00045 -0.00738757 0)
(0.991993 6.89931e-05 0)
(1.00127 0.00457607 0)
(0.992595 0.00729143 0)
(1.01545 0.0142033 0)
(1.00102 -0.0166681 0)
(1.0099 -0.00166453 0)
(0.987244 -0.0274552 0)
(0.965356 -0.021689 0)
(0.979488 0.00337971 0)
(0.999794 0.011019 0)
(1.00905 0.0291038 0)
(1.02578 0.0261866 0)
(1.02682 0.0174625 0)
(1.03402 0.0247707 0)
(1.03177 -0.00449651 0)
(1.02265 0.0113002 0)
(1.01992 -0.015425 0)
(1.00622 -0.00196982 0)
(0.996839 -0.0119315 0)
(1.00088 -0.00728095 0)
(0.991354 5.00403e-06 0)
(1.00012 0.00459143 0)
(0.993202 0.0071135 0)
(1.01622 0.0140275 0)
(1.00154 -0.0164852 0)
(1.01149 -0.00157992 0)
(0.990214 -0.0265634 0)
(0.965695 -0.0215302 0)
(0.976401 0.00271604 0)
(0.994528 0.0104153 0)
(1.00536 0.028263 0)
(1.02253 0.0258524 0)
(1.02409 0.017234 0)
(1.03138 0.0243022 0)
(1.02937 -0.00343549 0)
(1.02047 0.0107108 0)
(1.0175 -0.0134332 0)
(1.00553 -0.00233656 0)
(0.99661 -0.00944345 0)
(1.00134 -0.00716535 0)
(0.990787 -5.19249e-05 0)
(0.999196 0.00459252 0)
(0.994116 0.00690942 0)
(1.0163 0.0138427 0)
(1.00256 -0.0162898 0)
(1.01092 -0.00154092 0)
(0.993278 -0.0256446 0)
(0.967671 -0.0212729 0)
(0.97444 0.00218097 0)
(0.989716 0.00981957 0)
(1.00072 0.0273538 0)
(1.01841 0.0254672 0)
(1.02083 0.0169874 0)
(1.02812 0.0237796 0)
(1.02668 -0.00234146 0)
(1.01805 0.0101193 0)
(1.01503 -0.011467 0)
(1.0046 -0.00268893 0)
(0.996198 -0.0071873 0)
(1.0018 -0.00704195 0)
(0.990427 -9.96351e-05 0)
(0.998356 0.00457796 0)
(0.995048 0.00668667 0)
(1.01591 0.0136439 0)
(1.00407 -0.0160574 0)
(1.00913 -0.00154235 0)
(0.995752 -0.0247515 0)
(0.970274 -0.0209423 0)
(0.973582 0.00179094 0)
(0.986376 0.00927076 0)
(0.996361 0.0264066 0)
(1.01438 0.0250169 0)
(1.01776 0.016719 0)
(1.02475 0.0232066 0)
(1.02395 -0.0012334 0)
(1.01568 0.0095402 0)
(1.01273 -0.0095531 0)
(1.00366 -0.00299268 0)
(0.995732 -0.00519236 0)
(1.00225 -0.00691265 0)
(0.9903 -0.000139914 0)
(0.997555 0.00455302 0)
(0.995755 0.00644764 0)
(1.01514 0.013423 0)
(1.00577 -0.0157782 0)
(1.00714 -0.00156806 0)
(0.997458 -0.0238929 0)
(0.972704 -0.0205656 0)
(0.973563 0.00151155 0)
(0.984987 0.00877661 0)
(0.993334 0.0254497 0)
(1.01112 0.0245092 0)
(1.01521 0.0164415 0)
(1.02157 0.0225897 0)
(1.02129 -0.00013549 0)
(1.01352 0.00896499 0)
(1.01074 -0.00773749 0)
(1.0029 -0.0032101 0)
(0.995323 -0.00346835 0)
(1.00268 -0.00677984 0)
(0.99034 -0.000171856 0)
(0.996797 0.00452364 0)
(0.996139 0.00619774 0)
(1.014 0.0131723 0)
(1.00735 -0.0154602 0)
(1.00551 -0.00160251 0)
(0.998616 -0.0230505 0)
(0.974662 -0.020151 0)
(0.973855 0.00129993 0)
(0.984956 0.00832032 0)
(0.991655 0.0245107 0)
(1.00849 0.0239752 0)
(1.01299 0.0161714 0)
(1.01858 0.0219448 0)
(1.01875 0.00093689 0)
(1.01163 0.00840236 0)
(1.00908 -0.00604448 0)
(1.00239 -0.00331501 0)
(0.995046 -0.00202209 0)
(1.00303 -0.00664473 0)
(0.990463 -0.000193485 0)
(0.996105 0.00449497 0)
(0.996254 0.00594322 0)
(1.01258 0.0128878 0)
(1.00865 -0.0151172 0)
(1.00433 -0.00163937 0)
(0.999497 -0.0222083 0)
(0.976232 -0.0197032 0)
(0.973953 0.0011242 0)
(0.985117 0.0078832 0)
(0.990461 0.0236113 0)
(1.00591 0.0234445 0)
(1.0107 0.0159093 0)
(1.0157 0.0212922 0)
(1.01638 0.0019795 0)
(1.01006 0.0078766 0)
(1.00773 -0.00447427 0)
(1.00213 -0.00329653 0)
(0.994941 -0.000852996 0)
(1.00328 -0.00650708 0)
(0.990616 -0.000208634 0)
(0.995508 0.00447109 0)
(0.996227 0.00568894 0)
(1.01108 0.0125686 0)
(1.00964 -0.0147617 0)
(1.00347 -0.00168015 0)
(1.00021 -0.0213593 0)
(0.977579 -0.0192236 0)
(0.973682 0.00098868 0)
(0.984688 0.00745991 0)
(0.988979 0.0227597 0)
(1.00303 0.0229222 0)
(1.00824 0.0156402 0)
(1.01296 0.0206231 0)
(1.01425 0.00296596 0)
(1.00885 0.00738817 0)
(1.00666 -0.00303602 0)
(1.00207 -0.00315824 0)
(0.995011 6.14754e-05 0)
(1.00342 -0.00636556 0)
(0.990781 -0.000218969 0)
(0.995023 0.00445453 0)
(0.99617 0.00543721 0)
(1.00965 0.0122156 0)
(1.01036 -0.0144005 0)
(1.00284 -0.00172739 0)
(1.00076 -0.0205039 0)
(0.978781 -0.018708 0)
(0.973204 0.000918991 0)
(0.983658 0.0070565 0)
(0.987127 0.0219456 0)
(1.00004 0.0223958 0)
(1.00585 0.0153433 0)
(1.01053 0.0199207 0)
(1.01245 0.00384494 0)
(1.00801 0.00694323 0)
(1.00584 -0.00172103 0)
(1.00215 -0.00290792 0)
(0.995242 0.000747576 0)
(1.00347 -0.00621904 0)
(0.990953 -0.000226301 0)
(0.994649 0.0044461 0)
(0.99614 0.00518811 0)
(1.00839 0.0118315 0)
(1.01081 -0.0140358 0)
(1.00237 -0.00178198 0)
(1.0011 -0.0196404 0)
(0.979846 -0.0181583 0)
(0.972786 0.000927796 0)
(0.982471 0.00667895 0)
(0.985314 0.0211471 0)
(0.997403 0.0218585 0)
(1.00384 0.0149996 0)
(1.00854 0.0191875 0)
(1.011 0.00461672 0)
(1.00749 0.00652909 0)
(1.00522 -0.000525948 0)
(1.00229 -0.00256491 0)
(0.995611 0.0012346 0)
(1.00348 -0.00606679 0)
(0.991121 -0.000232351 0)
(0.99437 0.00444492 0)
(0.99615 0.0049415 0)
(1.00731 0.0114203 0)
(1.01103 -0.0136675 0)
(1.00201 -0.00184585 0)
(1.00126 -0.018761 0)
(0.980778 -0.0175837 0)
(0.972611 0.00101006 0)
(0.981543 0.00633388 0)
(0.983954 0.0203394 0)
(0.995433 0.0213155 0)
(1.00241 0.0145965 0)
(1.00704 0.0184398 0)
(1.00984 0.00529284 0)
(1.00721 0.00616179 0)
(1.00476 0.000557325 0)
(1.00245 -0.00212757 0)
(0.996094 0.00156447 0)
(1.00347 -0.00590804 0)
(0.991281 -0.000239318 0)
(0.994169 0.00445 0)
(0.996194 0.004696 0)
(1.0064 0.0109864 0)
(1.01102 -0.0132943 0)
(1.00172 -0.00191963 0)
(1.00129 -0.0178622 0)
(0.981615 -0.0169892 0)
(0.972726 0.00114401 0)
(0.981056 0.00602063 0)
(0.983203 0.0195155 0)
(0.994179 0.0207545 0)
(1.00152 0.014146 0)
(1.00595 0.0176922 0)
(1.00886 0.00588697 0)
(1.00704 0.00584704 0)
(1.00441 0.00152359 0)
(1.00256 -0.00158626 0)
(0.996659 0.00177996 0)
(1.00345 -0.00574236 0)
(0.991435 -0.000248168 0)
(0.994036 0.00446134 0)
(0.996261 0.00445056 0)
(1.00564 0.010532 0)
(1.01077 -0.0129144 0)
(1.00144 -0.00200564 0)
(1.00122 -0.0169404 0)
(0.982411 -0.0163849 0)
(0.973095 0.00131909 0)
(0.981002 0.00573095 0)
(0.982985 0.0186687 0)
(0.993487 0.020184 0)
(1.00103 0.0136655 0)
(1.00513 0.0169523 0)
(1.00798 0.00642426 0)
(1.00686 0.00556072 0)
(1.0041 0.00238127 0)
(1.0026 -0.000947658 0)
(0.997265 0.00189477 0)
(1.00342 -0.00556942 0)
(0.991592 -0.000260246 0)
(0.993967 0.00447861 0)
(0.996349 0.00420474 0)
(1.00502 0.0100656 0)
(1.01029 -0.0125231 0)
(1.00115 -0.00210939 0)
(1.00109 -0.0159971 0)
(0.983214 -0.0157762 0)
(0.973655 0.00151726 0)
(0.981284 0.00546988 0)
(0.983129 0.0177792 0)
(0.993132 0.0196234 0)
(1.00073 0.0131753 0)
(1.00445 0.0162176 0)
(1.00711 0.006914 0)
(1.0066 0.00530033 0)
(1.00381 0.00313042 0)
(1.00253 -0.000220019 0)
(0.99787 0.00193942 0)
(1.00336 -0.00538933 0)
(0.991772 -0.00027605 0)
(0.993966 0.00449978 0)
(0.996465 0.00396038 0)
(1.00454 0.00959169 0)
(1.00961 -0.0121161 0)
(1.00084 -0.00223631 0)
(1.00089 -0.0150391 0)
(0.984052 -0.0151617 0)
(0.974349 0.00172115 0)
(0.981791 0.00523981 0)
(0.983471 0.0168567 0)
(0.992913 0.019065 0)
(1.00048 0.0126815 0)
(1.00381 0.0154799 0)
(1.00622 0.00737076 0)
(1.00622 0.00507941 0)
(1.0035 0.00373142 0)
(1.00235 0.000563907 0)
(0.998431 0.00195796 0)
(1.00325 -0.00520235 0)
(0.991988 -0.000296219 0)
(0.994036 0.00452445 0)
(0.996622 0.00371685 0)
(1.00421 0.0091148 0)
(1.00875 -0.0116879 0)
(1.00052 -0.00239103 0)
(1.00061 -0.014069 0)
(0.98493 -0.0145496 0)
(0.975141 0.00192556 0)
(0.982431 0.00504886 0)
(0.983904 0.0159061 0)
(0.992701 0.0185063 0)
(1.00018 0.012211 0)
(1.00316 0.0147438 0)
(1.00531 0.0078052 0)
(1.00573 0.00491951 0)
(1.00319 0.00418138 0)
(1.00208 0.00138263 0)
(0.998916 0.00199894 0)
(1.00307 -0.00500773 0)
(0.992249 -0.000324565 0)
(0.994175 0.00455219 0)
(0.996835 0.00347389 0)
(1.00402 0.0086424 0)
(1.0078 -0.0112342 0)
(1.00022 -0.0025743 0)
(1.00024 -0.013098 0)
(0.98583 -0.0139392 0)
(0.976009 0.00211489 0)
(0.98314 0.0049056 0)
(0.984389 0.0149257 0)
(0.992457 0.0179601 0)
(0.999824 0.0117827 0)
(1.00253 0.0140012 0)
(1.0044 0.00820847 0)
(1.00517 0.00483838 0)
(1.00289 0.00448759 0)
(1.00175 0.00219132 0)
(0.999301 0.00209728 0)
(1.00282 -0.00480465 0)
(0.992554 -0.000364538 0)
(0.994371 0.00458132 0)
(0.997106 0.00323334 0)
(1.00396 0.0081768 0)
(1.00681 -0.0107504 0)
(0.999953 -0.00278382 0)
(0.999771 -0.0121364 0)
(0.986722 -0.0133249 0)
(0.976939 0.00227895 0)
(0.983882 0.00481906 0)
(0.984938 0.0139351 0)
(0.992201 0.0174136 0)
(0.999432 0.0114008 0)
(1.00194 0.0132355 0)
(1.00352 0.00856892 0)
(1.00458 0.00483259 0)
(1.00261 0.00464209 0)
(1.00142 0.00293514 0)
(0.999577 0.00228584 0)
(1.00251 -0.00459355 0)
(0.992888 -0.000415548 0)
(0.994602 0.00460886 0)
(0.997425 0.0029945 0)
(1.00399 0.00771984 0)
(1.00588 -0.0102321 0)
(0.999734 -0.00301402 0)
(0.999222 -0.0111868 0)
(0.987576 -0.0127077 0)
(0.977913 0.00241274 0)
(0.984634 0.00479501 0)
(0.985567 0.0129513 0)
(0.991981 0.0168483 0)
(0.99905 0.0110824 0)
(1.00146 0.0124566 0)
(1.00273 0.00887759 0)
(1.00401 0.00491238 0)
(1.00239 0.00466854 0)
(1.00111 0.00358922 0)
(0.999743 0.00258995 0)
(1.00217 -0.00437355 0)
(0.993237 -0.000480732 0)
(0.994842 0.00463352 0)
(0.997766 0.00275744 0)
(1.00407 0.00726877 0)
(1.00505 -0.00967303 0)
(0.999566 -0.00326026 0)
(0.998625 -0.0102554 0)
(0.988366 -0.0121021 0)
(0.978909 0.00249864 0)
(0.985375 0.00482869 0)
(0.98628 0.011984 0)
(0.991843 0.016272 0)
(0.99871 0.0108252 0)
(1.00111 0.0116772 0)
(1.00204 0.00909439 0)
(1.00347 0.00509631 0)
(1.00223 0.00462467 0)
(1.00087 0.00410045 0)
(0.999805 0.00299208 0)
(1.00184 -0.00414456 0)
(0.993582 -0.000561604 0)
(0.99507 0.00465189 0)
(0.998099 0.00252633 0)
(1.00414 0.00682591 0)
(1.00436 -0.00907739 0)
(0.999442 -0.00351134 0)
(0.998024 -0.00935486 0)
(0.989082 -0.0114951 0)
(0.979904 0.00252464 0)
(0.986087 0.00491741 0)
(0.98706 0.0110557 0)
(0.991805 0.0156634 0)
(0.998416 0.0106297 0)
(1.00089 0.0109221 0)
(1.00147 0.00921232 0)
(1.00298 0.00534859 0)
(1.00211 0.00455319 0)
(1.00072 0.00445265 0)
(0.99979 0.00346416 0)
(1.00155 -0.00390816 0)
(0.993915 -0.00065182 0)
(0.995273 0.00466037 0)
(0.998396 0.00230448 0)
(1.00416 0.00638111 0)
(1.0038 -0.00844646 0)
(0.99936 -0.0037543 0)
(0.997462 -0.00848829 0)
(0.989724 -0.0108703 0)
(0.980885 0.00249158 0)
(0.986753 0.00503902 0)
(0.987869 0.0101809 0)
(0.991864 0.0150087 0)
(0.998158 0.0104894 0)
(1.00079 0.0102066 0)
(1.00102 0.00922187 0)
(1.00253 0.00564552 0)
(1.00202 0.00449956 0)
(1.00066 0.00466475 0)
(0.999721 0.00393263 0)
(1.00131 -0.00366364 0)
(0.994232 -0.000754348 0)
(0.995451 0.00465702 0)
(0.998638 0.00209589 0)
(1.00411 0.00593322 0)
(1.00335 -0.00778599 0)
(0.999312 -0.00397539 0)
(0.99697 -0.0076617 0)
(0.990305 -0.010233 0)
(0.981847 0.00239664 0)
(0.987365 0.0051776 0)
(0.98867 0.00936699 0)
(0.992001 0.0143067 0)
(0.997913 0.0103965 0)
(1.00074 0.00955582 0)
(1.00068 0.00912285 0)
(1.00209 0.00598037 0)
(1.00193 0.00451192 0)
(1.00067 0.00473382 0)
(0.999634 0.00434495 0)
(1.00112 -0.00341407 0)
(0.994535 -0.000863058 0)
(0.995612 0.00464024 0)
(0.998821 0.00190742 0)
(1.00398 0.00547942 0)
(1.00299 -0.00711467 0)
(0.999295 -0.00416615 0)
(0.996566 -0.00688564 0)
(0.990839 -0.00956488 0)
(0.982798 0.00223183 0)
(0.987923 0.00532145 0)
(0.989432 0.00862416 0)
(0.992199 0.0135606 0)
(0.997666 0.0103341 0)
(1.00072 0.00898917 0)
(1.00043 0.00892242 0)
(1.00168 0.00630963 0)
(1.00182 0.00458959 0)
(1.00074 0.00471137 0)
(0.999566 0.0046551 0)
(1.00097 -0.00316038 0)
(0.994831 -0.000974933 0)
(0.995765 0.00460417 0)
(0.99895 0.00174423 0)
(1.00378 0.00501694 0)
(1.00266 -0.00643596 0)
(0.999301 -0.00431804 0)
(0.996254 -0.00616603 0)
(0.99134 -0.00886161 0)
(0.983744 0.00201844 0)
(0.988436 0.00544751 0)
(0.990139 0.00797156 0)
(0.992443 0.0127734 0)
(0.997411 0.0102653 0)
(1.00068 0.00852626 0)
(1.00026 0.00864809 0)
(1.00129 0.00658703 0)
(1.00166 0.00472813 0)
(1.00082 0.00466514 0)
(0.999538 0.00482588 0)
(1.00084 -0.00290502 0)
(0.995123 -0.00108794 0)
(0.99592 0.00454441 0)
(0.999037 0.00161497 0)
(1.00354 0.00454953 0)
(1.00235 -0.00576531 0)
(0.999325 -0.00441591 0)
(0.996027 -0.00550601 0)
(0.99182 -0.00813924 0)
(0.984693 0.00177313 0)
(0.988922 0.00554923 0)
(0.990781 0.00742032 0)
(0.992726 0.011954 0)
(0.997156 0.0101734 0)
(1.00061 0.00816668 0)
(1.00015 0.00831237 0)
(1.00093 0.00678938 0)
(1.00146 0.00493111 0)
(1.0009 0.00464516 0)
(0.999558 0.00490458 0)
(1.00074 -0.00264876 0)
(0.995417 -0.00119758 0)
(0.996079 0.00445722 0)
(0.999093 0.00152733 0)
(1.00328 0.00408296 0)
(1.00204 -0.00511559 0)
(0.999361 -0.00446978 0)
(0.995873 -0.00491225 0)
(0.992281 -0.00737455 0)
(0.985647 0.00150596 0)
(0.989399 0.00559099 0)
(0.991361 0.0069655 0)
(0.993043 0.0111324 0)
(0.996916 0.0100475 0)
(1.0005 0.00789786 0)
(1.00009 0.00794645 0)
(1.00063 0.0069142 0)
(1.00124 0.00514968 0)
(1.00096 0.004646 0)
(0.99962 0.004905 0)
(1.00065 -0.00239555 0)
(0.995713 -0.00129639 0)
(0.996245 0.0043378 0)
(0.99913 0.00147102 0)
(1.00301 0.0036214 0)
(1.00173 -0.00447779 0)
(0.999402 -0.0044578 0)
(0.995784 -0.00439761 0)
(0.992725 -0.00659747 0)
(0.986594 0.00124754 0)
(0.98988 0.00557605 0)
(0.991886 0.00659658 0)
(0.993391 0.0103159 0)
(0.996707 0.00986057 0)
(1.00035 0.00770977 0)
(1.00005 0.00759929 0)
(1.00038 0.00698312 0)
(1.001 0.00536752 0)
(1.00099 0.00468855 0)
(0.999717 0.00484905 0)
(1.00056 -0.00214493 0)
(0.996012 -0.00139348 0)
(0.996416 0.00418945 0)
(0.999155 0.00146289 0)
(1.00276 0.00316488 0)
(1.00142 -0.00389171 0)
(0.999444 -0.00437623 0)
(0.995748 -0.00394322 0)
(0.993151 -0.00582867 0)
(0.987534 0.00100081 0)
(0.990374 0.00549502 0)
(0.992358 0.00631091 0)
(0.993762 0.00953682 0)
(0.996543 0.00961338 0)
(1.00018 0.00758482 0)
(1.00005 0.00726418 0)
(1.00019 0.00696407 0)
(1.00076 0.00557992 0)
(1.00097 0.00476645 0)
(0.999809 0.00481988 0)
(1.00048 -0.00190028 0)
(0.996311 -0.00146992 0)
(0.996592 0.00399713 0)
(0.99917 0.00147876 0)
(1.00253 0.00274216 0)
(1.00111 -0.00334158 0)
(0.999489 -0.00424392 0)
(0.99576 -0.0035632 0)
(0.993555 -0.00505802 0)
(0.988451 0.000790239 0)
(0.990887 0.00533523 0)
(0.99279 0.00608318 0)
(0.994148 0.00880868 0)
(0.996435 0.00930933 0)
(0.999995 0.00750822 0)
(1.00005 0.0069956 0)
(1.00006 0.00688385 0)
(1.00053 0.00575159 0)
(1.00093 0.00483782 0)
(0.999905 0.00480501 0)
(1.00041 -0.00166567 0)
(0.996609 -0.00153466 0)
(0.996771 0.00379575 0)
(0.99918 0.00152169 0)
(1.00232 0.00233237 0)
(1.00082 -0.00283209 0)
(0.999529 -0.0040347 0)
(0.995817 -0.00324218 0)
(0.993943 -0.0043297 0)
(0.989338 0.000642663 0)
(0.991418 0.00513134 0)
(0.993187 0.00588879 0)
(0.994539 0.0081463 0)
(0.996392 0.00893915 0)
(0.999808 0.00743105 0)
(1.00005 0.0067859 0)
(0.999992 0.00678419 0)
(1.00032 0.00588848 0)
(1.00087 0.00488029 0)
(0.999985 0.00471209 0)
(1.00034 -0.00143628 0)
(0.996905 -0.0015771 0)
(0.99696 0.00355645 0)
(0.99918 0.0015795 0)
(1.00213 0.00197405 0)
(1.00055 -0.00239767 0)
(0.999567 -0.00377649 0)
(0.995911 -0.00295331 0)
(0.994316 -0.0036421 0)
(0.99019 0.000530972 0)
(0.991963 0.0048849 0)
(0.993559 0.00572958 0)
(0.994923 0.00755395 0)
(0.996406 0.00852826 0)
(0.999633 0.00733376 0)
(1.00005 0.00660432 0)
(0.999972 0.00668013 0)
(1.00012 0.00607017 0)
(1.00075 0.00507275 0)
(1.00006 0.00474455 0)
(1.00028 -0.00122578 0)
(0.997193 -0.00158958 0)
(0.997155 0.00330645 0)
(0.999177 0.00163335 0)
(1.00195 0.00164459 0)
(1.0003 -0.00198796 0)
(0.9996 -0.0034813 0)
(0.99604 -0.00271679 0)
(0.994675 -0.00299403 0)
(0.991 0.000487949 0)
(0.992528 0.00459361 0)
(0.993913 0.00557446 0)
(0.995293 0.00702335 0)
(0.996479 0.0080584 0)
(0.999484 0.00717479 0)
(1.00006 0.00642519 0)
(1.00002 0.00646044 0)
(0.999998 0.00605759 0)
(1.00063 0.00513859 0)
(1.00003 0.00471598 0)
(1.00022 -0.00101932 0)
(0.997476 -0.00159111 0)
(0.997364 0.0030455 0)
(0.999164 0.00168994 0)
(1.00179 0.00136926 0)
(1.00008 -0.00165982 0)
(0.999625 -0.00312981 0)
(0.9962 -0.00247704 0)
(0.995031 -0.00244151 0)
(0.99176 0.000501853 0)
(0.993097 0.00428463 0)
(0.994263 0.00540454 0)
(0.995641 0.00658988 0)
(0.996591 0.00759133 0)
(0.999366 0.00692824 0)
(1.00004 0.00614811 0)
(1.00006 0.00607246 0)
(0.999887 0.00585197 0)
(1.0005 0.00512888 0)
(1.00008 0.00479759 0)
(1.00016 -0.00083892 0)
(0.997744 -0.00153453 0)
(0.997581 0.00275186 0)
(0.999156 0.00171755 0)
(1.00163 0.00115253 0)
(0.99988 -0.00134912 0)
(0.999649 -0.00279804 0)
(0.996374 -0.00224503 0)
(0.995378 -0.00192875 0)
(0.99248 0.000555004 0)
(0.993674 0.00397745 0)
(0.994619 0.00519103 0)
(0.995977 0.00618079 0)
(0.996722 0.00713426 0)
(0.999252 0.00668218 0)
(1.00001 0.00585732 0)
(1.00014 0.00563594 0)
(0.999895 0.00555237 0)
(1.00049 0.00498018 0)
(1.0002 0.00479509 0)
(1.00011 -0.000663748 0)
(0.998 -0.00147614 0)
(0.997807 0.00247812 0)
(0.999144 0.00172589 0)
(1.00148 0.00098014 0)
(0.999706 -0.00110903 0)
(0.999659 -0.00240463 0)
(0.996578 -0.00202078 0)
(0.995729 -0.00148521 0)
(0.993143 0.000635779 0)
(0.994237 0.0036737 0)
(0.994973 0.00497995 0)
(0.996299 0.00582235 0)
(0.996894 0.0066533 0)
(0.999167 0.006397 0)
(0.999923 0.00575445 0)
(1.00019 0.00557639 0)
(0.999886 0.00559415 0)
(1.00048 0.00519798 0)
(1.00042 0.00491022 0)
(1.00006 -0.000513325 0)
(0.998235 -0.0013634 0)
(0.998039 0.00218555 0)
(0.999137 0.00168374 0)
(1.00134 0.000879136 0)
(0.999565 -0.0008778 0)
(0.999673 -0.0020528 0)
(0.996768 -0.00178069 0)
(0.996073 -0.0011034 0)
(0.993769 0.000749635 0)
(0.994803 0.00340195 0)
(0.995346 0.00472266 0)
(0.996594 0.00548641 0)
(0.997063 0.00624309 0)
(0.999162 0.00610129 0)
(0.999958 0.00557169 0)
(1.00033 0.00537128 0)
(1.00001 0.00548215 0)
(1.00049 0.00523561 0)
(1.00041 0.00496216 0)
(1.00002 -0.000378305 0)
(0.998454 -0.00123581 0)
(0.998263 0.00190567 0)
(0.999138 0.00163161 0)
(1.00122 0.00080371 0)
(0.999433 -0.000686421 0)
(0.999672 -0.00170542 0)
(0.996988 -0.00150726 0)
(0.996424 -0.000761025 0)
(0.994345 0.000861402 0)
(0.995328 0.00314867 0)
(0.995708 0.00444109 0)
(0.996904 0.00520209 0)
(0.997271 0.00590834 0)
(0.999148 0.00581847 0)
(0.999897 0.00531735 0)
(1.0004 0.00505811 0)
(1.0001 0.00517139 0)
(1.00054 0.00502607 0)
(1.00063 0.00491874 0)
(0.999981 -0.000250155 0)
(0.998649 -0.00111322 0)
(0.998489 0.00166506 0)
(0.999148 0.00153706 0)
(1.00109 0.000763973 0)
(0.999337 -0.000503853 0)
(0.999689 -0.00133193 0)
(0.997184 -0.00127456 0)
(0.996755 -0.000470416 0)
(0.994884 0.000993953 0)
(0.995847 0.00295674 0)
(0.996101 0.0041961 0)
(0.997213 0.00493313 0)
(0.997458 0.00558627 0)
(0.999166 0.00558392 0)
(0.999921 0.00526624 0)
(1.00053 0.00507078 0)
(1.00027 0.00522498 0)
(1.00068 0.00521921 0)
(1.00076 0.00501502 0)
(0.999946 -0.000148851 0)
(0.998829 -0.000962734 0)
(0.998697 0.00143511 0)
(0.999162 0.00142763 0)
(1.00099 0.000742029 0)
(0.999254 -0.000320077 0)
(0.999681 -0.00103597 0)
(0.997394 -0.00100732 0)
(0.997106 -0.000174448 0)
(0.995388 0.00112021 0)
(0.996319 0.00279644 0)
(0.996466 0.00395482 0)
(0.997521 0.00466856 0)
(0.997697 0.00533213 0)
(0.999249 0.00542234 0)
(0.999949 0.00518128 0)
(1.00066 0.00493036 0)
(1.00045 0.00504312 0)
(1.00074 0.00504124 0)
(1.00081 0.00481743 0)
(0.999915 -4.55928e-05 0)
(0.998985 -0.000841614 0)
(0.998899 0.00125148 0)
(0.999191 0.00132339 0)
(1.00089 0.000711882 0)
(0.999193 -0.00018261 0)
(0.999702 -0.000693907 0)
(0.997594 -0.000731291 0)
(0.997421 5.36948e-05 0)
(0.995851 0.00124315 0)
(0.996784 0.00271424 0)
(0.996858 0.00376892 0)
(0.997849 0.00445635 0)
(0.997937 0.00508575 0)
(0.999328 0.00518271 0)
(0.999975 0.00502249 0)
(1.00075 0.00480164 0)
(1.00062 0.00484317 0)
(1.00088 0.0048964 0)
(1.00089 0.00481705 0)
(0.999886 3.56059e-05 0)
(0.999128 -0.00071013 0)
(0.999086 0.00110836 0)
(0.999219 0.0011886 0)
(1.00081 0.000691801 0)
(0.999161 -1.97663e-05 0)
(0.999707 -0.000402341 0)
(0.997782 -0.000494379 0)
(0.997755 0.000287163 0)
(0.996308 0.00139872 0)
(0.997208 0.00265229 0)
(0.99721 0.00358278 0)
(0.998156 0.00422179 0)
(0.998182 0.0048255 0)
(0.99945 0.00495387 0)
(1.00004 0.0048793 0)
(1.00086 0.00469554 0)
(1.00081 0.00471202 0)
(1.00105 0.00471254 0)
(1.00095 0.00476944 0)
(0.999862 0.00011454 0)
(0.999251 -0.000594906 0)
(0.999257 0.000982292 0)
(0.99926 0.00107563 0)
(1.00075 0.000680541 0)
(0.999143 7.90142e-05 0)
(0.999731 -0.00012318 0)
(0.997973 -0.0002128 0)
(0.998067 0.000492594 0)
(0.996718 0.00148382 0)
(0.997606 0.00258602 0)
(0.997578 0.00344981 0)
(0.998482 0.00402388 0)
(0.998441 0.00458707 0)
(0.999581 0.00473266 0)
(1.00012 0.00470601 0)
(1.00095 0.00455286 0)
(1.00094 0.00458371 0)
(1.00124 0.00448288 0)
(1.00105 0.00463229 0)
(0.99984 0.00017894 0)
(0.999362 -0.000488359 0)
(0.999415 0.000899357 0)
(0.999298 0.000963315 0)
(1.0007 0.000656408 0)
(0.999156 0.00018817 0)
(0.999764 0.000138118 0)
(0.998144 3.83459e-05 0)
(0.998368 0.000665327 0)
(0.997129 0.0015927 0)
(0.997994 0.00257567 0)
(0.997911 0.00332506 0)
(0.998773 0.00381261 0)
(0.998692 0.00434471 0)
(0.999737 0.00452009 0)
(1.00022 0.00455226 0)
(1.00108 0.0043871 0)
(1.00108 0.0044768 0)
(1.00142 0.0043415 0)
(1.00124 0.00444321 0)
(0.999822 0.000238526 0)
(0.999459 -0.00038862 0)
(0.999556 0.000822989 0)
(0.999342 0.000868526 0)
(1.00066 0.0006536 0)
(0.999186 0.000264741 0)
(0.999811 0.000350951 0)
(0.998314 0.000292179 0)
(0.998657 0.000853705 0)
(0.99751 0.00167068 0)
(0.998345 0.00252087 0)
(0.998232 0.00320075 0)
(0.999079 0.00365713 0)
(0.998967 0.00415924 0)
(0.999915 0.00431925 0)
(1.00032 0.0043912 0)
(1.0012 0.00420408 0)
(1.00122 0.00431633 0)
(1.00156 0.00423085 0)
(1.00145 0.00420753 0)
(0.999807 0.000290042 0)
(0.999546 -0.000302005 0)
(0.999686 0.000772644 0)
(0.999386 0.000791951 0)
(1.00064 0.000647195 0)
(0.999238 0.000329533 0)
(0.999879 0.000537008 0)
(0.998481 0.000526234 0)
(0.998924 0.00102214 0)
(0.99787 0.00172778 0)
(0.998693 0.00248871 0)
(0.998551 0.00311895 0)
(0.999366 0.00350914 0)
(0.999215 0.00396259 0)
(1.00009 0.00409672 0)
(1.00043 0.00422463 0)
(1.00134 0.00406064 0)
(1.00141 0.00413859 0)
(1.00169 0.00414338 0)
(1.00165 0.00402331 0)
(0.999794 0.000335744 0)
(0.999622 -0.00022354 0)
(0.999803 0.000733703 0)
(0.99943 0.000725182 0)
(1.00062 0.000663859 0)
(0.999307 0.000389658 0)
(0.999965 0.000678673 0)
(0.998649 0.000728312 0)
(0.999176 0.0011827 0)
(0.99821 0.00179813 0)
(0.99902 0.00244899 0)
(0.99885 0.00301546 0)
(0.999646 0.00335888 0)
(0.999476 0.00380249 0)
(1.00029 0.00393448 0)
(1.00057 0.0040768 0)
(1.00145 0.00392621 0)
(1.00159 0.00393109 0)
(1.00181 0.00399497 0)
(1.0018 0.00389293 0)
(0.999784 0.000375408 0)
(0.999688 -0.000154139 0)
(0.999911 0.000706138 0)
(0.999479 0.000676302 0)
(1.00061 0.000692302 0)
(0.999384 0.000445297 0)
(1.00007 0.000788955 0)
(0.998824 0.000898745 0)
(0.999416 0.00132922 0)
(0.998524 0.00185207 0)
(0.999329 0.002407 0)
(0.999146 0.00292173 0)
(0.99993 0.0032313 0)
(0.999735 0.00365676 0)
(1.00048 0.00376478 0)
(1.0007 0.00389683 0)
(1.00155 0.00377682 0)
(1.00178 0.00374545 0)
(1.002 0.00381419 0)
(1.00193 0.00381198 0)
(0.999776 0.000409389 0)
(0.999747 -9.11164e-05 0)
(1.00001 0.000688155 0)
(0.99953 0.000638706 0)
(1.00061 0.000735232 0)
(0.999469 0.00051295 0)
(1.00019 0.00087776 0)
(0.999006 0.00102943 0)
(0.999642 0.00144461 0)
(0.998818 0.00189691 0)
(0.999623 0.00236761 0)
(0.999429 0.00283195 0)
(1.00021 0.00308515 0)
(0.999992 0.00349704 0)
(1.00068 0.00360612 0)
(1.00086 0.00375082 0)
(1.00165 0.00365711 0)
(1.00194 0.003602 0)
(1.00221 0.00359983 0)
(1.00205 0.00368907 0)
(0.999771 0.000438183 0)
(0.999796 -3.25299e-05 0)
(1.0001 0.000678291 0)
(0.999588 0.000610052 0)
(1.00062 0.000791244 0)
(0.999556 0.000586887 0)
(1.00031 0.000948557 0)
(0.999195 0.00112518 0)
(0.999866 0.00153837 0)
(0.999093 0.00193585 0)
(0.9999 0.00232173 0)
(0.999699 0.00274421 0)
(1.00048 0.00294704 0)
(1.00026 0.00333427 0)
(1.00089 0.00345883 0)
(1.00102 0.00360843 0)
(1.00175 0.00351757 0)
(1.00206 0.00346782 0)
(1.00241 0.00338576 0)
(1.00222 0.00351647 0)
(0.999769 0.000461584 0)
(0.999839 2.1959e-05 0)
(1.00018 0.000681474 0)
(0.999649 0.000586184 0)
(1.00064 0.000842865 0)
(0.999643 0.000666643 0)
(1.00044 0.00101249 0)
(0.999391 0.00119383 0)
(1.00008 0.00160692 0)
(0.999348 0.00196424 0)
(1.00016 0.00227447 0)
(0.999957 0.00265817 0)
(1.00074 0.0028192 0)
(1.00053 0.00316421 0)
(1.00111 0.0032855 0)
(1.00119 0.00346065 0)
(1.00186 0.00338017 0)
(1.00217 0.00335543 0)
(1.0026 0.00322625 0)
(1.00243 0.00331719 0)
(0.999768 0.000482097 0)
(0.999875 7.01796e-05 0)
(1.00025 0.000693339 0)
(0.999712 0.000569011 0)
(1.00067 0.000888407 0)
(0.999729 0.000745064 0)
(1.00056 0.00107416 0)
(0.999587 0.00124053 0)
(1.0003 0.00164235 0)
(0.999589 0.0019871 0)
(1.0004 0.00223087 0)
(1.0002 0.0025714 0)
(1.00098 0.00269457 0)
(1.0008 0.00300375 0)
(1.00135 0.00309951 0)
(1.00138 0.00330648 0)
(1.00198 0.0032457 0)
(1.00227 0.00322983 0)
(1.00274 0.00309542 0)