/*--------------------------------*- C++ -*----------------------------------*\
| =========                 |                                                 |
| \\      /  F ield         | OpenFOAM: The Open Source CFD Toolbox           |
|  \\    /   O peration     | Version:  v1912                                 |
|   \\  /    A nd           | Website:  www.openfoam.com                      |
|    \\/     M anipulation  |                                                 |
\*---------------------------------------------------------------------------*/
FoamFile
{
    version     2.0;
    format      ascii;
    class       volScalarField;
    location    "6";
    object      p;
}
// * * * * * * * * * * * * * * * * * * * * * * * * * * * * * * * * * * * * * //

dimensions      [0 2 -2 0 0 0 0];


internalField   nonuniform List<scalar> 
9600
(
4.83159e-11
0.00208905
-0.0069151
-0.00569566
0.000843514
0.00190729
0.000751979
0.00120061
-0.00216573
-0.00186203
-0.00523762
-0.00770454
-0.00782106
-0.00851917
-0.00892239
-0.00750085
-0.00811246
-0.00805623
-0.00863451
-0.00796173
3.1519e-06
0.00205978
-0.00687706
-0.00571779
0.00082559
0.00197596
0.000745809
0.00117108
-0.00213809
-0.00192943
-0.00522807
-0.00770458
-0.00781888
-0.00840535
-0.0089083
-0.00751379
-0.00809921
-0.00807578
-0.00860182
-0.00805236
4.43435e-06
0.00202508
-0.006834
-0.00573479
0.000817981
0.00204109
0.000717619
0.00113596
-0.00211067
-0.00199004
-0.00520513
-0.00768783
-0.00780429
-0.00835204
-0.00888912
-0.00754276
-0.008072
-0.00810908
-0.00857262
-0.0081688
3.51315e-06
0.00198407
-0.0067999
-0.00572298
0.000818785
0.00205871
0.000677722
0.00110196
-0.0020923
-0.00206677
-0.00517913
-0.00764292
-0.0077915
-0.0083055
-0.00886049
-0.00758081
-0.00804689
-0.00815048
-0.00855787
-0.0082929
7.17669e-07
0.00193443
-0.00677018
-0.00567841
0.000826143
0.00203145
0.000631803
0.00106864
-0.00207944
-0.00215453
-0.00514959
-0.00757568
-0.00778485
-0.00826385
-0.00882369
-0.0076262
-0.00802703
-0.00819466
-0.00855688
-0.00841183
-3.86044e-06
0.00187577
-0.00673888
-0.00559962
0.000835809
0.00196725
0.000582557
0.00103695
-0.00206901
-0.00225362
-0.00511324
-0.0074948
-0.00778329
-0.00822451
-0.00878204
-0.00767506
-0.00800962
-0.00823795
-0.00856809
-0.00852286
-9.96028e-06
0.00180902
-0.00670218
-0.00549294
0.00084085
0.00187572
0.00053416
0.00100553
-0.00206082
-0.00236028
-0.00506879
-0.00740783
-0.00778408
-0.00818627
-0.0087372
-0.00772206
-0.00799308
-0.00827905
-0.00859105
-0.00862787
-1.72258e-05
0.00173558
-0.00665811
-0.00536979
0.000834951
0.00176913
0.000489022
0.000971387
-0.00205488
-0.00247089
-0.00501793
-0.00731978
-0.00778499
-0.00814847
-0.00868963
-0.00776522
-0.00797786
-0.00831725
-0.00862513
-0.0087289
-2.53401e-05
0.00164875
-0.00660644
-0.00524051
0.0008158
0.0016578
0.000446103
0.000932528
-0.00205047
-0.00258362
-0.00496367
-0.00723321
-0.0077847
-0.00811073
-0.00864109
-0.00780404
-0.00796484
-0.00835232
-0.00866848
-0.00882659
-3.40443e-05
0.00156646
-0.00654826
-0.00511148
0.000784922
0.0015464
0.000402653
0.000888641
-0.00204648
-0.00269775
-0.00490867
-0.00714878
-0.00778184
-0.008073
-0.00859327
-0.00783814
-0.00795546
-0.00838421
-0.00871779
-0.00892167
-4.32049e-05
0.00148089
-0.006485
-0.0049856
0.000745561
0.0014357
0.000356211
0.000840395
-0.00204181
-0.00281305
-0.00485464
-0.00706607
-0.00777749
-0.00803484
-0.00854727
-0.00786803
-0.00795091
-0.00841224
-0.00877046
-0.00901635
-5.27924e-05
0.00139238
-0.00641778
-0.0048637
0.000700914
0.00132514
0.00030539
0.0007886
-0.00203572
-0.0029295
-0.00480237
-0.0069844
-0.00777065
-0.00799526
-0.00850443
-0.00789437
-0.00795071
-0.00843699
-0.00882575
-0.00911266
-6.28089e-05
0.00130112
-0.00634726
-0.00474569
0.000653427
0.00121411
0.000249675
0.000733732
-0.00202795
-0.0030471
-0.00475227
-0.006903
-0.00776125
-0.00795341
-0.00846574
-0.00791697
-0.00795393
-0.00846124
-0.00888251
-0.00921033
-7.32704e-05
0.00120726
-0.0062737
-0.00463124
0.000604637
0.00110234
0.000188911
0.000675858
-0.00201851
-0.00316567
-0.00470469
-0.0068211
-0.0077497
-0.0079087
-0.00843126
-0.0079357
-0.00796012
-0.00848801
-0.00893799
-0.00930776
-8.42082e-05
0.00111091
-0.00619715
-0.00452011
0.000555405
0.000989903
0.000123057
0.000614804
-0.00200762
-0.00328485
-0.00466005
-0.006738
-0.00773674
-0.00786061
-0.00840054
-0.0079514
-0.00796818
-0.00851944
-0.00898998
-0.00940337
-9.56656e-05
0.00101221
-0.0061176
-0.00441225
0.000506161
0.000877078
5.20665e-05
0.00055028
-0.00199551
-0.00340417
-0.00461883
-0.00665301
-0.00772319
-0.00780895
-0.00837298
-0.00796546
-0.00797579
-0.0085572
-0.00903868
-0.00949469
-0.000107691
0.000911277
-0.00603496
-0.00430774
0.000457049
0.000764246
-2.4196e-05
0.000481993
-0.0019824
-0.00352306
-0.00458163
-0.0065655
-0.00770969
-0.00775395
-0.00834759
-0.00797969
-0.00798006
-0.00860196
-0.00908616
-0.00957769
-0.00012034
0.000808268
-0.00594919
-0.00420682
0.000408028
0.000651836
-0.000105925
0.000409704
-0.00196846
-0.00364094
-0.00454921
-0.00647492
-0.00769665
-0.00769625
-0.00832273
-0.00799658
-0.00797855
-0.00865247
-0.00913525
-0.00964829
-0.000133676
0.000703341
-0.00586025
-0.00410981
0.000358952
0.000540327
-0.000193323
0.000333226
-0.00195385
-0.00375719
-0.00452238
-0.00638071
-0.00768451
-0.0076367
-0.00829601
-0.00801894
-0.00797024
-0.00870628
-0.00918955
-0.00970357
-0.000147768
0.000596681
-0.00576817
-0.00401705
0.000309614
0.00043026
-0.000286528
0.0002524
-0.00193873
-0.00387114
-0.00450203
-0.00628239
-0.00767381
-0.00757578
-0.008265
-0.0080493
-0.00795594
-0.0087594
-0.00925259
-0.00974243
-0.000162699
0.000488498
-0.00567305
-0.0039289
0.000259745
0.000322227
-0.000385565
0.000167062
-0.00192327
-0.00398208
-0.004489
-0.00617978
-0.0076644
-0.00751604
-0.00823127
-0.00808938
-0.00793807
-0.00880662
-0.0093269
-0.00976622
-0.000178561
0.000379023
-0.00557501
-0.00384567
0.000208996
0.000216845
-0.000490339
7.70104e-05
-0.00190761
-0.00408924
-0.00448414
-0.00607281
-0.00765557
-0.00746
-0.00818352
-0.00813881
-0.00792009
-0.00884252
-0.00941357
-0.00977911
-0.000195473
0.000268516
-0.00547423
-0.00376761
0.000156939
0.000114699
-0.000600675
-1.80006e-05
-0.0018919
-0.00419192
-0.00448833
-0.00596148
-0.00764634
-0.00741047
-0.00812383
-0.0081959
-0.00790639
-0.00886215
-0.00951174
-0.0097879
-0.000213576
0.000157273
-0.00537098
-0.00369491
0.000103055
1.63137e-05
-0.000716306
-0.000118307
-0.00187625
-0.0042895
-0.00450233
-0.005846
-0.00763537
-0.00736995
-0.00805236
-0.00825798
-0.00790176
-0.00886144
-0.00961812
-0.00980198
-0.000233028
4.56294e-05
-0.00526553
-0.0036276
4.67615e-05
-7.7939e-05
-0.000836829
-0.00022428
-0.00186076
-0.00438131
-0.00452687
-0.00572685
-0.00762094
-0.00734058
-0.0079694
-0.00832124
-0.00791078
-0.00883813
-0.00972637
-0.00983176
-0.000254006
-6.60416e-05
-0.00515828
-0.00356557
-1.25604e-05
-0.000167858
-0.000961669
-0.000336242
-0.00184567
-0.00446665
-0.00456244
-0.00560492
-0.00760116
-0.00732427
-0.0078758
-0.0083811
-0.00793781
-0.00879278
-0.00982674
-0.00988623
-0.000276701
-0.000177339
-0.00504966
-0.00350862
-7.55507e-05
-0.000253321
-0.00109008
-0.00045462
-0.00183113
-0.00454487
-0.00460954
-0.00548116
-0.0075739
-0.00732264
-0.00777324
-0.0084324
-0.00798629
-0.00872908
-0.00990693
-0.00997142
-0.000301335
-0.000287828
-0.00494016
-0.00345649
-0.000142772
-0.000334298
-0.00122116
-0.000579881
-0.00181728
-0.00461538
-0.00466869
-0.0053567
-0.00753702
-0.00733712
-0.0076642
-0.00846919
-0.00805785
-0.00865456
-0.00995398
-0.0100872
-0.000328166
-0.000397015
-0.00483035
-0.00340886
-0.000214694
-0.00041098
-0.00135387
-0.000712351
-0.00180457
-0.00467736
-0.00474011
-0.0052332
-0.00748843
-0.00736876
-0.00755205
-0.0084851
-0.00815199
-0.0085805
-0.00995653
-0.0102234
-0.000357472
-0.000504383
-0.00472084
-0.00336538
-0.000291699
-0.000483676
-0.00148697
-0.000852385
-0.00179359
-0.00472978
-0.00482389
-0.00511275
-0.00742576
-0.00741765
-0.00744172
-0.00847433
-0.00826537
-0.00851957
-0.0099074
-0.0103598
-0.000389544
-0.0006094
-0.00461229
-0.00332575
-0.000373945
-0.000552841
-0.00161905
-0.00100031
-0.00178521
-0.00477158
-0.00491981
-0.00499777
-0.00734651
-0.00748309
-0.00733961
-0.00843166
-0.00839079
-0.00848436
-0.00980834
-0.0104725
-0.000424708
-0.00071148
-0.00450537
-0.00328969
-0.000461462
-0.000619222
-0.00174856
-0.00115617
-0.00178057
-0.00480176
-0.00502728
-0.00489118
-0.00724832
-0.00756371
-0.0072531
-0.00835281
-0.00851718
-0.00848584
-0.00967289
-0.0105353
-0.000463308
-0.000810022
-0.00440079
-0.00325694
-0.000554084
-0.000683809
-0.0018739
-0.00131962
-0.00178101
-0.00481944
-0.00514537
-0.00479651
-0.00712889
-0.00765616
-0.00718988
-0.00823689
-0.0086317
-0.00853036
-0.00952265
-0.0105256
-0.000505696
-0.000904436
-0.00429925
-0.00322741
-0.000651295
-0.000747739
-0.00199353
-0.00149004
-0.00178815
-0.00482374
-0.00527251
-0.00471808
-0.0069869
-0.00775452
-0.00715773
-0.00808803
-0.008721
-0.00861565
-0.00938038
-0.0104374
-0.000552232
-0.000994157
-0.00420127
-0.00320116
-0.000752268
-0.000812224
-0.00210621
-0.00166666
-0.00180382
-0.00481389
-0.00540603
-0.00466043
-0.00682269
-0.00785146
-0.00716394
-0.00791474
-0.00877148
-0.00873187
-0.00926682
-0.0102846
-0.000603272
-0.0010787
-0.00410721
-0.00317855
-0.000855738
-0.000878295
-0.0022114
-0.00184815
-0.0018298
-0.00478994
-0.00554276
-0.00462777
-0.00663816
-0.00793896
-0.00721345
-0.0077287
-0.00877074
-0.00886624
-0.00919704
-0.0100914
-0.000659162
-0.00115762
-0.00401718
-0.00316013
-0.000960663
-0.0009469
-0.00230921
-0.00203255
-0.00186741
-0.00475219
-0.00567958
-0.0046246
-0.00643689
-0.00800728
-0.00730804
-0.00754498
-0.00870803
-0.00900265
-0.00917896
-0.00988416
-0.000720198
-0.00123065
-0.0039311
-0.00314653
-0.00106573
-0.00101871
-0.00240006
-0.00221786
-0.00191848
-0.00470146
-0.00581219
-0.00465491
-0.00622566
-0.00804515
-0.00744461
-0.00738169
-0.00857774
-0.00912159
-0.00921353
-0.00968929
-0.000786615
-0.00129771
-0.00384847
-0.00313905
-0.00117004
-0.00109349
-0.0024848
-0.00240142
-0.00198409
-0.00464048
-0.00593609
-0.00471925
-0.00601314
-0.00804359
-0.00761544
-0.00725808
-0.0083836
-0.00919903
-0.00929228
-0.00952902
-0.00085859
-0.001359
-0.00376815
-0.00313902
-0.00127397
-0.00117009
-0.00256448
-0.00258192
-0.0020638
-0.0045714
-0.00604886
-0.00481679
-0.00580794
-0.00799538
-0.00780729
-0.00719285
-0.0081458
-0.00920965
-0.00939421
-0.00941605
-0.000936141
-0.00141503
-0.00368891
-0.00314745
-0.00137784
-0.00124769
-0.00263945
-0.00275804
-0.00215891
-0.00449617
-0.0061464
-0.00494584
-0.0056197
-0.00789816
-0.00800451
-0.00719507
-0.00789009
-0.00914152
-0.0094922
-0.00935118
-0.0010192
-0.00146646
-0.00360917
-0.00316505
-0.00148316
-0.00132493
-0.0027103
-0.00292867
-0.00226839
-0.00441888
-0.00622508
-0.00510111
-0.00545729
-0.00775249
-0.00819464
-0.00726877
-0.00764451
-0.00899684
-0.00955956
-0.00931967
-0.00110759
-0.00151433
-0.00352751
-0.00319155
-0.00159244
-0.00140017
-0.00277625
-0.00309454
-0.0023913
-0.00434219
-0.00628253
-0.0052769
-0.00532957
-0.00756311
-0.00835437
-0.00740829
-0.00743989
-0.00878467
-0.00957558
-0.00930128
-0.00120079
-0.00155981
-0.00344295
-0.00322652
-0.00170752
-0.0014737
-0.00283616
-0.00325408
-0.00252881
-0.00426798
-0.00631677
-0.00546463
-0.00524048
-0.00734804
-0.00845665
-0.00758705
-0.00728765
-0.00850363
-0.00951732
-0.00934575
-0.00129833
-0.00160413
-0.00335511
-0.00326811
-0.00183186
-0.00154494
-0.00288884
-0.0034082
-0.00267815
-0.00419925
-0.00632624
-0.00565736
-0.00519327
-0.00711058
-0.00848918
-0.00777692
-0.00719762
-0.00820928
-0.0094012
-0.00944992
-0.00139946
-0.00164868
-0.00326409
-0.00331415
-0.00196692
-0.00161492
-0.00293262
-0.00355616
-0.00283972
-0.00413859
-0.0063064
-0.00585001
-0.00519142
-0.0068574
-0.00845628
-0.00795752
-0.00717285
-0.00792762
-0.00924337
-0.0095831
-0.00150281
-0.00169509
-0.00317043
-0.00336229
-0.00211328
-0.0016869
-0.00296507
-0.00369568
-0.00301452
-0.0040873
-0.0062594
-0.0060304
-0.00523395
-0.00661786
-0.008361
-0.00814123
-0.00724465
-0.00771379
-0.0090471
-0.00961125
-0.00160773
-0.0017449
-0.00307592
-0.00340789
-0.00227205
-0.00176277
-0.0029849
-0.00382674
-0.0031999
-0.00404935
-0.00618315
-0.00619118
-0.00532556
-0.00639027
-0.00818941
-0.0082762
-0.00738253
-0.00754934
-0.00882197
-0.00962248
-0.00171217
-0.00179975
-0.00298298
-0.00344746
-0.00244189
-0.00184863
-0.00299362
-0.00394185
-0.00339477
-0.00403197
-0.0060783
-0.00632612
-0.00546219
-0.0062089
-0.00797579
-0.00836318
-0.0075696
-0.0074757
-0.00857896
-0.00952716
-0.00181461
-0.001861
-0.00289536
-0.00347633
-0.00261952
-0.00195162
-0.00299246
-0.00403694
-0.00359685
-0.00403896
-0.00595247
-0.00642892
-0.00563143
-0.00608531
-0.0077337
-0.00839174
-0.00777957
-0.00747657
-0.0083324
-0.00934359
-0.00191432
-0.00192907
-0.0028171
-0.00349094
-0.00280143
-0.00207659
-0.00298611
-0.00410762
-0.00379766
-0.00407551
-0.00581926
-0.00649432
-0.00581295
-0.00601949
-0.00749177
-0.00835366
-0.00796455
-0.00754287
-0.00811182
-0.00909312
-0.00200992
-0.00200421
-0.00275212
-0.00349006
-0.00298
-0.00222668
-0.00298312
-0.00414961
-0.00399085
-0.00414497
-0.00569013
-0.00651628
-0.00598822
-0.00601409
-0.00727126
-0.00824622
-0.00809542
-0.00765867
-0.00795206
-0.00881137
-0.00210118
-0.0020857
-0.00270329
-0.00347334
-0.00314821
-0.00240246
-0.00299346
-0.00416545
-0.00416741
-0.00424025
-0.00557339
-0.00650009
-0.0061502
-0.00605423
-0.00707693
-0.00809372
-0.00816569
-0.00779007
-0.00786945
-0.0085396
-0.00218791
-0.00217147
-0.00267248
-0.00344459
-0.0032999
-0.00260044
-0.00302649
-0.0041598
-0.00431805
-0.00435347
-0.00548091
-0.00645536
-0.00628376
-0.00612136
-0.00692297
-0.00792437
-0.00817196
-0.00789875
-0.00785095
-0.00831256
-0.00227014
-0.00226022
-0.00266087
-0.00340858
-0.00343049
-0.00281234
-0.00308875
-0.0041443
-0.00444092
-0.00447507
-0.00541331
-0.00638702
-0.00638337
-0.00620876
-0.00681273
-0.00774532
-0.00812315
-0.00797251
-0.0078717
-0.0081486
-0.00234843
-0.00234944
-0.002668
-0.00337262
-0.00353835
-0.00302567
-0.00318119
-0.00413234
-0.00453621
-0.00459443
-0.00536837
-0.00630603
-0.00645029
-0.00630334
-0.00674114
-0.00756964
-0.00803645
-0.00800855
-0.00790098
-0.00803719
-0.00242319
-0.00243785
-0.00269305
-0.0033439
-0.00362289
-0.00322871
-0.0033019
-0.00413382
-0.00460886
-0.00470782
-0.00534543
-0.00621915
-0.00648238
-0.00639148
-0.006706
-0.00741502
-0.00792153
-0.00800133
-0.00791893
-0.00796169
-0.00249521
-0.00252448
-0.00273393
-0.00332658
-0.00368703
-0.00341587
-0.0034425
-0.0041521
-0.00466549
-0.00481092
-0.00533946
-0.00613316
-0.00648487
-0.00646648
-0.00669827
-0.00728801
-0.00778982
-0.00795438
-0.00791975
-0.0079065
-0.00256551
-0.00260835
-0.00278852
-0.00332339
-0.00373748
-0.00358482
-0.00359078
-0.00418661
-0.0047118
-0.00490331
-0.00534859
-0.00605547
-0.00646337
-0.00652166
-0.00670468
-0.00718874
-0.00765878
-0.00787672
-0.00789879
-0.00786113
-0.00263511
-0.0026897
-0.00285335
-0.00333534
-0.00378029
-0.00373497
-0.0037395
-0.00423389
-0.00475144
-0.00498647
-0.00536994
-0.00598707
-0.0064216
-0.00655498
-0.00671849
-0.00711413
-0.00754057
-0.00778021
-0.00785233
-0.00781838
-0.00270459
-0.00276895
-0.00292557
-0.00336173
-0.0038198
-0.00386674
-0.00388439
-0.00429143
-0.00478624
-0.00505895
-0.00540053
-0.00593263
-0.00636825
-0.00656447
-0.00673243
-0.0070591
-0.00743856
-0.00767715
-0.00777807
-0.0077673
-0.00277488
-0.00284673
-0.00300278
-0.00340093
-0.00385879
-0.00398183
-0.00402232
-0.0043573
-0.00481859
-0.00512056
-0.00543734
-0.00589474
-0.0063112
-0.00654964
-0.006736
-0.00701613
-0.00735327
-0.00758141
-0.00768507
-0.00769875
-0.0028467
-0.00292363
-0.00308281
-0.00345095
-0.00389922
-0.0040826
-0.0041513
-0.00442943
-0.0048509
-0.00517195
-0.00547572
-0.00587074
-0.00625662
-0.00651929
-0.00672487
-0.00697606
-0.00727861
-0.00750139
-0.00759252
-0.00761057
-0.00292018
-0.00300005
-0.00316457
-0.00350977
-0.00394229
-0.00417127
-0.0042709
-0.00450574
-0.00488465
-0.00521383
-0.00551168
-0.0058583
-0.00620845
-0.00648033
-0.00670324
-0.00693312
-0.00720264
-0.00742939
-0.00751479
-0.00751292
-0.00299557
-0.00307642
-0.00324708
-0.00357552
-0.00398901
-0.00425007
-0.00438052
-0.00458421
-0.00492099
-0.00524826
-0.00554241
-0.00585422
-0.00616901
-0.00643382
-0.00667168
-0.00689258
-0.00712346
-0.00735027
-0.0074509
-0.0074256
-0.0030729
-0.0031531
-0.00332941
-0.00364654
-0.00404024
-0.00432142
-0.00447957
-0.00466311
-0.00496036
-0.0052768
-0.00556634
-0.00585332
-0.00614067
-0.00638593
-0.00662526
-0.00685475
-0.00705289
-0.00725907
-0.00738454
-0.007355
-0.00315211
-0.00323039
-0.003411
-0.00372138
-0.00409605
-0.00438751
-0.00456841
-0.00474039
-0.00500351
-0.00530168
-0.00558283
-0.00585064
-0.00611982
-0.00634816
-0.00656802
-0.00680695
-0.00699655
-0.00716444
-0.00730242
-0.00728945
-0.003233
-0.00330862
-0.00349141
-0.00379868
-0.00415656
-0.00445017
-0.00464776
-0.00481386
-0.00505035
-0.00532632
-0.00559344
-0.00584352
-0.00609673
-0.00632131
-0.00651531
-0.00674238
-0.00694564
-0.00708294
-0.00720709
-0.0072163
-0.00331529
-0.00338793
-0.00357081
-0.00387699
-0.00422148
-0.00451155
-0.00471897
-0.00488217
-0.00509868
-0.00535182
-0.00560163
-0.00583543
-0.0060663
-0.00629022
-0.0064765
-0.00667165
-0.00688558
-0.00701826
-0.0071146
-0.0071339
-0.00339858
-0.00346843
-0.00364944
-0.0039553
-0.00428983
-0.00457332
-0.00478422
-0.00494579
-0.00514718
-0.00537735
-0.0056065
-0.00582852
-0.00603604
-0.00624469
-0.00643904
-0.00660803
-0.00681074
-0.00695683
-0.00703318
-0.00704894
-0.0034823
-0.00355022
-0.00372772
-0.00403276
-0.00436109
-0.00463653
-0.00484498
-0.00500521
-0.00519614
-0.00540444
-0.00560841
-0.00581693
-0.0060106
-0.00619156
-0.00638706
-0.00654955
-0.00672704
-0.00688539
-0.00695877
-0.00696524
-0.00356585
-0.00363305
-0.00380637
-0.00410904
-0.00443364
-0.00470243
-0.00490451
-0.00506081
-0.00524383
-0.00543446
-0.00561309
-0.00580003
-0.00598362
-0.00613957
-0.00631792
-0.00648391
-0.00663855
-0.00679492
-0.00687886
-0.00688012
-0.00364896
-0.00371606
-0.00388563
-0.00418484
-0.00450665
-0.00476989
-0.00496621
-0.0051164
-0.00528887
-0.00546381
-0.00562314
-0.00578331
-0.00595066
-0.00609051
-0.00624188
-0.00640322
-0.00654419
-0.00668268
-0.00677502
-0.00677992
-0.00373113
-0.00379921
-0.00396587
-0.00426015
-0.00458028
-0.00483879
-0.00502982
-0.00517679
-0.00533507
-0.00549072
-0.00563377
-0.00576671
-0.00590957
-0.00603557
-0.00616341
-0.00630922
-0.00644071
-0.00655831
-0.00664579
-0.00665386
-0.00381201
-0.00388186
-0.00404774
-0.00433543
-0.0046541
-0.00491088
-0.00509751
-0.00524207
-0.00538869
-0.00552089
-0.00564227
-0.00574738
-0.00585882
-0.0059646
-0.00607411
-0.00620482
-0.0063362
-0.00644851
-0.00652678
-0.00652832
-0.00388953
-0.00396138
-0.00413015
-0.00441455
-0.00472899
-0.00498577
-0.0051739
-0.00531814
-0.00545674
-0.0055675
-0.00565012
-0.00570181
-0.00575159
-0.00579541
-0.00585783
-0.00596968
-0.00611779
-0.00628132
-0.00643462
-0.0065358
-0.00396451
-0.00403871
-0.00421018
-0.00449328
-0.00480665
-0.00506484
-0.00525751
-0.00541512
-0.00557656
-0.00572859
-0.00583497
-0.00583472
-0.00578505
-0.00572226
-0.00567166
-0.0056484
-0.00561105
-0.00553034
-0.00540921
-0.0052961
-0.00403897
-0.00410944
-0.00427318
-0.00454739
-0.00486489
-0.00513245
-0.00532533
-0.00546699
-0.00556752
-0.00562677
-0.00567475
-0.00566376
-0.00563206
-0.00562169
-0.0056326
-0.00570771
-0.0058612
-0.00605893
-0.00625732
-0.00640568
-0.00413655
-0.00422808
-0.00437019
-0.00461893
-0.00491977
-0.00518001
-0.00536816
-0.00549393
-0.00557643
-0.0056283
-0.00568804
-0.0057045
-0.00566847
-0.00562052
-0.00555993
-0.00547517
-0.00537828
-0.0052618
-0.00514886
-0.00507849
-0.00412525
-0.00421505
-0.00441517
-0.00472779
-0.00508462
-0.00538106
-0.0055666
-0.0056577
-0.00569159
-0.00569952
-0.0057131
-0.00568725
-0.00560844
-0.00551014
-0.00542688
-0.00535237
-0.00530217
-0.00527601
-0.00528339
-0.00535086
-0.0070976
-0.00930692
-0.0146227
-0.0191842
-0.0199079
-0.0183334
-0.0166891
-0.0154862
-0.0144962
-0.0134946
-0.012497
-0.0116855
-0.0111667
-0.0108557
-0.0106289
-0.0103542
-0.00986006
-0.00924363
-0.00880113
-0.0085248
-0.00823289
-0.00792374
-0.00760685
-0.00728335
-0.00698413
-0.00666334
-0.00628475
-0.00588689
-0.0055065
-0.00515954
-0.00482781
-0.00451087
-0.00420666
-0.00389768
-0.00358975
-0.00325829
-0.00290259
-0.00257966
-0.00226868
-0.00196585
-0.00173065
-0.0014943
-0.0012359
-0.000976268
-0.000624188
-0.000200867
0.000178356
0.000558968
0.000968618
0.00138237
0.00177806
0.00215095
0.0024824
0.00282753
0.00323358
0.00365996
0.00409146
0.00453789
0.00495179
0.00533475
0.00576324
0.0062434
0.00670204
0.0071538
0.00766046
0.00815357
0.00862975
0.00913597
0.0096686
0.0102271
0.0107703
0.0113302
0.0119049
0.0125155
0.0131273
0.0136759
0.0142572
0.0148562
0.0155143
0.0162245
0.0169423
0.0175767
0.01819
0.0188605
0.0195759
0.0203342
0.0211147
0.0218836
0.0226056
0.0233844
0.0241854
0.0249426
0.0257444
0.0266345
0.0274656
0.0283072
0.0291908
0.0301176
0.0310586
0.0319713
-0.00730114
-0.0093887
-0.0145222
-0.019029
-0.0198173
-0.0182907
-0.0166647
-0.0154711
-0.0144858
-0.0134863
-0.0124893
-0.0116778
-0.0111592
-0.0108489
-0.0106234
-0.01035
-0.00985671
-0.00924033
-0.00879795
-0.00852212
-0.00823055
-0.00792165
-0.00760498
-0.00728154
-0.00698245
-0.00666184
-0.00628332
-0.00588546
-0.00550508
-0.00515816
-0.0048265
-0.00450959
-0.00420543
-0.00389649
-0.00358863
-0.00325726
-0.00290159
-0.00257869
-0.00226777
-0.00196493
-0.00172979
-0.00149354
-0.00123515
-0.000975611
-0.000623616
-0.000200268
0.00017894
0.000559484
0.000969104
0.00138284
0.00177853
0.00215142
0.00248283
0.0028279
0.00323394
0.00366032
0.00409178
0.00453822
0.00495213
0.00533505
0.00576351
0.00624367
0.00670232
0.00715405
0.0076607
0.00815382
0.00862999
0.00913619
0.00966881
0.0102273
0.0107705
0.0113304
0.0119051
0.0125157
0.0131275
0.0136761
0.0142574
0.0148564
0.0155144
0.0162247
0.0169425
0.0175769
0.0181902
0.0188606
0.019576
0.0203343
0.0211148
0.0218837
0.0226057
0.0233845
0.0241855
0.0249427
0.0257445
0.0266346
0.0274657
0.0283073
0.0291909
0.0301177
0.0310588
0.0319715
-0.00760776
-0.00953328
-0.0143587
-0.0187569
-0.0196681
-0.0182351
-0.0166347
-0.0154495
-0.0144702
-0.0134752
-0.0124815
-0.0116719
-0.0111537
-0.0108431
-0.0106175
-0.0103449
-0.00985262
-0.00923673
-0.00879487
-0.00851959
-0.00822826
-0.00791967
-0.00760334
-0.00728003
-0.00698106
-0.0066606
-0.00628214
-0.0058843
-0.00550389
-0.00515701
-0.0048254
-0.00450855
-0.00420444
-0.00389552
-0.0035877
-0.0032564
-0.00290073
-0.00257787
-0.00226699
-0.0019641
-0.00172907
-0.00149293
-0.00123456
-0.000975129
-0.000623178
-0.000199745
0.000179429
0.000559906
0.000969516
0.00138324
0.00177893
0.00215183
0.00248318
0.00282817
0.00323422
0.00366061
0.00409205
0.0045385
0.00495242
0.00533529
0.00576371
0.0062439
0.00670255
0.00715424
0.0076609
0.00815403
0.00863017
0.00913637
0.00966898
0.0102275
0.0107707
0.0113306
0.0119052
0.0125159
0.0131277
0.0136763
0.0142575
0.0148565
0.0155145
0.0162248
0.0169426
0.017577
0.0181903
0.0188607
0.0195762
0.0203344
0.0211149
0.0218838
0.0226058
0.0233845
0.0241856
0.0249428
0.0257445
0.0266347
0.0274658
0.0283074
0.0291909
0.0301178
0.0310589
0.0319717
-0.0079051
-0.00966517
-0.0141481
-0.0184095
-0.0194566
-0.0181479
-0.0165828
-0.0154106
-0.0144424
-0.0134566
-0.0124702
-0.0116659
-0.0111496
-0.0108375
-0.0106095
-0.0103364
-0.00984576
-0.00923192
-0.00879107
-0.00851579
-0.00822442
-0.00791653
-0.00760111
-0.00727819
-0.00697939
-0.0066591
-0.00628084
-0.00588312
-0.00550265
-0.00515576
-0.00482427
-0.00450754
-0.00420351
-0.00389451
-0.00358667
-0.00325545
-0.00289981
-0.00257699
-0.00226609
-0.00196314
-0.00172826
-0.00149227
-0.00123392
-0.000974628
-0.000622702
-0.000199158
0.000179969
0.000560376
0.00096998
0.00138368
0.00177938
0.0021523
0.00248356
0.00282844
0.00323452
0.00366093
0.00409235
0.00453881
0.00495273
0.00533553
0.00576391
0.00624414
0.00670279
0.00715443
0.00766111
0.00815425
0.00863036
0.00913655
0.00966916
0.0102277
0.0107709
0.0113308
0.0119054
0.012516
0.0131279
0.0136765
0.0142577
0.0148567
0.0155147
0.0162249
0.0169428
0.0175772
0.0181904
0.0188608
0.0195763
0.0203346
0.021115
0.0218839
0.0226059
0.0233846
0.0241857
0.0249429
0.0257446
0.0266348
0.0274659
0.0283075
0.029191
0.0301179
0.0310591
0.0319721
-0.00818273
-0.00978393
-0.0139231
-0.018039
-0.0192181
-0.018044
-0.0165179
-0.0153582
-0.0144027
-0.0134294
-0.0124544
-0.0116587
-0.0111459
-0.0108318
-0.010599
-0.0103234
-0.00983514
-0.00922579
-0.00878695
-0.00851072
-0.00821831
-0.0079112
-0.00759739
-0.00727543
-0.00697692
-0.00665694
-0.00627923
-0.00588186
-0.00550129
-0.00515431
-0.00482302
-0.00450659
-0.00420268
-0.00389348
-0.00358548
-0.00325434
-0.00289881
-0.002576
-0.00226498
-0.00196192
-0.00172727
-0.00149147
-0.00123316
-0.000974025
-0.000622117
-0.000198468
0.000180603
0.000560954
0.00097054
0.00138421
0.00177991
0.00215285
0.00248399
0.00282875
0.00323488
0.00366131
0.00409269
0.00453916
0.00495309
0.0053358
0.00576415
0.00624441
0.00670305
0.00715464
0.00766134
0.0081545
0.00863056
0.00913674
0.00966934
0.0102279
0.0107711
0.0113309
0.0119056
0.0125162
0.0131282
0.0136766
0.0142578
0.0148568
0.0155148
0.016225
0.016943
0.0175774
0.0181905
0.0188609
0.0195764
0.0203347
0.0211151
0.0218841
0.022606
0.0233847
0.0241858
0.024943
0.0257447
0.0266349
0.027466
0.0283075
0.0291911
0.0301179
0.0310592
0.0319726
-0.00844241
-0.00990117
-0.013705
-0.0176645
-0.0189649
-0.0179319
-0.0164488
-0.0152996
-0.014356
-0.0133965
-0.012435
-0.0116499
-0.0111418
-0.0108253
-0.0105859
-0.0103061
-0.00982102
-0.0092186
-0.00878296
-0.00850492
-0.0082103
-0.00790363
-0.00759176
-0.0072711
-0.00697297
-0.00665355
-0.00627706
-0.00588052
-0.00549977
-0.00515253
-0.00482152
-0.00450568
-0.00420204
-0.00389251
-0.00358414
-0.00325312
-0.00289783
-0.00257496
-0.00226363
-0.00196038
-0.00172599
-0.00149043
-0.00123219
-0.000973217
-0.000621356
-0.000197669
0.000181344
0.000561674
0.000971219
0.00138482
0.00178054
0.00215351
0.0024845
0.00282911
0.00323531
0.00366177
0.0040931
0.00453957
0.00495351
0.00533614
0.00576443
0.00624471
0.00670335
0.00715489
0.0076616
0.00815476
0.00863077
0.00913694
0.00966953
0.0102281
0.0107713
0.0113311
0.0119057
0.0125164
0.0131284
0.0136768
0.014258
0.014857
0.0155149
0.0162252
0.0169433
0.0175776
0.0181906
0.018861
0.0195765
0.0203348
0.0211153
0.0218842
0.0226061
0.0233848
0.0241859
0.0249431
0.0257447
0.026635
0.0274661
0.0283076
0.0291912
0.030118
0.0310594
0.0319732
-0.0086857
-0.0100214
-0.0135008
-0.0172897
-0.0186977
-0.017812
-0.0163774
-0.015238
-0.014305
-0.0133599
-0.0124131
-0.0116398
-0.0111366
-0.0108174
-0.0105706
-0.010286
-0.00980464
-0.00921074
-0.00877921
-0.00849898
-0.00820137
-0.00789464
-0.00758461
-0.00726511
-0.00696704
-0.00664835
-0.00627391
-0.00587894
-0.00549812
-0.00515038
-0.00481962
-0.00450462
-0.00420151
-0.00389159
-0.00358266
-0.00325185
-0.00289701
-0.00257401
-0.00226211
-0.00195852
-0.00172437
-0.00148904
-0.00123086
-0.000972025
-0.000620296
-0.000196726
0.000182206
0.000562541
0.000972008
0.00138554
0.00178131
0.00215432
0.0024851
0.00282954
0.00323585
0.00366234
0.0040936
0.00454006
0.00495402
0.00533657
0.00576481
0.00624508
0.0067037
0.00715519
0.0076619
0.00815504
0.00863101
0.00913717
0.00966975
0.0102283
0.0107715
0.0113313
0.0119059
0.0125165
0.0131287
0.013677
0.0142581
0.0148571
0.0155149
0.0162254
0.0169435
0.0175778
0.0181907
0.0188611
0.0195766
0.0203349
0.0211154
0.0218844
0.0226063
0.0233849
0.0241861
0.0249432
0.0257448
0.0266351
0.0274662
0.0283076
0.0291912
0.030118
0.0310595
0.031974
-0.00891163
-0.0101449
-0.013313
-0.0169158
-0.0184152
-0.0176825
-0.0163042
-0.0151751
-0.0142514
-0.0133204
-0.0123889
-0.0116279
-0.01113
-0.0108081
-0.0105538
-0.0102642
-0.00978694
-0.00920236
-0.00877546
-0.00849303
-0.00819223
-0.0078853
-0.00757686
-0.00725799
-0.0069593
-0.00664115
-0.00626942
-0.00587689
-0.00549631
-0.00514796
-0.00481731
-0.00450322
-0.00420083
-0.00389055
-0.00358097
-0.00325051
-0.00289642
-0.00257328
-0.00226058
-0.00195652
-0.00172252
-0.00148735
-0.0012291
-0.000970254
-0.000618732
-0.000195507
0.000183255
0.00056356
0.000972843
0.00138628
0.0017822
0.00215529
0.00248584
0.0028301
0.00323651
0.00366304
0.0040942
0.00454063
0.00495464
0.00533716
0.0057653
0.00624553
0.00670413
0.00715559
0.00766227
0.00815537
0.0086313
0.00913744
0.00966999
0.0102286
0.0107718
0.0113315
0.011906
0.0125167
0.013129
0.0136773
0.0142583
0.0148573
0.015515
0.0162255
0.0169439
0.0175781
0.0181908
0.0188612
0.0195768
0.0203351
0.0211156
0.0218846
0.0226064
0.023385
0.0241863
0.0249433
0.0257448
0.0266352
0.0274663
0.0283077
0.0291913
0.0301179
0.0310595
0.0319749
-0.00911843
-0.0102696
-0.0131422
-0.0165442
-0.018117
-0.0175421
-0.0162293
-0.0151122
-0.0141963
-0.0132786
-0.0123624
-0.0116142
-0.0111221
-0.0107977
-0.0105359
-0.0102414
-0.00976829
-0.00919338
-0.00877142
-0.00848692
-0.00818303
-0.00787599
-0.00756912
-0.00725042
-0.00695036
-0.00663231
-0.00626357
-0.00587415
-0.00549427
-0.00514541
-0.00481479
-0.00450149
-0.00419979
-0.00388916
-0.00357896
-0.00324906
-0.00289603
-0.0025728
-0.0022592
-0.00195458
-0.00172068
-0.00148556
-0.00122704
-0.000967866
-0.000616482
-0.00019379
0.000184678
0.000564809
0.00097368
0.00138692
0.00178307
0.00215639
0.00248675
0.00283083
0.00323733
0.00366385
0.00409489
0.00454126
0.00495538
0.00533793
0.00576596
0.00624608
0.00670468
0.00715614
0.00766276
0.00815577
0.00863166
0.00913777
0.00967026
0.0102288
0.0107721
0.0113318
0.0119062
0.0125169
0.0131294
0.0136775
0.0142584
0.0148574
0.0155151
0.0162257
0.0169443
0.0175783
0.0181909
0.0188613
0.0195769
0.0203353
0.0211158
0.0218849
0.0226066
0.0233852
0.0241865
0.0249434
0.0257449
0.0266353
0.0274665
0.0283077
0.0291914
0.0301178
0.0310595
0.0319759
-0.00930533
-0.0103917
-0.0129875
-0.0161769
-0.0178045
-0.0173905
-0.0161532
-0.0150501
-0.01414
-0.0132339
-0.012333
-0.0115984
-0.0111128
-0.0107863
-0.0105171
-0.0102174
-0.0097486
-0.00918366
-0.00876699
-0.00848058
-0.00817365
-0.00786661
-0.00756138