/*--------------------------------*- C++ -*----------------------------------*\
| =========                 |                                                 |
| \\      /  F ield         | OpenFOAM: The Open Source CFD Toolbox           |
|  \\    /   O peration     | Version:  v1912                                 |
|   \\  /    A nd           | Website:  www.openfoam.com                      |
|    \\/     M anipulation  |                                                 |
\*---------------------------------------------------------------------------*/
FoamFile
{
    version     2.0;
    format      ascii;
    class       surfaceScalarField;
    location    "6";
    object      phi;
}
// * * * * * * * * * * * * * * * * * * * * * * * * * * * * * * * * * * * * * //

dimensions      [0 3 -1 0 0 0 0];
oriented        oriented;


internalField   nonuniform List<scalar> 
19000
(
1.1839e-06
3.63257e-07
1.09113e-06
-5.91651e-07
1.25054e-06
1.25543e-06
1.11143e-06
9.7456e-07
1.04942e-06
-1.58741e-06
1.22113e-06
1.04753e-06
1.1759e-06
1.00826e-06
1.13145e-06
4.4161e-07
1.20642e-06
5.81245e-07
1.1313e-06
-7.78981e-08
1.15628e-06
5.99971e-07
1.12806e-06
5.56905e-07
1.13174e-06
-1.61919e-07
1.16847e-06
3.96287e-09
1.17474e-06
-9.63391e-08
1.16695e-06
2.43905e-07
1.16444e-06
1.61536e-07
1.169e-06
2.92919e-07
1.16953e-06
2.66501e-07
3.30079e-07
1.15998e-06
1.2391e-06
3.48422e-07
1.14121e-06
-4.93763e-07
1.30889e-06
1.08774e-06
1.17786e-06
1.1056e-06
1.1184e-06
-1.52795e-06
1.2886e-06
8.77337e-07
1.23875e-06
1.05812e-06
1.19295e-06
4.87408e-07
1.26812e-06
5.06072e-07
1.19068e-06
-4.59223e-10
1.20787e-06
5.82783e-07
1.19698e-06
5.67797e-07
1.19342e-06
-1.58358e-07
1.23564e-06
-3.82625e-08
1.23297e-06
-9.36666e-08
1.24247e-06
2.34406e-07
1.21685e-06
1.87159e-07
1.24519e-06
2.64578e-07
1.21572e-06
2.95972e-07
3.00007e-07
1.24579e-06
1.29713e-06
3.34075e-07
1.19606e-06
-3.9269e-07
1.36309e-06
9.2071e-07
1.25892e-06
1.20977e-06
1.19592e-06
-1.46496e-06
1.36008e-06
7.13186e-07
1.31286e-06
1.10533e-06
1.26833e-06
5.31939e-07
1.3334e-06
4.40999e-07
1.2658e-06
6.71455e-08
1.26401e-06
5.84566e-07
1.27872e-06
5.53087e-07
1.25933e-06
-1.38968e-07
1.30556e-06
-8.44942e-08
1.29398e-06
-8.20777e-08
1.31085e-06
2.17533e-07
1.27968e-06
2.18323e-07
1.29889e-06
2.45377e-07
1.28589e-06
3.08968e-07
3.00161e-07
1.28574e-06
1.35798e-06
3.202e-07
1.25675e-06
-2.91458e-07
1.41594e-06
7.61512e-07
1.35148e-06
1.27424e-06
1.28062e-06
-1.3941e-06
1.43178e-06
5.62024e-07
1.39217e-06
1.14494e-06
1.35181e-06
5.72299e-07
1.39807e-06
3.94741e-07
1.3481e-06
1.17112e-07
1.33006e-06
6.02602e-07
1.35927e-06
5.23879e-07
1.32896e-06
-1.08661e-07
1.3653e-06
-1.20826e-07
1.35773e-06
-7.45107e-08
1.36935e-06
2.05911e-07
1.3487e-06
2.38974e-07
1.35282e-06
2.41261e-07
1.3518e-06
3.09986e-07
3.06156e-07
1.3458e-06
1.42152e-06
3.07029e-07
1.32555e-06
-1.95479e-07
1.46768e-06
6.19374e-07
1.44746e-06
1.29446e-06
1.36629e-06
-1.31293e-06
1.49567e-06
4.32644e-07
1.4701e-06
1.17052e-06
1.43559e-06
6.06812e-07
1.45741e-06
3.72913e-07
1.42639e-06
1.4814e-07
1.40595e-06
6.23042e-07
1.43335e-06
4.9647e-07
1.40103e-06
-7.63345e-08
1.42015e-06
-1.39947e-07
1.42153e-06
-7.58894e-08
1.43087e-06
1.96572e-07
1.42053e-06
2.49311e-07
1.41824e-06
2.43548e-07
1.41834e-06
3.09886e-07
3.10564e-07
1.41394e-06
1.48764e-06
2.95068e-07
1.40346e-06
-1.11299e-07
1.51975e-06
5.03081e-07
1.53733e-06
1.27688e-06
1.44824e-06
-1.22384e-06
1.54838e-06
3.32501e-07
1.54179e-06
1.17711e-06
1.51342e-06
6.35182e-07
1.51174e-06
3.74595e-07
1.49574e-06
1.64141e-07
1.48572e-06
6.33054e-07
1.50399e-06
4.78205e-07
1.47447e-06
-4.68123e-08
1.47847e-06
-1.43946e-07
1.48417e-06
-8.15908e-08
1.49688e-06
1.83865e-07
1.4945e-06
2.51691e-07
1.49151e-06
2.46529e-07
1.49109e-06
3.10312e-07
3.14459e-07
1.48719e-06
1.55649e-06
2.84796e-07
1.48919e-06
-4.39995e-08
1.57454e-06
4.17734e-07
1.61634e-06
1.23508e-06
1.52607e-06
-1.13356e-06
1.59376e-06
2.64806e-07
1.60602e-06
1.16484e-06
1.58393e-06
6.57277e-07
1.56614e-06
3.92384e-07
1.55968e-06
1.70603e-07
1.56266e-06
6.30069e-07
1.5742e-06
4.66669e-07
1.54906e-06
-2.16688e-08
1.5436e-06
-1.38493e-07
1.54792e-06
-8.59032e-08
1.56385e-06
1.67926e-07
1.56805e-06
2.475e-07
1.56678e-06
2.47794e-07
1.56705e-06
3.10044e-07
3.18246e-07
1.56326e-06
1.62857e-06
2.76351e-07
1.57987e-06
4.70237e-09
1.63468e-06
3.62925e-07
1.68664e-06
1.18312e-06
1.60266e-06
-1.04958e-06
1.6401e-06
2.27364e-07
1.66581e-06
1.13913e-06
1.65053e-06
6.72561e-07
1.62659e-06
4.16322e-07
1.62479e-06
1.72404e-07
1.63506e-06
6.19791e-07
1.64537e-06
4.56364e-07
1.62563e-06
-1.93196e-09
1.61563e-06
-1.28491e-07
1.61586e-06
-8.61363e-08
1.6313e-06
1.52495e-07
1.63948e-06
2.39315e-07
1.64036e-06
2.46919e-07
1.64214e-06
3.08256e-07
3.21544e-07
1.63885e-06
1.70441e-06
2.69519e-07
1.67269e-06
3.64151e-08
1.70214e-06
3.33473e-07
1.75406e-06
1.1312e-06
1.681e-06
-9.76518e-07
1.69499e-06
2.13375e-07
1.72688e-06
1.10724e-06
1.71869e-06
6.80756e-07
1.69626e-06
4.3875e-07
1.69572e-06
1.72943e-07
1.70646e-06
6.09054e-07
1.71886e-06
4.43957e-07
1.70514e-06
1.17927e-08
1.6937e-06
-1.1705e-07
1.68985e-06
-8.2285e-08
1.70159e-06
1.40754e-07
1.7106e-06
2.30302e-07
1.71255e-06
2.44969e-07
1.71572e-06
3.05089e-07
3.2397e-07
1.71329e-06
1.78429e-06
2.63951e-07
1.76607e-06
5.46317e-08
1.77762e-06
3.21928e-07
1.82415e-06
1.08468e-06
1.76252e-06
-9.14896e-07
1.76205e-06
2.13852e-07
1.7947e-06
1.07459e-06
1.79288e-06
6.8257e-07
1.77503e-06
4.566e-07
1.77397e-06
1.7401e-07
1.7817e-06
6.01318e-07
1.79638e-06
4.29274e-07
1.78813e-06
2.00492e-08
1.77684e-06
-1.05762e-07
1.77027e-06
-7.57137e-08
1.77729e-06
1.33732e-07
1.78499e-06
2.226e-07
1.78657e-06
2.43395e-07
1.79028e-06
3.01377e-07
3.25386e-07
1.78886e-06
1.86832e-06
2.59378e-07
1.85979e-06
6.31626e-08
1.86056e-06
3.21156e-07
1.90012e-06
1.04512e-06
1.84759e-06
-8.62372e-07
1.84091e-06
2.20537e-07
1.872e-06
1.0435e-06
1.87498e-06
6.79584e-07
1.86117e-06
4.70407e-07
1.85903e-06
1.76154e-07
1.86378e-06
5.96564e-07
1.87927e-06
4.13792e-07
1.87497e-06
2.43492e-08
1.86428e-06
-9.5079e-08
1.85661e-06
-6.80359e-08
1.85956e-06
1.30778e-07
1.86529e-06
2.16871e-07
1.86566e-06
2.43027e-07
1.86898e-06
2.98048e-07
3.25841e-07
1.86853e-06
1.95656e-06
2.55658e-07
1.95452e-06
6.5202e-08
1.94984e-06
3.25835e-07
1.98302e-06
1.01194e-06
1.9364e-06
-8.15751e-07
1.92913e-06
2.27809e-07
1.95856e-06
1.01407e-06
1.96457e-06
6.73572e-07
1.95301e-06
4.81968e-07
1.94992e-06
1.79239e-07
1.95324e-06
5.9325e-07
1.96796e-06
3.99067e-07
1.96594e-06
2.63735e-08
1.9556e-06
-8.4747e-08
1.948e-06
-6.04314e-08
1.94817e-06
1.3061e-07
1.95218e-06
2.12855e-07
1.95135e-06
2.43864e-07
1.95369e-06
2.95701e-07
3.2544e-07
1.9541e-06
2.04913e-06
2.52713e-07
2.05123e-06
6.31031e-08
2.0444e-06
3.32671e-07
2.07273e-06
9.83608e-07
2.02934e-06
-7.7236e-07
2.02417e-06
2.32975e-07
2.05259e-06
9.85657e-07
2.06025e-06
6.65912e-07
2.04957e-06
4.9265e-07
2.04591e-06
1.82899e-07
2.04921e-06
5.89943e-07
2.06223e-06
3.86054e-07
2.06122e-06
2.73833e-08
2.0507e-06
-7.42334e-08
2.04373e-06
-5.34634e-08
2.04232e-06
1.32023e-07
2.04511e-06
2.1007e-07
2.04358e-06
2.45389e-07
2.04475e-06
2.94529e-07
3.24248e-07
2.04595e-06
2.14625e-06
2.50462e-07
2.1508e-06
5.85525e-08
2.14358e-06
3.39891e-07
2.16876e-06
9.58429e-07
2.12684e-06
-7.30435e-07
2.12433e-06
2.3548e-07
2.15229e-06
9.57702e-07
2.1608e-06
6.57403e-07
2.15047e-06
5.02978e-07
2.14658e-06
1.8679e-07
2.1507e-06
5.85822e-07
2.16161e-06
3.75141e-07
2.16092e-06
2.80753e-08
2.1497e-06
-6.30185e-08
2.14344e-06
-4.71976e-08
2.14135e-06
1.34107e-07
2.14323e-06
2.08191e-07
2.1417e-06
2.46918e-07
2.14181e-06
2.94418e-07
3.22328e-07
2.14373e-06
2.24814e-06
2.48807e-07
2.2539e-06
5.27994e-08
2.24719e-06
3.46596e-07
2.27075e-06
9.34869e-07
2.22928e-06
-6.88959e-07
2.22888e-06
2.35879e-07
2.25659e-06
9.29991e-07
2.26558e-06
6.48415e-07
2.2556e-06
5.12951e-07
2.25172e-06
1.90667e-07
2.25707e-06
5.80472e-07
2.26585e-06
3.66368e-07
2.2652e-06
2.87242e-08
2.25291e-06
-5.07295e-08
2.24707e-06
-4.13541e-08
2.24496e-06
1.3621e-07
2.24603e-06
2.0712e-07
2.24516e-06
2.4779e-07
2.24452e-06
2.95058e-07
3.19823e-07
2.24703e-06
2.35502e-06
2.47666e-07
2.36104e-06
4.67719e-08
2.35531e-06
3.52329e-07
2.37844e-06
9.11735e-07
2.33694e-06
-6.47458e-07
2.33775e-06
2.35068e-07
2.36518e-06
9.02563e-07
2.37445e-06
6.39151e-07
2.365e-06
5.22398e-07
2.36133e-06
1.94336e-07
2.36821e-06
5.73599e-07
2.37496e-06
3.5961e-07
2.37431e-06
2.93799e-08
2.36075e-06
-3.71736e-08
2.35483e-06
-3.54276e-08
2.35316e-06
1.37877e-07
2.35338e-06
2.06902e-07
2.35367e-06
2.47502e-07
2.35271e-06
2.96009e-07
3.17012e-07
2.35552e-06
2.46709e-06
2.46968e-07
2.47275e-06
4.11133e-08
2.4682e-06
3.56881e-07
2.49171e-06
8.88229e-07
2.45011e-06
-6.05864e-07
2.45131e-06
2.33867e-07
2.47824e-06
8.75637e-07
2.48756e-06
6.29826e-07
2.47885e-06
5.31112e-07
2.47559e-06
1.97596e-07
2.48425e-06
5.64942e-07
2.48917e-06
3.5469e-07
2.48853e-06
3.00174e-08
2.47371e-06
-2.23529e-08
2.46709e-06
-2.88067e-08
2.46616e-06
1.38809e-07
2.46545e-06
2.07604e-07
2.46711e-06
2.45846e-07
2.46638e-06
2.96743e-07
3.1426e-07
2.46913e-06
2.58466e-06
2.46605e-07
2.58954e-06
3.62265e-08
2.58618e-06
3.60248e-07
2.61054e-06
8.63871e-07
2.56904e-06
-5.64366e-07
2.56999e-06
2.32909e-07
2.59613e-06
8.49497e-07
2.60528e-06
6.20681e-07
2.59749e-06
5.38897e-07
2.59482e-06
2.00271e-07
2.60544e-06
5.54323e-07
2.60869e-06
3.51439e-07
2.60809e-06
3.06185e-08
2.59221e-06
-6.47047e-09
2.58433e-06
-2.09308e-08
2.5843e-06
1.38841e-07
2.58264e-06
2.09258e-07
2.58551e-06
2.42983e-07
2.58557e-06
2.96675e-07
3.11873e-07
2.58796e-06
2.70804e-06
2.46395e-07
2.71192e-06
3.23446e-08
2.70957e-06
3.62595e-07
2.73507e-06
8.38371e-07
2.69391e-06
-5.23201e-07
2.69412e-06
2.32694e-07
2.71929e-06
8.2433e-07
2.72811e-06
6.11858e-07
2.72136e-06
5.45649e-07
2.71932e-06
2.02311e-07
2.73196e-06
5.41683e-07
2.7337e-06
3.49698e-07
2.73314e-06
3.11855e-08
2.71658e-06
1.00837e-08
2.70707e-06
-1.14179e-08
2.708e-06
1.37911e-07
2.70544e-06
2.11813e-07
2.70903e-06
2.39399e-07
2.71043e-06
2.9527e-07
3.10008e-07
2.7123e-06
2.83755e-06
2.46113e-07
2.84031e-06
2.95843e-08
2.83875e-06
3.64156e-07
2.86555e-06
8.11576e-07
2.82486e-06
-4.82514e-07
2.82389e-06
2.33659e-07
2.84813e-06
8.00091e-07
2.85667e-06
6.03324e-07
2.85091e-06
5.51405e-07
2.84935e-06
2.03877e-07
2.86394e-06
5.27083e-07
2.86437e-06
3.49276e-07
2.86383e-06
3.17175e-08
2.84712e-06
2.67951e-08
2.83582e-06
-1.12413e-10
2.83767e-06
1.36054e-07
2.83438e-06
2.15107e-07
2.83797e-06
2.35815e-07
2.84108e-06
2.92155e-07
3.08621e-07
2.84247e-06
2.97345e-06
2.45556e-07
2.97507e-06
2.79678e-08
2.97411e-06
3.65115e-07
3.00218e-06
7.83506e-07
2.96204e-06
-4.4237e-07
2.95953e-06
2.36168e-07
2.98307e-06
7.76545e-07
2.9915e-06
5.94894e-07
2.9866e-06
5.56307e-07
2.98516e-06
2.05313e-07
3.00156e-06
5.1069e-07
3.0009e-06
3.49929e-07
3.0004e-06
3.22205e-08
2.98411e-06
4.30877e-08
2.97105e-06
1.29412e-08
2.97368e-06
1.33431e-07
2.96993e-06
2.18857e-07
2.97273e-06
2.33011e-07
2.97767e-06
2.87216e-07
3.07472e-07
2.97882e-06
3.11596e-06
2.446e-07
3.11648e-06
2.74455e-08
3.11609e-06
3.65513e-07
3.14519e-06
7.54407e-07
3.10566e-06
-4.02848e-07
3.10139e-06
2.40446e-07
3.12451e-06
7.53423e-07
3.13307e-06
5.86334e-07
3.12888e-06
5.60493e-07
3.12717e-06
2.07022e-07
3.14511e-06
4.92753e-07
3.14364e-06
3.51394e-07
3.14313e-06
3.27398e-08
3.12782e-06
5.83952e-08
3.11319e-06
2.75728e-08
3.11629e-06
1.30326e-07
3.11248e-06
2.22667e-07
3.11385e-06
2.31646e-07
3.12043e-06
2.80635e-07
3.06157e-07
3.12174e-06
3.26532e-06
2.43188e-07
3.26482e-06
2.79436e-08
3.26509e-06
3.65251e-07
3.29479e-06
7.24704e-07
3.25606e-06
-3.64119e-07
3.24995e-06
2.46557e-07
3.27281e-06
7.3056e-07
3.2817e-06
5.77448e-07
3.27819e-06
5.63997e-07
3.27587e-06
2.09343e-07
3.29504e-06
4.73585e-07
3.29299e-06
3.53441e-07
3.29233e-06
3.34044e-08
3.2785e-06
7.22275e-08
3.26254e-06
4.3531e-08
3.26574e-06
1.27127e-07
3.26235e-06
2.26055e-07
3.2619e-06
2.32089e-07
3.26962e-06
2.72918e-07
3.04108e-07
3.27167e-06
3.42183e-06
2.41288e-07
3.42036e-06
2.94181e-08
3.42146e-06
3.64145e-07
3.45126e-06
6.94903e-07
3.41359e-06
-3.26442e-07
3.40571e-06
2.54433e-07
3.42834e-06
7.07934e-07
3.43768e-06
5.68103e-07
3.43494e-06
5.6674e-07
3.43179e-06
2.12494e-07
3.45183e-06
4.53541e-07
3.44938e-06
3.55898e-07
3.44833e-06
3.44534e-08
3.43635e-06
8.42013e-08
3.41935e-06
6.05351e-08
3.42223e-06
1.24245e-07
3.41976e-06
2.2853e-07
3.41751e-06
2.34332e-07
3.4256e-06
2.64834e-07
3.007e-07
3.42901e-06
3.58585e-06
2.38853e-07
3.58338e-06
3.18799e-08
3.58552e-06
3.62011e-07
3.61494e-06
6.65487e-07
3.57857e-06
-2.90077e-07
3.56911e-06
2.63891e-07
3.59142e-06
6.85625e-07
3.60131e-06
5.58212e-07
3.59948e-06
5.6857e-07
3.59541e-06
2.16567e-07
3.61595e-06
4.33006e-07
3.6132e-06
3.58643e-07
3.61145e-06
3.62073e-08
3.60157e-06
9.40804e-08
3.58383e-06
7.82744e-08
3.586e-06
1.22076e-07
3.58487e-06
2.29658e-07
3.58117e-06
2.38026e-07
3.58877e-06
2.5724e-07
2.95396e-07
3.59407e-06
3.75776e-06
2.35801e-07
3.75426e-06
3.53812e-08
3.75754e-06
3.58728e-07
3.78615e-06
6.3688e-07
3.75126e-06
-2.55191e-07
3.74051e-06
2.74642e-07
3.76241e-06
6.63726e-07
3.77292e-06
5.47695e-07
3.77216e-06
5.69335e-07
3.76717e-06
2.21558e-07
3.7878e-06
4.1237e-07
3.78487e-06
3.61579e-07
3.78204e-06
3.90356e-08
3.77434e-06
1.01781e-07
3.75621e-06
9.64034e-08
3.75731e-06
1.20979e-07
3.75782e-06
2.29145e-07
3.75327e-06
2.42574e-07
3.75962e-06
2.50886e-07
2.87923e-07
3.7671e-06
3.93796e-06
2.32026e-07
3.93337e-06
3.99738e-08
3.93783e-06
3.54273e-07
3.96525e-06
6.09451e-07
3.93198e-06
-2.21914e-07
3.92025e-06
2.86371e-07
3.94168e-06
6.42298e-07
3.9529e-06
5.36472e-07
3.95328e-06
5.68951e-07
3.94744e-06
2.27405e-07
3.96781e-06
3.91997e-07
3.96477e-06
3.64622e-07
3.9605e-06
4.33023e-08
3.95492e-06
1.07364e-07
3.9368e-06
1.14524e-07
3.93649e-06
1.21286e-07
3.93878e-06
2.2685e-07
3.93414e-06
2.47222e-07
3.93872e-06
2.46305e-07
2.78413e-07
3.94823e-06
4.12685e-06
2.27421e-07
4.12116e-06
4.56706e-08
4.12672e-06
3.48715e-07
4.15264e-06
5.83522e-07
4.12109e-06
-1.90363e-07
4.10872e-06
2.98747e-07
4.12964e-06
6.21374e-07
4.14166e-06
5.24458e-07
4.14317e-06
5.67435e-07
4.13657e-06
2.34006e-07
4.15639e-06
3.7218e-07
4.15334e-06
3.67671e-07
4.1473e-06
4.93405e-08
4.14366e-06
1.11001e-07
4.12597e-06
1.32214e-07
4.124e-06
1.23263e-07
4.12803e-06
2.22812e-07
4.12404e-06
2.51211e-07
4.12667e-06
2.43678e-07
2.67473e-07
4.13761e-06
4.32482e-06
2.21905e-07
4.31806e-06
5.24261e-08
4.3246e-06
3.42182e-07
4.34874e-06
5.59377e-07
4.31902e-06
-1.60639e-07
4.30635e-06
3.11419e-07
4.32673e-06
6.00993e-07
4.33961e-06
5.11575e-07
4.34215e-06
5.64896e-07
4.3349e-06
2.4125e-07
4.35397e-06
3.53116e-07
4.35106e-06
3.7058e-07
4.34297e-06
5.74269e-08
4.34103e-06
1.12943e-07
4.3242e-06
1.49051e-07
4.32036e-06
1.27097e-07
4.32591e-06
2.17263e-07
4.32327e-06
2.53856e-07
4.32408e-06
2.42863e-07
2.5608e-07
4.33547e-06
4.53224e-06
2.15434e-07
4.52452e-06
6.01487e-08
4.53188e-06
3.34824e-07
4.55403e-06
5.37223e-07
4.5262e-06
-1.32801e-07
4.51359e-06
3.24021e-07
4.53335e-06
5.81239e-07
4.54716e-06
4.97766e-07
4.55057e-06
5.61483e-07
4.54279e-06
2.49028e-07
4.561e-06
3.34907e-07
4.55844e-06
3.73144e-07
4.54811e-06
6.77534e-08
4.54757e-06
1.13488e-07
4.53199e-06
1.64631e-07
4.52617e-06
1.32911e-07
4.53284e-06
2.10597e-07
4.53207e-06
2.54626e-07
4.53149e-06
2.43435e-07
2.45375e-07
4.5422e-06
4.74954e-06
2.08011e-07
4.74096e-06
6.87269e-08
4.74902e-06
3.26762e-07
4.76908e-06
5.17163e-07
4.74311e-06
-1.06831e-07
4.73096e-06
3.36173e-07
4.74992e-06
5.62278e-07
4.76466e-06
4.83028e-07
4.76883e-06
5.57308e-07
4.76061e-06
2.57254e-07
4.77793e-06
3.17582e-07
4.77598e-06
3.75094e-07
4.76333e-06
8.04042e-08
4.76383e-06
1.12984e-07
4.74991e-06
1.78561e-07
4.74207e-06
1.40747e-07
4.74928e-06
2.03391e-07
4.75073e-06
2.53176e-07
4.74939e-06
2.44774e-07
2.36392e-07
4.75837e-06
4.97713e-06
1.99677e-07
4.9678e-06
7.80549e-08
4.97648e-06
3.18084e-07
4.99449e-06
4.99155e-07
4.97027e-06
-8.26087e-08
4.95895e-06
3.47495e-07
4.97686e-06
5.44363e-07
4.99247e-06
4.67421e-07
4.99738e-06
5.52393e-07
4.98876e-06
2.65872e-07
5.00521e-06
3.01141e-07
5.00418e-06
3.76117e-07
4.98926e-06
9.53284e-08
4.99039e-06
1.11853e-07
4.97852e-06
1.90426e-07
4.96872e-06
1.50551e-07
4.97578e-06
1.96331e-07
4.9795e-06
2.49459e-07
4.97819e-06
2.46081e-07
2.29754e-07
4.98483e-06
5.21549e-06
1.90503e-07
5.2055e-06
8.80421e-08
5.21474e-06
3.0885e-07
5.2309e-06
4.82993e-07
5.20818e-06
-5.98873e-08
5.19808e-06
3.57595e-07
5.21464e-06
5.27799e-07
5.23097e-06
4.51095e-07
5.2367e-06
5.4666e-07
5.22772e-06
2.74854e-07
5.24326e-06
2.85594e-07
5.2435e-06
3.75878e-07
5.2265e-06
1.12335e-07
5.22775e-06
1.10597e-07
5.21842e-06
1.99763e-07
5.2068e-06
1.6217e-07
5.21295e-06
1.9018e-07
5.21877e-06
2.43635e-07
5.21826e-06
2.46594e-07
2.25547e-07
5.22247e-06
5.46512e-06
1.80575e-07
5.45455e-06
9.86084e-08
5.46428e-06
2.99125e-07
5.47894e-06
4.68334e-07
5.45735e-06
-3.83026e-08
5.44889e-06
3.66056e-07
5.46379e-06
5.12901e-07
5.48059e-06
4.34291e-07
5.4873e-06
5.39949e-07
5.47797e-06
2.84185e-07
5.49257e-06
2.70996e-07
5.49439e-06
3.74061e-07
5.47562e-06
1.311e-07
5.47643e-06
1.09784e-07
5.47004e-06
2.0616e-07
5.45696e-06
1.75247e-07
5.46146e-06
1.85676e-07
5.46909e-06
2.36011e-07
5.46988e-06
2.45799e-07
2.23278e-07
5.47215e-06
5.72654e-06
1.69989e-07
5.71549e-06
1.09667e-07
5.7256e-06
2.8901e-07
5.73924e-06
4.54696e-07
5.7183e-06
-1.73668e-08
5.71188e-06
3.72478e-07
5.72491e-06
4.9987e-07
5.74186e-06
4.17345e-07
5.74974e-06
5.32066e-07
5.74009e-06
2.93835e-07
5.75361e-06
2.57474e-07
5.75727e-06
3.70406e-07
5.73721e-06
1.51157e-07
5.73695e-06
1.10043e-07
5.73375e-06
2.0936e-07
5.71987e-06
1.89127e-07
5.72211e-06
1.83437e-07
5.73102e-06
2.27108e-07
5.7334e-06
2.43419e-07
2.22029e-07
5.73464e-06
6.00033e-06
1.58848e-07
5.9889e-06
1.21103e-07
5.99922e-06
2.78687e-07
6.01242e-06
4.41492e-07
5.99156e-06
3.49494e-09
5.9875e-06
3.76545e-07
5.99867e-06
4.88698e-07
6.01535e-06
4.00659e-07
6.02459e-06
5.2283e-07
6.01469e-06
3.03734e-07
6.02693e-06
2.45232e-07
6.0326e-06
3.64739e-07
6.01185e-06
1.71911e-07
6.00984e-06
1.12052e-07
6.00991e-06
2.09286e-07
5.99614e-06
2.02898e-07
5.99568e-06
1.839e-07
6.00522e-06
2.17565e-07
6.00928e-06
2.39358e-07
2.20968e-07
6.01034e-06
6.28707e-06
1.47263e-07
6.27542e-06
1.32758e-07
6.28568e-06
2.68423e-07
6.29911e-06
4.28069e-07
6.2778e-06
2.48033e-08
6.27617e-06
3.7817e-07
6.28572e-06
4.7915e-07
6.30173e-06
3.84655e-07
6.31242e-06
5.12131e-07
6.30242e-06
3.13735e-07
6.31312e-06
2.34535e-07
6.32084e-06
3.57014e-07
6.30012e-06
1.92635e-07
6.29577e-06
1.16401e-07
6.29886e-06
2.06201e-07
6.28629e-06
2.15462e-07
6.28297e-06
1.87222e-07
6.29233e-06
2.08209e-07
6.29811e-06
2.33577e-07
2.19509e-07
6.29956e-06
6.58738e-06
1.35354e-07
6.57572e-06
1.44419e-07
6.58557e-06
2.58571e-07
6.59988e-06
4.1376e-07
6.5778e-06
4.68803e-08
6.57839e-06
3.77583e-07
6.58674e-06
4.708e-07
6.60168e-06
3.69717e-07
6.61384e-06
4.99963e-07
6.60396e-06
3.23618e-07
6.61284e-06
2.25658e-07
6.62252e-06
3.47332e-07
6.6026e-06
2.1255e-07
6.59559e-06
1.23416e-07
6.60101e-06
2.00779e-07
6.59075e-06
2.25723e-07
6.58483e-06
1.93141e-07
6.59302e-06
2.00021e-07
6.60045e-06
2.26142e-07
2.17329e-07
6.60263e-06
6.90188e-06
1.23261e-07
6.89049e-06
1.55809e-07
6.89953e-06
2.49533e-07
6.91528e-06
3.98008e-07
6.89239e-06
6.97771e-08
6.89464e-06
3.75327e-07
6.90233e-06
4.63107e-07
6.91595e-06
3.56104e-07
6.92949e-06
4.86421e-07
6.91998e-06
3.33127e-07
6.92679e-06
2.18851e-07
6.93821e-06
3.35911e-07
6.91992e-06
2.30837e-07
6.9102e-06
1.33139e-07
6.91694e-06
1.94039e-07
6.90983e-06
2.32834e-07
6.90197e-06
2.00995e-07
6.90806e-06
1.93934e-07
6.91686e-06
2.17341e-07
2.14077e-07
6.92011e-06
7.23126e-06
1.11137e-07
7.22046e-06
1.66606e-07
7.22827e-06
2.41723e-07
7.24572e-06
3.80559e-07
7.22235e-06
9.31543e-08
7.2256e-06
3.72075e-07
7.23314e-06
4.55565e-07
7.24527e-06
3.43976e-07
7.26001e-06
4.7168e-07
7.2512e-06
3.41935e-07
7.25574e-06
2.14316e-07
7.26854e-06
3.23105e-07
7.25264e-06
2.4674e-07
7.24058e-06
1.45199e-07
7.24753e-06
1.87085e-07
7.2439e-06
2.36471e-07
7.23494e-06
2.09955e-07
7.23822e-06
1.90651e-07
7.24773e-06
2.07828e-07
2.09243e-07
7.25257e-06
7.57621e-06
9.91532e-08
7.56637e-06
1.76442e-07
7.57258e-06
2.35512e-07
7.59166e-06
3.61483e-07
7.56848e-06
1.16339e-07
7.57198e-06
3.68568e-07
7.5798e-06
4.47746e-07
7.59045e-06
3.33328e-07
7.60609e-06
4.56042e-07
7.59831e-06
3.49709e-07
7.60054e-06
2.1209e-07
7.61432e-06
3.0932e-07
7.60135e-06
2.59712e-07
7.58752e-06
1.59028e-07
7.59372e-06
1.80894e-07
7.59364e-06
2.3655e-07
7.58431e-06
2.19281e-07
7.5841e-06
1.90863e-07
7.5933e-06
1.98627e-07
2.02285e-07
7.60026e-06
7.93747e-06
8.7496e-08
7.92897e-06
1.84937e-07
7.93333e-06
2.31152e-07
7.95368e-06
3.41134e-07
7.93155e-06
1.38474e-07
7.93469e-06
3.65429e-07
7.94295e-06
4.39484e-07
7.95223e-06
3.24043e-07
7.96852e-06
4.39755e-07
7.962e-06
3.56229e-07
7.96202e-06
2.12068e-07
7.97625e-06
2.95089e-07
7.96677e-06
2.69194e-07
7.952e-06
1.73797e-07
7.95665e-06
1.76245e-07
7.96017e-06
2.33035e-07
7.95091e-06
2.28536e-07
7.94647e-06
1.95302e-07
7.95299e-06
1.9211e-07
1.91931e-07
7.96334e-06
8.31582e-06
7.63621e-08
8.30905e-06
1.91703e-07
8.31142e-06
2.28784e-07
8.33252e-06
3.20032e-07
8.31229e-06
1.58702e-07
8.31457e-06
3.63149e-07
8.32333e-06
4.30721e-07
8.33141e-06
3.15966e-07
8.34805e-06
4.23113e-07
8.34301e-06
3.61273e-07
8.34114e-06
2.13942e-07
8.35525e-06
2.80973e-07
8.34944e-06
2.75004e-07
8.33436e-06
1.8888e-07
8.33673e-06
1.73869e-07
8.34597e-06
2.23797e-07
8.34622e-06
2.28292e-07
8.34888e-06
1.92638e-07
8.35909e-06
1.81903e-07
1.85949e-07
8.36507e-06
8.71207e-06
6.59517e-08
8.70739e-06
1.96382e-07
8.7078e-06
2.28379e-07
8.72891e-06
2.98917e-07
8.71151e-06
1.76109e-07
8.71259e-06
3.62066e-07
8.72166e-06
4.21647e-07
8.72879e-06
3.08838e-07
8.74559e-06
4.06317e-07
8.74204e-06
3.64818e-07
8.73852e-06
2.1746e-07
8.75217e-06
2.67328e-07
8.75033e-06
2.76838e-07
8.73746e-06
2.01753e-07
8.74127e-06
1.70062e-07
8.75379e-06
2.11271e-07
8.75707e-06
2.25012e-07
8.75397e-06
1.95739e-07
8.75819e-06
1.77686e-07
1.79259e-07
8.76488e-06
9.12711e-06
5.646e-08
9.12484e-06
1.98651e-07
9.12338e-06
2.2984e-07
9.14379e-06
2.78509e-07
9.12968e-06
1.90215e-07
9.12982e-06
3.61933e-07
9.13876e-06
4.12702e-07
9.1452e-06
3.02406e-07
9.16184e-06
3.89669e-07
9.16009e-06
3.6657e-07
9.15532e-06
2.22233e-07
9.16828e-06
2.54369e-07
9.16972e-06
2.75392e-07
9.15855e-06
2.12922e-07
9.1602e-06
1.68414e-07
9.17254e-06
1.98938e-07
9.17926e-06
2.18286e-07
9.17747e-06
1.97534e-07
9.18012e-06
1.75029e-07
1.74743e-07
9.18464e-06
9.56185e-06
4.80723e-08
9.56229e-06
1.9821e-07
9.55915e-06
2.32978e-07
9.57799e-06
2.59672e-07
9.5675e-06
2.00697e-07
9.56723e-06
3.6221e-07
9.57554e-06
4.0439e-07
9.58151e-06
2.96435e-07
9.59787e-06
3.73306e-07
9.59779e-06
3.66656e-07
9.59226e-06
2.27762e-07
9.60505e-06
2.41577e-07
9.60925e-06
2.71194e-07
9.5961e-06
2.26071e-07
9.58941e-06
1.751e-07
9.59488e-06
1.93469e-07
9.59527e-06
2.17894e-07
9.58852e-06
2.04282e-07
9.58725e-06
1.763e-07
1.6343e-07
9.59856e-06
1.00173e-05
4.09382e-08
1.00206e-05
1.94908e-07
1.00161e-05
2.3744e-07
1.00325e-05
2.43323e-07
1.0026e-05
2.07125e-07
1.00258e-05
3.6249e-07
1.00331e-05
3.9703e-07
1.00384e-05
2.9116e-07
1.00546e-05
3.57078e-07
1.00563e-05
3.64989e-07
1.00498e-05
2.3425e-07
1.00597e-05
2.31642e-07
1.00669e-05
2.6401e-07
1.0061e-05
2.32025e-07
1.00607e-05
1.75391e-07
1.00729e-05
1.81268e-07
1.00849e-05
2.05821e-07
1.00886e-05
2.00596e-07
1.00882e-05
1.76725e-07
1.66609e-07
1.0085e-05
1.04944e-05
3.51751e-08
1.05006e-05
1.88688e-07
1.04953e-05
2.42803e-07
1.05084e-05
2.30197e-07
1.05058e-05
2.09662e-07
1.05066e-05
3.61774e-07
1.05125e-05
3.91128e-07
1.05171e-05
2.86575e-07
1.05329e-05
3.41211e-07
1.05363e-05
3.61602e-07
1.05293e-05
2.41261e-07
1.05381e-05
2.22822e-07
1.05455e-05
2.56594e-07
1.0537e-05
2.40515e-07
1.05277e-05
1.84747e-07
1.05306e-05
1.78399e-07
1.05369e-05
1.99504e-07
1.05351e-05
2.02359e-07
1.05336e-05
1.78249e-07
1.61002e-07
1.05392e-05
1.09944e-05
3.08182e-08
1.10031e-05
1.79943e-07
1.09977e-05
2.48233e-07
1.1007e-05
2.20867e-07
1.10083e-05
2.08414e-07
1.10105e-05
3.59541e-07
1.10148e-05
3.86872e-07
1.10183e-05
2.8301e-07
1.10338e-05
3.25778e-07
1.10387e-05
3.56611e-07
1.10311e-05
2.489e-07
1.10364e-05
2.17561e-07
1.10444e-05
2.48568e-07
1.10398e-05
2.4514e-07
1.10316e-05
1.92949e-07
1.10324e-05
1.77515e-07
1.10402e-05
1.91757e-07
1.10424e-05
2.0015e-07
1.10421e-05
1.78524e-07
1.58017e-07
1.10451e-05
1.15184e-05
2.7827e-08
1.15291e-05
1.69247e-07
1.15245e-05
2.52749e-07
1.15297e-05
2.15675e-07
1.15341e-05
2.0409e-07
1.15385e-05
3.55127e-07
1.15415e-05
3.83825e-07
1.15435e-05
2.80983e-07
1.15584e-05
3.10936e-07
1.15648e-05
3.50176e-07
1.15572e-05
2.56551e-07
1.15593e-05
2.15457e-07
1.15686e-05
2.39191e-07
1.15672e-05
2.46619e-07
1.15601e-05
2.00018e-07
1.15593e-05
1.78301e-07
1.15671e-05
1.83922e-07
1.15726e-05
1.94697e-07
1.15726e-05
1.78502e-07
1.56207e-07
1.15744e-05
1.20676e-05
2.60738e-08
1.20795e-05
1.5735e-07
1.20767e-05
2.5557e-07
1.20782e-05
2.14174e-07
1.20841e-05
1.98142e-07
1.20917e-05
3.47504e-07
1.20939e-05
3.81642e-07
1.20939e-05
2.80986e-07
1.21079e-05
2.96946e-07
1.21161e-05
3.41978e-07
1.21094e-05
2.63249e-07
1.21088e-05
2.16013e-07
1.21182e-05
2.29813e-07
1.21199e-05
2.44981e-07
1.21146e-05
2.05308e-07
1.21127e-05
1.80183e-07
1.21192e-05
1.77406e-07
1.21264e-05
1.8749e-07
1.21279e-05
1.77033e-07
1.55294e-07
1.21288e-05
1.26433e-05
2.53536e-08
1.26556e-05
1.45046e-07
1.26553e-05
2.55934e-07
1.26537e-05
2.15729e-07
1.26597e-05
1.92161e-07
1.26706e-05
3.36601e-07
1.2673e-05
3.79177e-07
1.26711e-05
2.82902e-07
1.26837e-05
2.84331e-07
1.26936e-05
3.32093e-07
1.26886e-05
2.68257e-07
1.26861e-05
2.18548e-07
1.26945e-05
2.21408e-07
1.26987e-05
2.40731e-07
1.26953e-05
2.08701e-07
1.26931e-05
1.82459e-07
1.26977e-05
1.72772e-07
1.27055e-05
1.79688e-07
1.27092e-05
1.73301e-07
1.54581e-07
1.271e-05
1.32469e-05
2.5377e-08
1.32588e-05
1.33108e-07
1.32613e-05
2.5349e-07
1.32576e-05
2.19372e-07
1.32622e-05
1.87568e-07
1.32762e-05
3.22605e-07
1.32804e-05
3.75022e-07
1.32767e-05
2.86548e-07
1.32871e-05
2.73996e-07
1.32984e-05
3.20814e-07
1.32956e-05
2.71063e-07
1.32921e-05
2.22027e-07
1.32989e-05
2.14608e-07
1.33049e-05
2.3474e-07
1.33036e-05
2.09963e-07
1.33017e-05
1.8435e-07
1.33049e-05
1.69626e-07
1.33121e-05
1.72447e-07
1.33176e-05
1.67775e-07
1.53384e-07
1.33188e-05
1.38797e-05
2.5865e-08
1.38906e-05
1.2217e-07
1.3896e-05
2.48092e-07
1.38913e-05
2.24104e-07
1.38934e-05
1.8546e-07
1.39097e-05
3.0634e-07
1.39167e-05
3.68008e-07
1.3912e-05
2.91214e-07
1.39197e-05
2.66259e-07
1.39319e-05
3.08627e-07
1.39315e-05
2.71456e-07
1.39278e-05
2.25744e-07
1.39328e-05
2.09667e-07
1.39398e-05
2.27666e-07
1.39406e-05
2.09153e-07
1.39394e-05
1.85633e-07
1.39415e-05
1.6747e-07
1.39476e-05
1.66329e-07
1.3954e-05
1.61427e-07
1.50818e-07
1.39565e-05
1.4543e-05
2.65214e-08
1.45525e-05
1.12629e-07
1.45605e-05
2.40108e-07
1.45558e-05
2.28871e-07
1.4555e-05
1.86262e-07
1.45722e-05
2.89078e-07
1.45826e-05
3.5761e-07
1.45784e-05
2.95462e-07
1.45834e-05
2.61186e-07
1.45956e-05
2.96476e-07
1.45974e-05
2.69609e-07
1.45943e-05
2.28927e-07
1.45977e-05
2.06251e-07
1.46051e-05
2.20264e-07
1.46077e-05
2.06543e-07
1.46073e-05
1.86006e-07
1.4609e-05
1.65744e-07
1.46142e-05
1.61214e-07
1.46205e-05
1.55057e-07
1.46885e-07
1.46245e-05
1.52383e-05
2.71282e-08
1.52462e-05
1.0471e-07
1.52562e-05
2.30124e-07
1.52523e-05
2.32719e-07
1.52489e-05
1.89711e-07
1.52653e-05
2.72614e-07
1.5279e-05
3.43945e-07
1.52765e-05
2.97948e-07
1.52795e-05
2.58194e-07
1.5291e-05
2.85021e-07
1.52949e-05
2.65632e-07
1.52929e-05
2.31008e-07
1.52952e-05
2.03958e-07
1.53021e-05
2.13297e-07
1.53062e-05
2.02493e-07
1.5307e-05
1.8521e-07
1.53086e-05
1.64079e-07
1.5313e-05
1.56876e-07
1.53188e-05
1.49269e-07
1.42177e-07
1.53235e-05
1.59669e-05
2.75123e-08
1.59731e-05
9.8521e-08
1.59844e-05
2.1882e-07
1.59821e-05
2.35082e-07
1.5977e-05
1.94775e-07
1.59908e-05
2.58857e-07
1.60069e-05
3.27829e-07
1.60072e-05
2.97614e-07
1.60094e-05
2.56018e-07
1.60198e-05
2.74655e-07
1.60253e-05
2.60076e-07
1.60246e-05
2.3169e-07
1.60263e-05
2.02341e-07
1.60327e-05
2.06829e-07
1.60378e-05
1.97438e-07
1.60398e-05
1.832e-07
1.60416e-05
1.62268e-07
1.60453e-05
1.53133e-07
1.60507e-05
1.43906e-07
1.37281e-07
1.60556e-05
1.67305e-05
2.75751e-08
1.6735e-05
9.40536e-08
1.6747e-05
2.06874e-07
1.67463e-05
2.35731e-07
1.67406e-05
2.00496e-07
1.67508e-05
2.48678e-07
1.67678e-05
3.10786e-07
1.67716e-05
2.93819e-07
1.67741e-05
2.53557e-07
1.67835e-05
2.65229e-07
1.67902e-05
2.53377e-07
1.67912e-05
2.30681e-07
1.67927e-05
2.0086e-07
1.67986e-05
2.00919e-07
1.68042e-05
1.91814e-07
1.68072e-05
1.80218e-07
1.68095e-05
1.59988e-07
1.68128e-05
1.49819e-07
1.68178e-05
1.38938e-07
1.32492e-07
1.68225e-05
1.75306e-05
2.73106e-08
1.75336e-05
9.10285e-08
1.75455e-05
1.95033e-07
1.75466e-05
2.34586e-07
1.75412e-05
2.05888e-07
1.75487e-05
2.41221e-07
1.75652e-05
2.94284e-07
1.75717e-05
2.87296e-07
1.75751e-05
2.50166e-07
1.7584e-05
2.56355e-07
1.75915e-05
2.45851e-07
1.7594e-05
2.28156e-07
1.75958e-05
1.99068e-07
1.76011e-05
1.95627e-07
1.76071e-05
1.85851e-07
1.76109e-05
1.76374e-07
1.76138e-05
1.57122e-07
1.7617e-05
1.46656e-07
1.76214e-05
1.34472e-07
1.27701e-07
1.76262e-05
1.83689e-05
2.67505e-08
1.83708e-05
8.91712e-08
1.83819e-05
1.83882e-07
1.8385e-05
2.31497e-07
1.83809e-05
2.09951e-07
1.83867e-05
2.35418e-07
1.84023e-05
2.78751e-07
1.84104e-05
2.79151e-07
1.84147e-05
2.45892e-07
1.84231e-05
2.47958e-07
1.8431e-05
2.37898e-07
1.84349e-05
2.24318e-07
1.84373e-05
1.96681e-07
1.84423e-05
1.90637e-07
1.84483e-05
1.79811e-07
1.84528e-05
1.71871e-07
1.84563e-05
1.53615e-07
1.84596e-05
1.43338e-07
1.84635e-05
1.30566e-07
1.22954e-07
1.84683e-05
1.92472e-05
2.59356e-08
1.92482e-05
8.82088e-08
1.92584e-05
1.73606e-07
1.92633e-05
2.26619e-07
1.9261e-05
2.12265e-07
1.92658e-05
2.30639e-07
1.92802e-05
2.64357e-07
1.92894e-05
2.69884e-07
1.92945e-05
2.40834e-07
1.93026e-05
2.39909e-07
1.93108e-05
2.29677e-07
1.93157e-05
2.19366e-07
1.93188e-05
1.93582e-07
1.93236e-05
1.85835e-07
1.93297e-05
1.73741e-07
1.93347e-05
1.66916e-07
1.93386e-05
1.49678e-07
1.93424e-05
1.39546e-07
1.93459e-05
1.27016e-07
1.18516e-07
1.93504e-05
2.01674e-05