/*--------------------------------*- C++ -*----------------------------------*\
| =========                 |                                                 |
| \\      /  F ield         | OpenFOAM: The Open Source CFD Toolbox           |
|  \\    /   O peration     | Version:  v1912                                 |
|   \\  /    A nd           | Website:  www.openfoam.com                      |
|    \\/     M anipulation  |                                                 |
\*---------------------------------------------------------------------------*/
FoamFile
{
    version     2.0;
    format      ascii;
    class       volVectorField;
    location    "6";
    object      U;
}
// * * * * * * * * * * * * * * * * * * * * * * * * * * * * * * * * * * * * * //

dimensions      [0 1 -1 0 0 0 0];


internalField   nonuniform List<vector> 
9600
(
(0.908167 0.00377361 0)
(1.11108 -0.00723147 0)
(0.764704 0.0162851 0)
(1.36159 0.01116 0)
(0.568827 -0.0231306 0)
(1.20756 0.0177996 0)
(0.902904 0.0164002 0)
(1.09905 0.00741113 0)
(0.843962 0.0126377 0)
(1.21284 -0.0029617 0)
(0.738117 0.0143112 0)
(1.22081 0.0136304 0)
(0.727974 -0.00451665 0)
(1.19491 0.000963204 0)
(0.815948 -0.00303051 0)
(1.18361 0.00869776 0)
(0.823664 0.00595144 0)
(1.1572 0.0129408 0)
(0.849003 0.0119059 0)
(1.14473 0.0170207 0)
(0.912077 0.0035764 0)
(1.10578 -0.00595404 0)
(0.76791 0.0141734 0)
(1.35142 0.0135955 0)
(0.600059 -0.0219332 0)
(1.20385 0.0152526 0)
(0.915459 0.0171619 0)
(1.09919 0.00849354 0)
(0.857045 0.0107668 0)
(1.20491 -0.000702526 0)
(0.756276 0.0140522 0)
(1.1974 0.0144523 0)
(0.774693 -0.00445009 0)
(1.162 -0.000568833 0)
(0.865841 -0.00329157 0)
(1.14035 0.00862748 0)
(0.89656 0.00684449 0)
(1.08491 0.0117417 0)
(0.953339 0.0133395 0)
(1.0298 0.0150007 0)
(0.920277 0.00342379 0)
(1.09641 -0.00481983 0)
(0.776856 0.01189 0)
(1.33103 0.0151107 0)
(0.655416 -0.021161 0)
(1.18928 0.0122142 0)
(0.943723 0.0181164 0)
(1.09545 0.0092837 0)
(0.887832 0.0092415 0)
(1.18371 0.000735494 0)
(0.803013 0.013559 0)
(1.15192 0.0144456 0)
(0.853152 -0.00422289 0)
(1.10329 -0.00192061 0)
(0.935959 -0.00287196 0)
(1.07902 0.00809745 0)
(0.966433 0.00806924 0)
(1.02748 0.0105329 0)
(0.997829 0.0141444 0)
(1.00671 0.0147423 0)
(0.932206 0.00328402 0)
(1.08374 -0.00372112 0)
(0.793418 0.00988691 0)
(1.29858 0.0161714 0)
(0.731029 -0.0201969 0)
(1.15937 0.00970547 0)
(0.980837 0.0188524 0)
(1.08495 0.010032 0)
(0.929992 0.00810236 0)
(1.14636 0.00207835 0)
(0.868501 0.0137719 0)
(1.09964 0.0138132 0)
(0.928909 -0.00344467 0)
(1.04719 -0.00325964 0)
(0.983718 -0.00246947 0)
(1.03775 0.0074876 0)
(0.998554 0.00897619 0)
(1.00889 0.0101559 0)
(1.00376 0.0142491 0)
(1.00734 0.0152099 0)
(0.946398 0.00314514 0)
(1.06877 -0.00263505 0)
(0.81898 0.00809085 0)
(1.25371 0.016785 0)
(0.814609 -0.0190673 0)
(1.11614 0.0075029 0)
(1.01444 0.019375 0)
(1.06959 0.0107525 0)
(0.970088 0.00744478 0)
(1.09936 0.00290802 0)
(0.930634 0.0143621 0)
(1.05917 0.0130319 0)
(0.978518 -0.00251254 0)
(1.0132 -0.00411636 0)
(1.0009 -0.00242366 0)
(1.02029 0.00714782 0)
(1.00945 0.0095607 0)
(1.00859 0.0102357 0)
(1.00559 0.0142543 0)
(1.00806 0.0155427 0)
(0.96083 0.00301664 0)
(1.05303 -0.00163671 0)
(0.85229 0.00654431 0)
(1.1999 0.0168234 0)
(0.890544 -0.0178049 0)
(1.06819 0.00565965 0)
(1.03413 0.0196346 0)
(1.05339 0.0113414 0)
(0.996827 0.00728498 0)
(1.05484 0.00338543 0)
(0.973179 0.0147971 0)
(1.03628 0.0124325 0)
(1.00237 -0.00165944 0)
(0.99956 -0.00441829 0)
(1.00121 -0.00258386 0)
(1.01283 0.00681766 0)
(1.01348 0.0098441 0)
(1.01241 0.0104033 0)
(1.00971 0.0142921 0)
(1.01056 0.0157663 0)
(0.973527 0.00290464 0)
(1.03846 -0.000801691 0)
(0.888776 0.00535189 0)
(1.14453 0.0164053 0)
(0.947939 -0.0165149 0)
(1.02627 0.00435036 0)
(1.03718 0.0195802 0)
(1.03892 0.0117911 0)
(1.00771 0.00753557 0)
(1.02264 0.00361501 0)
(0.993539 0.0148668 0)
(1.02476 0.0120702 0)
(1.01098 -0.000911249 0)
(0.996535 -0.00432588 0)
(0.99742 -0.00276611 0)
(1.00705 0.00629125 0)
(1.01347 0.00980533 0)
(1.01465 0.0105074 0)
(1.01303 0.0142989 0)
(1.01328 0.0159622 0)
(0.983212 0.00281175 0)
(1.02669 -0.000163804 0)
(0.922658 0.00454383 0)
(1.09579 0.0157415 0)
(0.984169 -0.0152932 0)
(0.997385 0.00358402 0)
(1.02843 0.019251 0)
(1.02694 0.0121187 0)
(1.00778 0.00799844 0)
(1.00545 0.00369622 0)
(0.998333 0.0146723 0)
(1.01745 0.0117992 0)
(1.01303 -0.000278172 0)
(0.997373 -0.00404358 0)
(0.994933 -0.00285625 0)
(1.0018 0.00569897 0)
(1.01004 0.0095251 0)
(1.01326 0.0105006 0)
(1.01312 0.0142391 0)
(1.01349 0.0161467 0)
(0.989637 0.0027371 0)
(1.01838 0.000269989 0)
(0.949869 0.0040747 0)
(1.059 0.0150156 0)
(1.0028 -0.0142138 0)
(0.98228 0.00325058 0)
(1.01579 0.0187559 0)
(1.01772 0.0123221 0)
(1.00399 0.00848141 0)
(0.999724 0.00371852 0)
(0.996206 0.0143984 0)
(1.01155 0.0115011 0)
(1.01284 0.000192242 0)
(0.999238 -0.00371022 0)
(0.994579 -0.00278941 0)
(0.998025 0.00520694 0)
(1.00523 0.00914132 0)
(1.00916 0.01043 0)
(1.01014 0.0141223 0)
(1.01084 0.0162942 0)
(0.9934 0.00267678 0)
(1.01306 0.000529236 0)
(0.969285 0.00385852 0)
(1.03505 0.0143439 0)
(1.00974 -0.0132972 0)
(0.977198 0.00320642 0)
(1.00544 0.0182077 0)
(1.01147 0.0124044 0)
(1.00101 0.00888253 0)
(0.999867 0.00373707 0)
(0.993293 0.0141737 0)
(1.00717 0.0111425 0)
(1.01213 0.0004818 0)
(1.00109 -0.00336512 0)
(0.995678 -0.00259728 0)
(0.996213 0.00487074 0)
(1.00121 0.00878781 0)
(1.00466 0.0103711 0)
(1.00599 0.0139575 0)
(1.00692 0.0163776 0)
(0.995443 0.00262707 0)
(1.00973 0.000664793 0)
(0.982003 0.00380556 0)
(1.0215 0.0137713 0)
(1.01046 -0.0125166 0)
(0.977377 0.00330537 0)
(0.999786 0.0176761 0)
(1.00808 0.0123891 0)
(1.00031 0.00919043 0)
(1.00172 0.0037737 0)
(0.992144 0.0140326 0)
(1.00479 0.0107438 0)
(1.01155 0.00063697 0)
(1.00258 -0.00303016 0)
(0.997365 -0.00235459 0)
(0.996027 0.00470106 0)
(0.998947 0.00852819 0)
(1.00142 0.0103494 0)
(1.00252 0.0137729 0)
(1.00346 0.0164089 0)
(0.996584 0.00258589 0)
(1.00746 0.000715196 0)
(0.989933 0.00384131 0)
(1.01473 0.013299 0)
(1.00876 -0.0118288 0)
(0.979396 0.00343897 0)
(0.998176 0.0171768 0)
(1.00684 0.0123036 0)
(1.00133 0.00943495 0)
(1.00346 0.00383044 0)
(0.992854 0.0139461 0)
(1.00422 0.0103489 0)
(1.01132 0.000714747 0)
(1.00363 -0.00271845 0)
(0.999018 -0.00210358 0)
(0.996754 0.00467014 0)
(0.99826 0.00834147 0)
(0.999817 0.0103651 0)
(1.0005 0.0136265 0)
(1.00128 0.0164027 0)
(0.997323 0.00255271 0)
(1.00571 0.000709372 0)
(0.994772 0.00391694 0)
(1.01169 0.0129049 0)
(1.00669 -0.0111977 0)
(0.981591 0.00354454 0)
(0.998822 0.016699 0)
(1.00676 0.0121769 0)
(1.003 0.00965094 0)
(1.00475 0.00390318 0)
(0.994613 0.0138739 0)
(1.00476 0.00999111 0)
(1.01138 0.00075242 0)
(1.00431 -0.0024091 0)
(1.00032 -0.00186454 0)
(0.997737 0.00471599 0)
(0.998467 0.00819859 0)
(0.999384 0.01042 0)
(0.999746 0.0135521 0)
(1.00031 0.0163454 0)
(0.997897 0.00252699 0)
(1.00425 0.000668447 0)
(0.997654 0.00400516 0)
(1.01045 0.012563 0)
(1.00505 -0.0105968 0)
(0.983443 0.00360388 0)
(1.00018 0.0162316 0)
(1.00704 0.0120288 0)
(1.00458 0.0098565 0)
(1.00572 0.00398491 0)
(0.996665 0.0137893 0)
(1.00573 0.00968536 0)
(1.01159 0.000774928 0)
(1.00468 -0.00208049 0)
(1.00119 -0.00165011 0)
(0.998572 0.00479276 0)
(0.998971 0.00809604 0)
(0.99952 0.0104936 0)
(0.999763 0.0135424 0)
(1.00016 0.0162316 0)
(0.998411 0.00250767 0)
(1.00299 0.000609232 0)
(0.99927 0.00409041 0)
(1.00999 0.0122532 0)
(1.00403 -0.010007 0)
(0.98491 0.00362389 0)
(1.00142 0.0157682 0)
(1.00718 0.0118685 0)
(1.00574 0.0100563 0)
(1.00642 0.00407006 0)
(0.998582 0.0136803 0)
(1.00671 0.00943506 0)
(1.01185 0.000793657 0)
(1.00486 -0.00172187 0)
(1.00167 -0.00146018 0)
(0.999095 0.00487817 0)
(0.999429 0.0080322 0)
(0.999812 0.0105464 0)
(1.00013 0.0135824 0)
(1.00044 0.016086 0)
(0.998921 0.00249387 0)
(1.00185 0.000542738 0)
(1.00008 0.00416588 0)
(1.00983 0.0119556 0)
(1.00353 -0.00941927 0)
(0.986093 0.0036171 0)
(1.00227 0.0153076 0)
(1.00701 0.0117008 0)
(1.0064 0.0102487 0)
(1.00685 0.00415411 0)
(1.00021 0.0135394 0)
(1.00754 0.00923859 0)
(1.01211 0.000809937 0)
(1.00494 -0.00132735 0)
(1.00186 -0.00127618 0)
(0.999294 0.00495513 0)
(0.999705 0.0080047 0)
(1.00006 0.0105443 0)
(1.00058 0.0136566 0)
(1.00088 0.0159362 0)
(0.999444 0.00248482 0)
(1.00079 0.000477602 0)
(1.00043 0.00422798 0)
(1.00971 0.0116564 0)
(1.0034 -0.00883073 0)
(0.987123 0.00359759 0)
(1.00279 0.014852 0)
(1.00653 0.0115302 0)
(1.00661 0.0104292 0)
(1.00701 0.00423082 0)
(1.00156 0.0133586 0)
(1.0082 0.00909238 0)
(1.01235 0.00082653 0)
(1.005 -0.000897284 0)
(1.00191 -0.00107402 0)
(0.99925 0.00500817 0)
(0.999777 0.00802049 0)
(1.00018 0.0104738 0)
(1.001 0.0137314 0)
(1.00134 0.0157943 0)
(0.999941 0.00247981 0)
(0.999865 0.000419332 0)
(1.00053 0.00427542 0)
(1.00953 0.0113481 0)
(1.0035 -0.00824327 0)
(0.988096 0.00357743 0)
(1.00309 0.0144061 0)
(1.00581 0.0113617 0)
(1.00645 0.0105925 0)
(1.00699 0.00429575 0)
(1.00266 0.013132 0)
(1.00871 0.00899164 0)
(1.01255 0.000843317 0)
(1.00508 -0.000435097 0)
(1.00192 -0.000838607 0)
(0.999093 0.00502446 0)
(0.999693 0.00808226 0)
(1.00019 0.010344 0)
(1.00132 0.0137697 0)
(1.00173 0.0156718 0)
(1.00034 0.00247752 0)
(0.999183 0.000371009 0)
(1.00047 0.00430932 0)
(1.00929 0.0110259 0)
(1.00374 -0.00765953 0)
(0.989013 0.0035652 0)
(1.00326 0.0139752 0)
(1.00498 0.0111996 0)
(1.00608 0.0107355 0)
(1.00684 0.00434685 0)
(1.00354 0.0128567 0)
(1.00904 0.00893278 0)
(1.01269 0.000854983 0)
(1.00517 6.45463e-05 0)
(1.00195 -0.000550697 0)
(0.998967 0.0049994 0)
(0.999529 0.0081842 0)
(1.00012 0.0101786 0)
(1.00152 0.0137452 0)
(1.00203 0.0155817 0)
(1.00059 0.0024756 0)
(0.998802 0.000334852 0)
(1.00031 0.00433209 0)
(1.00904 0.0106877 0)
(1.00405 -0.00708227 0)
(0.989817 0.00356897 0)
(1.00331 0.0135618 0)
(1.00416 0.0110448 0)
(1.00563 0.0108577 0)
(1.0066 0.00438472 0)
(1.00418 0.0125342 0)
(1.00916 0.0089102 0)
(1.0127 0.000867549 0)
(1.00524 0.000583128 0)
(1.00201 -0.000211433 0)
(0.998982 0.00493341 0)
(0.999361 0.0083206 0)
(1.00005 0.0100103 0)
(1.00162 0.0136385 0)
(1.00221 0.0155234 0)
(1.0007 0.00247182 0)
(0.998681 0.000311136 0)
(1.00011 0.00434671 0)
(1.00879 0.0103318 0)
(1.00436 -0.00651236 0)
(0.99047 0.00359553 0)
(1.00327 0.0131632 0)
(1.00346 0.010894 0)
(1.00521 0.0109619 0)
(1.00632 0.00441643 0)
(1.00457 0.0121669 0)
(1.00907 0.00891686 0)
(1.01258 0.000883501 0)
(1.0053 0.00108972 0)
(1.00211 0.000184639 0)
(0.999197 0.0048316 0)
(0.999235 0.00847628 0)
(1.00001 0.00987035 0)
(1.00165 0.0134423 0)
(1.00228 0.0154858 0)
(1.0007 0.00246448 0)
(0.998714 0.000299518 0)
(0.999939 0.00435515 0)
(1.00856 0.00995958 0)
(1.0046 -0.0059506 0)
(0.990994 0.00364873 0)
(1.00318 0.0127743 0)
(1.00291 0.0107418 0)
(1.00487 0.0110513 0)
(1.00607 0.0044489 0)
(1.00473 0.01176 0)
(1.00882 0.00894828 0)
(1.01233 0.000896486 0)
(1.00536 0.00157134 0)
(1.00222 0.000648636 0)
(0.999609 0.00471017 0)
(0.999169 0.00863204 0)
(1.00004 0.00978324 0)
(1.00165 0.0131626 0)
(1.00227 0.0154515 0)
(1.00067 0.00245257 0)
(0.998804 0.00030006 0)
(0.999842 0.0043564 0)
(1.00838 0.00957707 0)
(1.00473 -0.00539933 0)
(0.991453 0.00373081 0)
(1.00307 0.0123896 0)
(1.0025 0.0105854 0)
(1.00458 0.0111261 0)
(1.00591 0.00449132 0)
(1.00474 0.0113208 0)
(1.00848 0.00899524 0)
(1.01198 0.000911581 0)
(1.00543 0.00201105 0)
(1.00232 0.0011631 0)
(1.00017 0.00458549 0)
(0.999163 0.00877376 0)
(1.00015 0.00976978 0)
(1.00166 0.0128175 0)
(1.00224 0.0153977 0)
(1.00062 0.00243601 0)
(0.998899 0.000311119 0)
(0.999816 0.00434883 0)
(1.00824 0.00918996 0)
(1.00473 -0.0048606 0)
(0.991896 0.00384155 0)
(1.003 0.0120075 0)
(1.00221 0.0104215 0)
(1.00434 0.0111889 0)
(1.0059 0.00454909 0)
(1.00468 0.0108595 0)
(1.0081 0.00905397 0)
(1.01155 0.000932921 0)
(1.00549 0.0023966 0)
(1.00239 0.00171256 0)
(1.00079 0.00447361 0)
(0.999214 0.00888721 0)
(1.0003 0.00983396 0)
(1.00173 0.0124314 0)
(1.00225 0.0152913 0)
(1.00059 0.00241419 0)
(0.99899 0.000332826 0)
(0.999836 0.00432949 0)
(1.00813 0.00880543 0)
(1.00462 -0.00433899 0)
(0.992347 0.00397798 0)
(1.00296 0.0116311 0)
(1.00202 0.0102479 0)
(1.0041 0.0112351 0)
(1.00605 0.00462673 0)
(1.00459 0.010382 0)
(1.00771 0.00912203 0)
(1.01106 0.000970921 0)
(1.00553 0.00272224 0)
(1.0024 0.00228958 0)
(1.0014 0.00438676 0)
(0.999317 0.00896062 0)
(1.00046 0.00996895 0)
(1.00187 0.012043 0)
(1.00235 0.0150952 0)
(1.00058 0.00238682 0)
(0.99909 0.000365163 0)
(0.999879 0.0042969 0)
(1.00802 0.00842898 0)
(1.00442 -0.00383852 0)
(0.9928 0.00413647 0)
(1.00293 0.0112617 0)
(1.00193 0.0100637 0)
(1.00386 0.0112602 0)
(1.00634 0.00472747 0)
(1.00453 0.00989577 0)
(1.00731 0.00919217 0)
(1.01054 0.00103432 0)
(1.00552 0.00298169 0)
(1.00234 0.00288004 0)
(1.00192 0.00432963 0)
(0.999472 0.00897945 0)
(1.00061 0.0101584 0)
(1.00207 0.0116908 0)
(1.00255 0.0147819 0)
(1.00059 0.0023527 0)
(0.999209 0.000408723 0)
(0.999938 0.0042507 0)
(1.00788 0.00806546 0)
(1.00416 -0.00335884 0)
(0.993241 0.0043131 0)
(1.00292 0.0108998 0)
(1.00194 0.00986782 0)
(1.0036 0.0112672 0)
(1.00672 0.00484162 0)
(1.00452 0.00941841 0)
(1.00691 0.00926723 0)
(1.01001 0.00113092 0)
(1.00545 0.00317647 0)
(1.00221 0.00347321 0)
(1.00229 0.00431342 0)
(0.99968 0.00893242 0)
(1.00072 0.0103749 0)
(1.0023 0.0114027 0)
(1.00285 0.0143344 0)
(1.0006 0.00231064 0)
(0.99935 0.000464714 0)
(1.00002 0.00419013 0)
(1.00769 0.00772032 0)
(1.00387 -0.00290207 0)
(0.993657 0.00450063 0)
(1.00292 0.0105467 0)
(1.00205 0.00965765 0)
(1.00334 0.0112509 0)
(1.00712 0.00497261 0)
(1.00458 0.0089533 0)
(1.00649 0.00934421 0)
(1.00949 0.00127274 0)
(1.00532 0.0033175 0)
(1.00205 0.00406365 0)
(1.00253 0.00434673 0)
(0.999942 0.00881193 0)
(1.0008 0.0105871 0)
(1.00252 0.0112113 0)
(1.00325 0.0137714 0)
(1.00062 0.00225976 0)
(0.999504 0.000533377 0)
(1.00014 0.00411626 0)
(1.00743 0.00739669 0)
(1.00357 -0.00247222 0)
(0.994041 0.00469515 0)
(1.00293 0.0102023 0)
(1.00226 0.00943179 0)
(1.00309 0.0112109 0)
(1.00748 0.00511928 0)
(1.00474 0.00849943 0)
(1.00606 0.00942016 0)
(1.00901 0.00146591 0)
(1.00517 0.00340699 0)
(1.00189 0.00463753 0)
(1.00263 0.00444017 0)
(1.00025 0.00862084 0)
(1.00087 0.0107628 0)
(1.00271 0.0111303 0)
(1.00369 0.0131417 0)
(1.00063 0.00219928 0)
(0.999657 0.000612965 0)
(1.00029 0.0040321 0)
(1.00712 0.00709738 0)
(1.00328 -0.00206699 0)
(0.994398 0.00489165 0)
(1.00296 0.00986575 0)
(1.00252 0.00918896 0)
(1.00286 0.0111545 0)
(1.00776 0.00527709 0)
(1.00497 0.00806416 0)
(1.00562 0.00949199 0)
(1.00858 0.00171898 0)
(1.00504 0.00344676 0)
(1.00174 0.00517673 0)
(1.00264 0.00460263 0)
(1.0006 0.00837061 0)
(1.00096 0.0108694 0)
(1.00283 0.0111504 0)
(1.00415 0.0125083 0)
(1.00065 0.00212909 0)
(0.999793 0.000702474 0)
(1.00048 0.00393922 0)
(1.00677 0.00682411 0)
(1.00302 -0.00168652 0)
(0.994736 0.00508218 0)
(1.00301 0.00954134 0)
(1.00281 0.00892516 0)
(1.00265 0.0110831 0)
(1.00793 0.00544726 0)
(1.00528 0.00764848 0)
(1.00521 0.00955131 0)
(1.0082 0.00203641 0)
(1.00497 0.00344576 0)
(1.00164 0.00567535 0)
(1.0026 0.00484248 0)
(1.00098 0.00807713 0)
(1.00109 0.0108719 0)
(1.00289 0.0112389 0)
(1.00455 0.0119536 0)
(1.00066 0.00204975 0)
(0.999902 0.000801261 0)
(1.00068 0.00383786 0)
(1.0064 0.00657779 0)
(1.00279 -0.00133349 0)
(0.995064 0.00526546 0)
(1.00307 0.00923361 0)
(1.00309 0.00864424 0)
(1.00246 0.0109961 0)
(1.00798 0.00562702 0)
(1.00562 0.00725235 0)
(1.00483 0.00959429 0)
(1.00784 0.00241726 0)
(1.00498 0.00341394 0)
(1.00161 0.00611995 0)
(1.00252 0.00516384 0)
(1.00137 0.00776912 0)
(1.00128 0.0107605 0)
(1.00289 0.011359 0)
(1.00487 0.0115483 0)
(1.00068 0.00196093 0)
(0.999979 0.000907867 0)
(1.00087 0.0037295 0)
(1.00605 0.00635941 0)
(1.0026 -0.00100426 0)
(0.995388 0.00543188 0)
(1.00314 0.00894763 0)
(1.00333 0.00834704 0)
(1.00228 0.0108919 0)
(1.00793 0.00581615 0)
(1.00597 0.00687692 0)
(1.0045 0.00961327 0)
(1.00749 0.00286304 0)
(1.00509 0.00336572 0)
(1.00167 0.0064819 0)
(1.00244 0.00555736 0)
(1.00176 0.00748043 0)
(1.00156 0.0105383 0)
(1.00288 0.0114569 0)
(1.00506 0.011316 0)
(1.0007 0.00186463 0)
(1.00002 0.00102127 0)
(1.00104 0.00361462 0)
(1.00573 0.00616251 0)
(1.00246 -0.000692196 0)
(0.995709 0.00557637 0)
(1.00321 0.00869008 0)
(1.00352 0.00803527 0)
(1.00211 0.0107703 0)
(1.00779 0.00601198 0)
(1.0063 0.00651806 0)
(1.00424 0.00959293 0)
(1.00713 0.00336649 0)
(1.00527 0.00332136 0)
(1.00182 0.00674677 0)
(1.00237 0.00601959 0)
(1.00215 0.00725308 0)
(1.00192 0.0102255 0)
(1.00289 0.0114747 0)
(1.00514 0.0112158 0)
(1.00072 0.00176113 0)
(1.00004 0.00114117 0)
(1.00118 0.00349492 0)
(1.00546 0.00598252 0)
(1.00236 -0.000393756 0)
(0.996025 0.00568704 0)
(1.00327 0.00846058 0)
(1.00368 0.00771882 0)
(1.00194 0.0106298 0)
(1.00758 0.00622113 0)
(1.0066 0.00618378 0)
(1.00404 0.00952307 0)
(1.00674 0.00391039 0)
(1.0055 0.00329741 0)
(1.00206 0.00690399 0)
(1.00231 0.00652686 0)
(1.0025 0.00710989 0)
(1.00236 0.00985096 0)
(1.00297 0.0114024 0)
(1.00514 0.0111914 0)
(1.00074 0.00165084 0)
(1.00004 0.00126572 0)
(1.0013 0.00337143 0)
(1.00521 0.00581076 0)
(1.00229 -9.53835e-05 0)
(0.996333 0.00576331 0)
(1.00332 0.00826254 0)
(1.00381 0.00740879 0)
(1.00179 0.0104582 0)
(1.00733 0.00643566 0)
(1.00685 0.00588131 0)
(1.0039 0.0094063 0)
(1.00632 0.00448315 0)
(1.00574 0.00331794 0)
(1.00239 0.00695195 0)
(1.00227 0.00705102 0)
(1.0028 0.00706699 0)
(1.00284 0.00943045 0)
(1.00314 0.0112461 0)
(1.0051 0.0111849 0)
(1.00075 0.00153632 0)
(1.00002 0.00139491 0)
(1.00138 0.00324599 0)
(1.005 0.00564031 0)
(1.00225 0.00019856 0)
(0.996632 0.00579738 0)
(1.00335 0.00809513 0)
(1.00393 0.00711458 0)
(1.00166 0.0102618 0)
(1.00703 0.00665191 0)
(1.00706 0.00560287 0)
(1.00382 0.00923931 0)
(1.00587 0.00507379 0)
(1.00596 0.00340186 0)
(1.0028 0.00688515 0)
(1.00225 0.00755502 0)
(1.00303 0.00715006 0)
(1.00334 0.00899302 0)
(1.0034 0.0110071 0)
(1.00506 0.0111544 0)
(1.00077 0.00141733 0)
(0.999988 0.00152406 0)
(1.00144 0.00312413 0)
(1.0048 0.00546702 0)
(1.00222 0.000500543 0)
(0.996922 0.00579421 0)
(1.00337 0.00794734 0)
(1.00404 0.00682815 0)
(1.00155 0.0100285 0)
(1.00671 0.00687907 0)
(1.00722 0.00536661 0)
(1.00381 0.00900787 0)
(1.00542 0.00565622 0)
(1.00613 0.00357504 0)
(1.00328 0.00672403 0)
(1.00229 0.00798803 0)
(1.00318 0.00735087 0)
(1.00384 0.00857305 0)
(1.00376 0.0106721 0)
(1.00505 0.0110699 0)
(1.00079 0.00129596 0)
(0.999951 0.00165286 0)
(1.00148 0.00300713 0)
(1.00461 0.00527298 0)
(1.00219 0.000827163 0)
(0.997203 0.00576553 0)
(1.00337 0.00781775 0)
(1.00415 0.0065813 0)
(1.00148 0.00975551 0)
(1.00637 0.00708908 0)
(1.00735 0.00518961 0)
(1.00385 0.00872851 0)
(1.00497 0.00618536 0)
(1.00623 0.00382747 0)
(1.0038 0.0065002 0)
(1.00238 0.00832248 0)
(1.00324 0.0076771 0)
(1.00428 0.00824236 0)
(1.00418 0.0102443 0)
(1.0051 0.0109162 0)
(1.00081 0.00117341 0)
(0.999909 0.0017765 0)
(1.0015 0.00290864 0)
(1.00444 0.00505586 0)
(1.00217 0.00115703 0)
(0.997475 0.00572498 0)
(1.00334 0.00768161 0)
(1.00425 0.00635787 0)
(1.00145 0.0094815 0)
(1.00602 0.00727903 0)
(1.00744 0.00505445 0)
(1.00395 0.00842201 0)
(1.00455 0.00667436 0)
(1.00626 0.00416711 0)
(1.00435 0.00624215 0)
(1.00257 0.00849558 0)
(1.00322 0.00806059 0)
(1.00462 0.00807301 0)
(1.00466 0.00978381 0)
(1.00522 0.0106948 0)
(1.00082 0.00105173 0)
(0.999863 0.00188977 0)
(1.00151 0.00282314 0)
(1.00426 0.00481798 0)
(1.00215 0.00149626 0)
(0.997736 0.00566312 0)
(1.0033 0.00756308 0)
(1.00434 0.00615055 0)
(1.00146 0.00916638 0)
(1.00566 0.0074757 0)
(1.00749 0.00496894 0)
(1.0041 0.00806979 0)
(1.00416 0.00707254 0)
(1.00621 0.00456629 0)
(1.00489 0.00602169 0)
(1.00285 0.00854952 0)
(1.00318 0.0084347 0)
(1.00486 0.00803835 0)
(1.00512 0.00935555 0)
(1.00541 0.0103849 0)
(1.00083 0.000932833 0)
(0.999815 0.00199267 0)
(1.0015 0.00276323 0)
(1.00409 0.00454995 0)
(1.00212 0.00181839 0)
(0.997988 0.00561964 0)
(1.00325 0.00741114 0)
(1.00442 0.005991 0)
(1.00151 0.00885468 0)
(1.0053 0.00760559 0)
(1.0075 0.00496194 0)
(1.00429 0.00770133 0)
(1.00382 0.00739404 0)
(1.00609 0.00500327 0)
(1.00541 0.00578293 0)
(1.00322 0.0084674 0)
(1.00313 0.00877823 0)
(1.00497 0.00814011 0)
(1.00554 0.00900749 0)
(1.00566 0.010034 0)
(1.00083 0.00081575 0)
(0.999765 0.00207666 0)
(1.00148 0.00272676 0)
(1.00393 0.00427891 0)
(1.0021 0.00212109 0)
(0.99822 0.0055827 0)
(1.00318 0.00725941 0)
(1.00449 0.00582112 0)
(1.00158 0.00853394 0)
(1.00495 0.00773563 0)
(1.00748 0.00498126 0)
(1.00453 0.00732679 0)
(1.00356 0.00760385 0)
(1.00588 0.00549075 0)
(1.00586 0.00566739 0)
(1.0037 0.00815557 0)
(1.00312 0.00899174 0)
(1.00498 0.00825177 0)
(1.00587 0.00863494 0)
(1.00592 0.0095837 0)
(1.00083 0.000710721 0)
(0.999714 0.00213844 0)
(1.00144 0.00271508 0)
(1.00377 0.00398951 0)
(1.00207 0.00239329 0)
(0.998443 0.0055569 0)
(1.00309 0.00712112 0)
(1.00454 0.00568888 0)
(1.0017 0.00819615 0)
(1.00461 0.00783053 0)
(1.0074 0.00502828 0)
(1.00479 0.00699488 0)
(1.00338 0.00767513 0)
(1.00564 0.00591302 0)
(1.0062 0.00563119 0)
(1.00422 0.00773941 0)
(1.00319 0.00896653 0)
(1.00489 0.00835522 0)
(1.00611 0.0082631 0)
(1.00625 0.00907953 0)
(1.00083 0.000605824 0)
(0.999664 0.00217909 0)
(1.00138 0.00272645 0)
(1.00362 0.00372679 0)
(1.00205 0.00260409 0)
(0.998642 0.00557895 0)
(1.003 0.00693379 0)
(1.00458 0.00557109 0)
(1.00183 0.00788479 0)
(1.00429 0.00787047 0)
(1.00729 0.00514267 0)
(1.00506 0.00662197 0)
(1.00327 0.00772222 0)
(1.00537 0.00633471 0)
(1.00644 0.00554693 0)
(1.00476 0.00736892 0)
(1.00336 0.00871834 0)
(1.00477 0.00841667 0)
(1.00623 0.00802062 0)
(1.00662 0.00866232 0)
(1.00082 0.000519114 0)
(0.999618 0.00218693 0)
(1.00131 0.0027585 0)
(1.00346 0.0034602 0)
(1.00204 0.00278542 0)
(0.998824 0.00556869 0)
(1.00288 0.00681504 0)
(1.0046 0.00544958 0)
(1.00199 0.00755076 0)
(1.00399 0.00791277 0)
(1.0071 0.0052509 0)
(1.00534 0.00629801 0)
(1.00326 0.00764287 0)
(1.00505 0.00666334 0)
(1.00656 0.00563415 0)
(1.00527 0.00701037 0)
(1.00357 0.00851269 0)
(1.00466 0.0085645 0)
(1.00629 0.00802544 0)
(1.00704 0.00846293 0)
(1.00081 0.000441289 0)
(0.999577 0.0021633 0)
(1.00121 0.00281151 0)
(1.00331 0.00323255 0)
(1.00205 0.00289872 0)
(0.998998 0.00558595 0)
(1.00276 0.00667738 0)
(1.00459 0.00532205 0)
(1.00216 0.00724839 0)
(1.00372 0.00789964 0)
(1.00689 0.0053897 0)
(1.0056 0.00603473 0)
(1.0033 0.00746186 0)
(1.00478 0.0069759 0)
(1.00659 0.00576089 0)
(1.00577 0.00661745 0)
(1.00395 0.00825433 0)
(1.00459 0.00862058 0)
(1.00625 0.00811428 0)
(1.00729 0.00828355 0)
(1.00079 0.000372119 0)
(0.999545 0.00211605 0)
(1.0011 0.00287142 0)
(1.00316 0.00304434 0)
(1.00207 0.00294193 0)
(0.999156 0.00560121 0)
(1.00261 0.00656008 0)
(1.00458 0.00523347 0)
(1.00236 0.00692996 0)
(1.00348 0.00785384 0)
(1.00661 0.00556612 0)
(1.00582 0.00574733 0)
(1.00346 0.00726646 0)
(1.00452 0.00723156 0)
(1.00647 0.00592279 0)
(1.00619 0.0063731 0)
(1.00436 0.00787807 0)
(1.0046 0.008595 0)
(1.00618 0.00817836 0)
(1.00752 0.00811218 0)
(1.00077 0.000329116 0)
(0.999521 0.00201856 0)
(1.00097 0.00294334 0)
(1.003 0.0028892 0)
(1.00211 0.00294988 0)
(0.999319 0.00557107 0)
(1.00245 0.0065065 0)
(1.00453 0.00515053 0)
(1.00255 0.006587 0)
(1.00329 0.00778055 0)
(1.0063 0.00575549 0)
(1.006 0.0055668 0)
(1.00366 0.00700984 0)
(1.00432 0.00738858 0)
(1.00631 0.00623197 0)
(1.00652 0.00628619 0)
(1.00486 0.00755373 0)
(1.00472 0.00861484 0)
(1.00606 0.00828169 0)
(1.00759 0.00804444 0)
(1.00075 0.000286854 0)
(0.99951 0.00190935 0)
(1.00085 0.00300558 0)
(1.00282 0.00281267 0)
(1.00216 0.00288991 0)
(0.999485 0.00551871 0)
(1.00227 0.00645819 0)
(1.00445 0.00508691 0)
(1.00277 0.00629043 0)
(1.00316 0.00766044 0)
(1.00596 0.00594763 0)
(1.00612 0.00546338 0)
(1.00394 0.00673817 0)
(1.00421 0.00750065 0)
(1.00606 0.00648149 0)
(1.00672 0.00628822 0)
(1.00536 0.00726069 0)
(1.00493 0.00844256 0)
(1.00592 0.00834496 0)
(1.00756 0.00795906 0)
(1.00072 0.000268652 0)
(0.999511 0.0017812 0)
(1.00073 0.00304564 0)
(1.00264 0.00277064 0)
(1.00222 0.00281167 0)
(0.999673 0.00542247 0)
(1.0021 0.00643125 0)
(1.00434 0.00509218 0)
(1.00297 0.00597547 0)
(1.00306 0.00747014 0)
(1.00562 0.00612588 0)
(1.00618 0.00547629 0)
(1.00423 0.00647457 0)
(1.00416 0.00744822 0)
(1.00583 0.00670522 0)
(1.00684 0.00640711 0)
(1.00583 0.00697884 0)
(1.00523 0.00813645 0)
(1.00581 0.00832152 0)
(1.00743 0.00788414 0)
(1.0007 0.000256981 0)
(0.999524 0.00163784 0)
(1.00062 0.00306775 0)
(1.00244 0.00279195 0)
(1.00228 0.0027257 0)
(0.999874 0.00525726 0)
(1.00193 0.00639558 0)
(1.00419 0.00512013 0)
(1.00316 0.00569909 0)
(1.00304 0.00726926 0)
(1.00529 0.00628214 0)
(1.00616 0.00552872 0)
(1.00452 0.00621051 0)
(1.00421 0.00735821 0)
(1.00562 0.00688266 0)
(1.00683 0.00650342 0)
(1.00618 0.00674342 0)
(1.00559 0.00776062 0)
(1.00577 0.00817523 0)
(1.00723 0.00785714 0)
(1.00067 0.000254195 0)
(0.999552 0.00150921 0)
(1.00052 0.00304948 0)
(1.00223 0.00282915 0)
(1.00233 0.00264663 0)
(1.0001 0.00504529 0)
(1.00179 0.00634528 0)
(1.00401 0.00520121 0)
(1.00333 0.00548584 0)
(1.00307 0.00701491 0)
(1.00498 0.00635274 0)
(1.00608 0.00561243 0)
(1.0048 0.00601935 0)
(1.00433 0.00720245 0)
(1.00543 0.00693104 0)
(1.00675 0.00657981 0)
(1.00644 0.00663174 0)
(1.00597 0.00742462 0)
(1.00585 0.00792178 0)
(1.00704 0.00782876 0)
(1.00064 0.000259305 0)
(0.999586 0.00137902 0)
(1.00044 0.00299666 0)
(1.00202 0.0028939 0)
(1.00236 0.00261205 0)
(1.00035 0.00479426 0)
(1.00169 0.00623643 0)
(1.00381 0.0052876 0)
(1.00346 0.00531721 0)
(1.00313 0.00674481 0)
(1.00472 0.00638549 0)
(1.00597 0.00573338 0)
(1.00502 0.00586917 0)
(1.00448 0.00698597 0)
(1.0053 0.00693082 0)
(1.00665 0.00665528 0)
(1.0066 0.00655695 0)
(1.00629 0.00712253 0)
(1.006 0.00758347 0)
(1.00688 0.00771008 0)
(1.00061 0.000264502 0)
(0.999629 0.0012695 0)
(1.00038 0.00291274 0)
(1.0018 0.00295843 0)
(1.00237 0.00260293 0)
(1.0006 0.00452622 0)
(1.00163 0.0060712 0)
(1.0036 0.00538037 0)
(1.00355 0.005223 0)
(1.00322 0.00649647 0)
(1.0045 0.00635698 0)
(1.0058 0.00581006 0)
(1.00519 0.00574932 0)
(1.00467 0.00675959 0)
(1.00522 0.00687795 0)
(1.00652 0.00668617 0)
(1.00668 0.00647334 0)
(1.00655 0.00689649 0)
(1.00621 0.0072724 0)
(1.00682 0.00752745 0)
(1.00058 0.000272472 0)
(0.999673 0.0011753 0)
(1.00034 0.00279243 0)
(1.0016 0.00301542 0)
(1.00236 0.00265171 0)
(1.00085 0.00427442 0)
(1.00162 0.005845 0)
(1.0034 0.00542778 0)
(1.0036 0.0051554 0)
(1.00331 0.00624901 0)
(1.00433 0.00628022 0)
(1.00563 0.00588175 0)
(1.00532 0.0056844 0)
(1.00487 0.00654502 0)
(1.00519 0.00675992 0)
(1.00638 0.00668587 0)
(1.0067 0.00642335 0)
(1.00675 0.00671729 0)
(1.00641 0.00699143 0)
(1.00682 0.00727017 0)
(1.00055 0.000276982 0)
(0.999718 0.00109881 0)
(1.00033 0.00266502 0)
(1.00142 0.0030504 0)
(1.00232 0.00272746 0)
(1.00108 0.00404248 0)
(1.00165 0.00557911 0)
(1.00322 0.00543073 0)
(1.00362 0.00511061 0)
(1.00342 0.00603401 0)
(1.00421 0.00618024 0)
(1.00545 0.00592096 0)
(1.00538 0.00562558 0)
(1.00506 0.00632752 0)
(1.00521 0.00659146 0)
(1.00627 0.00664191 0)
(1.00667 0.00638287 0)
(1.00687 0.00655344 0)
(1.00658 0.00673798 0)
(1.00688 0.00700779 0)
(1.00052 0.000280185 0)
(0.999762 0.00104297 0)
(1.00033 0.00252015 0)
(1.00126 0.00306661 0)
(1.00226 0.00280785 0)
(1.00129 0.00387249 0)
(1.00172 0.00530173 0)
(1.00307 0.0053752 0)
(1.00361 0.00505945 0)
(1.00351 0.00582202 0)
(1.00413 0.0060295 0)
(1.00527 0.00591081 0)
(1.0054 0.00558874 0)
(1.00523 0.00614338 0)
(1.00527 0.00641223 0)
(1.00619 0.00654776 0)
(1.00661 0.0063226 0)
(1.00694 0.00641966 0)
(1.00673 0.00650712 0)
(1.00695 0.00676455 0)
(1.00049 0.000278017 0)
(0.9998 0.00100588 0)
(1.00035 0.00237603 0)
(1.00112 0.00305972 0)
(1.00218 0.0028874 0)
(1.00146 0.00375031 0)
(1.0018 0.00502725 0)
(1.00294 0.00527177 0)
(1.00358 0.00498903 0)
(1.00359 0.00562343 0)
(1.00408 0.00586887 0)
(1.00512 0.00587724 0)
(1.00538 0.00555076 0)
(1.00536 0.00596931 0)
(1.00535 0.006209 0)
(1.00613 0.00640754 0)
(1.00654 0.00621985 0)
(1.00696 0.00630388 0)
(1.00683 0.00629434 0)
(1.00703 0.00653148 0)
(1.00047 0.000273504 0)
(0.999834 0.000981653 0)
(1.00038 0.00224049 0)
(1.00101 0.00302166 0)
(1.0021 0.00295253 0)
(1.0016 0.00366014 0)
(1.0019 0.00477018 0)
(1.00285 0.00514285 0)
(1.00354 0.00490635 0)
(1.00366 0.00543337 0)
(1.00406 0.00568714 0)
(1.00497 0.00579897 0)
(1.00532 0.00549432 0)
(1.00546 0.00580735 0)
(1.00543 0.00599859 0)
(1.0061 0.00625181 0)
(1.00649 0.00608916 0)
(1.00694 0.00618637 0)
(1.00689 0.00611599 0)
(1.00711 0.00629358 0)
(1.00044 0.000267252 0)
(0.999862 0.000965979 0)
(1.00041 0.00211374 0)
(1.00093 0.00296536 0)
(1.00202 0.00299433 0)
(1.00172 0.00358591 0)
(1.002 0.00452818 0)
(1.00278 0.00498834 0)
(1.00349 0.00481115 0)
(1.00371 0.00524618 0)
(1.00405 0.00548722 0)
(1.00486 0.00568619 0)
(1.00526 0.00543554 0)
(1.00552 0.00567156 0)
(1.00552 0.00578754 0)
(1.00609 0.00606984 0)
(1.00644 0.00593465 0)
(1.00692 0.00603734 0)
(1.00689 0.00595841 0)
(1.00716 0.00605234 0)
(1.00042 0.000256358 0)
(0.999886 0.000960448 0)
(1.00044 0.00199988 0)
(1.00087 0.00289093 0)
(1.00194 0.00301065 0)
(1.0018 0.00351825 0)
(1.0021 0.00430579 0)
(1.00273 0.00481288 0)
(1.00343 0.00470328 0)
(1.00374 0.00506992 0)
(1.00407 0.00528643 0)
(1.00477 0.00554474 0)
(1.00518 0.00534986 0)
(1.00553 0.00554313 0)
(1.00558 0.00558691 0)
(1.0061 0.00586136 0)
(1.00641 0.00576029 0)
(1.00689 0.00585636 0)
(1.00687 0.00580785 0)
(1.00718 0.00584989 0)
(1.0004 0.000244979 0)
(0.999904 0.000955723 0)
(1.00047 0.00189641 0)
(1.00082 0.00280334 0)
(1.00187 0.00300348 0)
(1.00186 0.00345024 0)
(1.00219 0.00409928 0)
(1.0027 0.00462927 0)
(1.00338 0.0045811 0)
(1.00376 0.00490286 0)
(1.00408 0.00508088 0)
(1.00471 0.00537655 0)
(1.0051 0.00523176 0)
(1.00552 0.00540865 0)
(1.00562 0.00540774 0)
(1.00611 0.00565629 0)
(1.00637 0.00557559 0)
(1.00688 0.00565482 0)
(1.00684 0.00563097 0)
(1.00715 0.00568215 0)
(1.00039 0.000232642 0)
(0.999918 0.000949526 0)
(1.0005 0.0018023 0)
(1.00079 0.00270858 0)
(1.0018 0.00297092 0)
(1.0019 0.00338017 0)
(1.00227 0.00390541 0)
(1.00268 0.0044409 0)
(1.00333 0.00444203 0)
(1.00375 0.004742 0)
(1.00409 0.0048792 0)
(1.00466 0.00518952 0)
(1.00504 0.00509562 0)