/*--------------------------------*- C++ -*----------------------------------*\
| =========                 |                                                 |
| \\      /  F ield         | OpenFOAM: The Open Source CFD Toolbox           |
|  \\    /   O peration     | Version:  v1912                                 |
|   \\  /    A nd           | Website:  www.openfoam.com                      |
|    \\/     M anipulation  |                                                 |
\*---------------------------------------------------------------------------*/
FoamFile
{
    version     2.0;
    format      ascii;
    class       surfaceScalarField;
    location    "3.05";
    object      phi;
}
// * * * * * * * * * * * * * * * * * * * * * * * * * * * * * * * * * * * * * //

dimensions      [0 3 -1 0 0 0 0];
oriented        oriented;


internalField   nonuniform List<scalar> 
19000
(
1.21999e-06
-1.55742e-06
1.24493e-06
1.45651e-06
1.12241e-06
9.46373e-07
1.09205e-06
-1.4931e-06
1.26934e-06
-2.00151e-06
1.19899e-06
1.88779e-07
1.15779e-06
-1.32263e-07
1.22037e-06
2.1357e-07
1.17055e-06
-4.36004e-07
1.16875e-06
1.7624e-07
1.17302e-06
7.38707e-08
1.20339e-06
5.74788e-07
1.21543e-06
5.04241e-07
1.19144e-06
2.60622e-07
1.22165e-06
4.58696e-07
1.2035e-06
1.78152e-08
1.22663e-06
2.51551e-07
1.20793e-06
2.9748e-07
1.19711e-06
2.44266e-07
3.91365e-07
1.18916e-06
1.28332e-06
-1.61648e-06
1.32984e-06
1.40999e-06
1.19912e-06
1.07709e-06
1.14576e-06
-1.43973e-06
1.32923e-06
-2.18498e-06
1.27127e-06
2.46743e-07
1.22849e-06
-8.94852e-08
1.29543e-06
1.46626e-07
1.24744e-06
-3.88011e-07
1.23914e-06
1.84537e-07
1.23723e-06
7.57798e-08
1.27052e-06
5.41507e-07
1.27591e-06
4.98849e-07
1.25971e-06
2.76821e-07
1.27888e-06
4.39522e-07
1.27328e-06
2.34183e-08
1.27582e-06
2.49011e-07
1.28684e-06
2.86458e-07
1.23744e-06
2.93663e-07
3.53831e-07
1.27498e-06
1.345e-06
-1.67869e-06
1.42492e-06
1.33006e-06
1.2916e-06
1.21041e-06
1.20688e-06
-1.35502e-06
1.38841e-06
-2.36652e-06
1.36265e-06
2.72509e-07
1.31133e-06
-3.81642e-08
1.38241e-06
7.55439e-08
1.33465e-06
-3.40251e-07
1.32259e-06
1.96596e-07
1.3075e-06
9.08704e-08
1.34481e-06
5.04202e-07
1.34363e-06
5.00026e-07
1.33814e-06
2.82308e-07
1.34658e-06
4.3108e-07
1.35194e-06
1.80604e-08
1.34225e-06
2.58699e-07
1.35407e-06
2.74646e-07
1.3149e-06
3.32828e-07
3.55454e-07
1.31328e-06
1.4054e-06
-1.73999e-06
1.51776e-06
1.21771e-06
1.38778e-06
1.3404e-06
1.27814e-06
-1.24538e-06
1.44758e-06
-2.53596e-06
1.46252e-06
2.57567e-07
1.4013e-06
2.30567e-08
1.46836e-06
8.49137e-09
1.42265e-06
-2.94543e-07
1.40636e-06
2.12882e-07
1.38133e-06
1.15903e-07
1.41539e-06
4.7014e-07
1.41706e-06
4.9836e-07
1.41701e-06
2.82361e-07
1.42231e-06
4.25773e-07
1.42783e-06
1.25403e-08
1.4194e-06
2.67128e-07
1.42202e-06
2.72025e-07
1.39896e-06
3.55891e-07
3.73058e-07
1.38136e-06
1.46441e-06
-1.79604e-06
1.60057e-06
1.08155e-06
1.48136e-06
1.4596e-06
1.3587e-06
-1.12271e-06
1.50381e-06
-2.68108e-06
1.55712e-06
2.04265e-07
1.49248e-06
8.76908e-08
1.54376e-06
-4.27816e-08
1.50353e-06
-2.54313e-07
1.48247e-06
2.33935e-07
1.45598e-06
1.42394e-07
1.48315e-06
4.42967e-07
1.49304e-06
4.88472e-07
1.49587e-06
2.79533e-07
1.50027e-06
4.21369e-07
1.5009e-06
1.19151e-08
1.49557e-06
2.72459e-07
1.49336e-06
2.74233e-07
1.47929e-06
3.69959e-07
3.92264e-07
1.46009e-06
1.52253e-06
-1.84289e-06
1.66956e-06
9.34515e-07
1.56968e-06
1.55948e-06
1.44502e-06
-9.98045e-07
1.5551e-06
-2.79116e-06
1.63562e-06
1.23738e-07
1.57983e-06
1.43488e-07
1.60713e-06
-7.00883e-08
1.57335e-06
-2.20533e-07
1.55114e-06
2.56143e-07
1.53056e-06
1.62982e-07
1.55365e-06
4.19877e-07
1.57051e-06
4.71611e-07
1.57533e-06
2.74713e-07
1.57805e-06
4.18645e-07
1.57284e-06
1.71264e-08
1.56837e-06
2.76926e-07
1.56522e-06
2.77382e-07
1.55761e-06
3.77575e-07
4.09416e-07
1.54045e-06
1.58084e-06
-1.87752e-06
1.72472e-06
7.90633e-07
1.65209e-06
1.63211e-06
1.53366e-06
-8.79618e-07
1.6031e-06
-2.86059e-06
1.69656e-06
3.02744e-08
1.65935e-06
1.80703e-07
1.66208e-06
-7.28164e-08
1.63241e-06
-1.90861e-07
1.61528e-06
2.73269e-07
1.60497e-06
1.7329e-07
1.62886e-06
3.95987e-07
1.64881e-06
4.51661e-07
1.65412e-06
2.69402e-07
1.65405e-06
4.18717e-07
1.64375e-06
2.74297e-08
1.63946e-06
2.81218e-07
1.63673e-06
2.80114e-07
1.63572e-06
3.78577e-07
4.23121e-07
1.62202e-06
1.64061e-06
-1.898e-06
1.76929e-06
6.61953e-07
1.72892e-06
1.67249e-06
1.62323e-06
-7.73932e-07
1.65252e-06
-2.88989e-06
1.74558e-06
-6.27804e-08
1.72877e-06
1.9751e-07
1.71308e-06
-5.712e-08
1.68506e-06
-1.62846e-07
1.67744e-06
2.80889e-07
1.67869e-06
1.72041e-07
1.70615e-06
3.68529e-07
1.72555e-06
4.32253e-07
1.72981e-06
2.65148e-07
1.72648e-06
4.22047e-07
1.71236e-06
4.15426e-08
1.70959e-06
2.83994e-07
1.70763e-06
2.82068e-07
1.7133e-06
3.72908e-07
4.32259e-07
1.70417e-06
1.70319e-06
-1.90362e-06
1.80895e-06
5.56195e-07
1.80129e-06
1.68015e-06
1.71371e-06
-6.86352e-07
1.70794e-06
-2.88412e-06
1.79004e-06
-1.44879e-07
1.78871e-06
1.98843e-07
1.76417e-06
-3.25778e-08
1.73806e-06
-1.36739e-07
1.74034e-06
2.78605e-07
1.7509e-06
1.61485e-07
1.78128e-06
3.3815e-07
1.79786e-06
4.15669e-07
1.80061e-06
2.62405e-07
1.79484e-06
4.27817e-07
1.77821e-06
5.81718e-08
1.77852e-06
2.83683e-07
1.77728e-06
2.8331e-07
1.78843e-06
3.61759e-07
4.36435e-07
1.78425e-06
1.77014e-06
-1.89504e-06
1.85064e-06
4.75697e-07
1.87157e-06
1.65921e-06
1.80529e-06
-6.20065e-07
1.7718e-06
-2.85063e-06
1.83636e-06
-2.09437e-07
1.84329e-06
1.91912e-07
1.81894e-06
-8.22838e-09
1.79716e-06
-1.14963e-07
1.80684e-06
2.68928e-07
1.82189e-06
1.46431e-07
1.85221e-06
3.07827e-07
1.86535e-06
4.02537e-07
1.8673e-06
2.6045e-07
1.86109e-06
4.34023e-07
1.84303e-06
7.62372e-08
1.84655e-06
2.80162e-07
1.8453e-06
2.84563e-07
1.85939e-06
3.4767e-07
4.36414e-07
1.85941e-06
1.84319e-06
-1.87448e-06
1.90084e-06
4.18047e-07
1.94309e-06
1.61696e-06
1.89793e-06
-5.74906e-07
1.8446e-06
-2.7973e-06
1.8898e-06
-2.54633e-07
1.89898e-06
1.8273e-07
1.88028e-06
1.04684e-08
1.86486e-06
-9.95415e-08
1.87882e-06
2.54971e-07
1.89368e-06
1.31573e-07
1.92087e-06
2.80638e-07
1.93123e-06
3.9217e-07
1.93349e-06
2.58189e-07
1.92904e-06
4.38473e-07
1.91023e-06
9.50488e-08
1.91539e-06
2.75007e-07
1.91273e-06
2.87221e-07
1.92654e-06
3.3386e-07
4.3383e-07
1.92912e-06
1.92367e-06
-1.84531e-06
1.96362e-06
3.78104e-07
2.01886e-06
1.56172e-06
1.99157e-06
-5.47616e-07
1.92591e-06
-2.73164e-06
1.95428e-06
-2.83005e-07
1.96198e-06
1.75033e-07
1.94993e-06
2.2516e-08
1.94075e-06
-9.03627e-08
1.95684e-06
2.38884e-07
1.96923e-06
1.19183e-07
1.99193e-06
2.57932e-07
2.00084e-06
3.83263e-07
2.00405e-06
2.54982e-07
2.00265e-06
4.39874e-07
1.98327e-06
1.14424e-07
1.98773e-06
2.70546e-07
1.98217e-06
2.92781e-07
1.99286e-06
3.23172e-07
4.30428e-07
1.99626e-06
2.01205e-06
-1.81117e-06
2.03978e-06
3.50371e-07
2.10063e-06
1.50087e-06
2.08646e-06
-5.33449e-07
2.01484e-06
-2.66002e-06
2.03144e-06
-2.996e-07
2.03581e-06
1.7066e-07
2.02831e-06
3.00133e-08
2.02343e-06
-8.5484e-08
2.04069e-06
2.21628e-07
2.051e-06
1.08872e-07
2.06995e-06
2.38977e-07
2.07869e-06
3.74525e-07
2.08278e-06
2.50893e-07
2.08449e-06
4.38166e-07
2.06436e-06
1.34558e-07
2.06622e-06
2.68681e-07
2.0569e-06
3.02103e-07
2.06279e-06
3.17279e-07
4.27366e-07
2.06586e-06
2.10784e-06
-1.77501e-06
2.12765e-06
3.30561e-07
2.18884e-06
1.43968e-06
2.18333e-06
-5.27935e-07
2.11028e-06
-2.58697e-06
2.12032e-06
-3.09645e-07
2.12084e-06
1.70147e-07
2.11504e-06
3.5806e-08
2.11209e-06
-8.25362e-08
2.13012e-06
2.03601e-07
2.13994e-06
9.90511e-08
2.15701e-06
2.21905e-07
2.16653e-06
3.65005e-07
2.17105e-06
2.46382e-07
2.17517e-06
4.34045e-07
2.15407e-06
1.5565e-07
2.15255e-06
2.70202e-07
2.13962e-06
3.15034e-07
2.14042e-06
3.16479e-07
4.24985e-07
2.1428e-06
2.21008e-06
-1.7386e-06
2.22473e-06
3.15909e-07
2.28339e-06
1.38102e-06
2.28323e-06
-5.27775e-07
2.21112e-06
-2.51487e-06
2.2185e-06
-3.17021e-07
2.2156e-06
1.73048e-07
2.20967e-06
4.17395e-08
2.20697e-06
-7.98422e-08
2.22526e-06
1.85308e-07
2.23574e-06
8.85723e-08
2.25259e-06
2.05054e-07
2.26339e-06
3.5421e-07
2.26788e-06
2.41893e-07
2.27367e-06
4.28257e-07
2.2518e-06
1.77521e-07
2.24722e-06
2.74776e-07
2.23176e-06
3.305e-07
2.22822e-06
3.20013e-07
4.22982e-07
2.23023e-06
2.31786e-06
-1.70258e-06
2.32914e-06
3.04627e-07
2.38427e-06
1.32589e-06
2.38729e-06
-5.30792e-07
2.31664e-06
-2.44422e-06
2.32356e-06
-3.23946e-07
2.3185e-06
1.78113e-07
2.31204e-06
4.82011e-08
2.30888e-06
-7.66794e-08
2.32662e-06
1.67564e-07
2.33775e-06
7.7443e-08
2.35502e-06
1.87787e-07
2.36707e-06
3.42158e-07
2.37128e-06
2.37676e-07
2.37833e-06
4.21213e-07
2.35634e-06
1.99513e-07
2.3498e-06
2.81309e-07
2.33342e-06
3.46882e-07
2.32689e-06
3.26547e-07
4.20729e-07
2.32914e-06
2.43066e-06
-1.66684e-06
2.44002e-06
2.95268e-07
2.49184e-06
1.27406e-06
2.49652e-06
-5.35479e-07
2.42661e-06
-2.3743e-06
2.43406e-06
-3.314e-07
2.42858e-06
1.83595e-07
2.4222e-06
5.45816e-08
2.4185e-06
-7.29817e-08
2.4348e-06
1.5127e-07
2.44571e-06
6.65318e-08
2.46296e-06
1.70531e-07
2.47574e-06
3.29384e-07
2.47954e-06
2.33872e-07
2.48771e-06
4.13044e-07
2.46654e-06
2.20684e-07
2.45943e-06
2.88421e-07
2.44387e-06
3.62443e-07
2.43584e-06
3.34577e-07
4.1753e-07
2.43904e-06
2.54836e-06
-1.63091e-06
2.55718e-06
2.86448e-07
2.6065e-06
1.22474e-06
2.61167e-06
-5.40652e-07
2.5413e-06
-2.30392e-06
2.54956e-06
-3.39662e-07
2.54542e-06
1.87732e-07
2.54002e-06
5.99818e-08
2.53603e-06
-6.89953e-08
2.55021e-06
1.37099e-07
2.55984e-06
5.68997e-08
2.5761e-06
1.54273e-07
2.58869e-06
3.16794e-07
2.59189e-06
2.30662e-07
2.60111e-06
4.03832e-07
2.58166e-06
2.40134e-07
2.57523e-06
2.94843e-07
2.56201e-06
3.75667e-07
2.55389e-06
3.42701e-07
4.12782e-07
2.55863e-06
2.67112e-06
-1.5942e-06
2.68067e-06
2.76896e-07
2.72853e-06
1.17688e-06
2.73322e-06
-5.45343e-07
2.66126e-06
-2.23196e-06
2.67029e-06
-3.48695e-07
2.66882e-06
1.89203e-07
2.66505e-06
6.37527e-08
2.66114e-06
-6.50843e-08
2.67291e-06
1.25329e-07
2.68048e-06
4.93218e-08
2.69479e-06
1.3997e-07
2.70621e-06
3.05375e-07
2.70856e-06
2.28313e-07
2.71863e-06
3.93755e-07
2.7015e-06
2.57269e-07
2.69666e-06
2.99685e-07
2.68685e-06
3.85474e-07
2.67973e-06
3.49815e-07
4.06097e-07
2.68642e-06
2.79927e-06
-1.55619e-06
2.81052e-06
2.65643e-07
2.85794e-06
1.12946e-06
2.86145e-06
-5.4885e-07
2.78713e-06
-2.15764e-06
2.7968e-06
-3.58363e-07
2.79868e-06
1.87321e-07
2.79668e-06
6.57591e-08
2.7932e-06
-6.16105e-08
2.80264e-06
1.15891e-07
2.80781e-06
4.4156e-08
2.81964e-06
1.28134e-07
2.82917e-06
2.95844e-07
2.83041e-06
2.27076e-07
2.84107e-06
3.83092e-07
2.82643e-06
2.71908e-07
2.82356e-06
3.02562e-07
2.81768e-06
3.91348e-07
2.81225e-06
3.55248e-07
3.97391e-07
2.82096e-06
2.93327e-06
-1.51657e-06
2.94676e-06
2.52152e-07
2.99449e-06
1.08173e-06
2.99645e-06
-5.50817e-07
2.91953e-06
-2.08072e-06
2.92966e-06
-3.68493e-07
2.93502e-06
1.81965e-07
2.9344e-06
6.63753e-08
2.93162e-06
-5.88319e-08
2.93902e-06
1.08499e-07
2.94175e-06
4.14185e-08
2.95118e-06
1.18704e-07
2.9586e-06
2.88432e-07
2.95865e-06
2.27023e-07
2.96958e-06
3.72155e-07
2.95728e-06
2.84216e-07
2.95622e-06
3.03613e-07
2.95423e-06
3.93339e-07
2.9507e-06
3.58784e-07
3.86953e-07
2.96114e-06
3.07364e-06
-1.4752e-06
3.08945e-06
2.36343e-07
3.13785e-06
1.03333e-06
3.13829e-06
-5.5126e-07
3.05898e-06
-2.0014e-06
3.06932e-06
-3.78838e-07
3.07791e-06
1.7338e-07
3.07801e-06
6.62726e-08
3.07603e-06
-5.68538e-08
3.08178e-06
1.02754e-07
3.08228e-06
4.09191e-08
3.08981e-06
1.11172e-07
3.09536e-06
2.82882e-07
3.09438e-06
2.27999e-07
3.10532e-06
3.61211e-07
3.095e-06
2.94545e-07
3.09523e-06
3.03375e-07
3.09665e-06
3.91925e-07
3.09482e-06
3.60615e-07
3.75377e-07
3.10639e-06
3.2209e-06
-1.43219e-06
3.23877e-06
2.18475e-07
3.2878e-06
9.84309e-07
3.28703e-06
-5.5049e-07
3.20589e-06
-1.92027e-06
3.21607e-06
-3.8902e-07
3.22746e-06
1.61994e-07
3.22761e-06
6.61196e-08
3.22639e-06
-5.56348e-08
3.23096e-06
9.81863e-08
3.2295e-06
4.23734e-08
3.23582e-06
1.04857e-07
3.24004e-06
2.7866e-07
3.23833e-06
2.29705e-07
3.24913e-06
3.50411e-07
3.24043e-06
3.03251e-07
3.24126e-06
3.02546e-07
3.24539e-06
3.87795e-07
3.24492e-06
3.61083e-07
3.63442e-07
3.25685e-06
3.37549e-06
-1.38775e-06
3.39502e-06
1.98936e-07
3.44435e-06
9.34988e-07
3.4428e-06
-5.48939e-07
3.36062e-06
-1.83809e-06
3.37012e-06
-3.98525e-07
3.38384e-06
1.48278e-07
3.3836e-06
6.63565e-08
3.383e-06
-5.50337e-08
3.38688e-06
9.43075e-08
3.38378e-06
4.54755e-08
3.38947e-06
9.91617e-08
3.39293e-06
2.75205e-07
3.3908e-06
2.31831e-07
3.40138e-06
3.39828e-07
3.39412e-06
3.10513e-07
3.39489e-06
3.01775e-07
3.40112e-06
3.81564e-07
3.40174e-06
3.60468e-07
3.51898e-07
3.41328e-06
3.53774e-06
-1.34208e-06
3.55861e-06
1.78061e-07
3.6078e-06
8.85807e-07
3.60584e-06
-5.46988e-07
3.52345e-06
-1.75569e-06
3.5317e-06
-4.06781e-07
3.54732e-06
1.32661e-07
3.5466e-06
6.70768e-08
3.54641e-06
-5.48388e-08
3.55001e-06
9.06988e-08
3.54555e-06
4.99426e-08
3.55097e-06
9.37379e-08
3.55411e-06
2.72062e-07
3.55175e-06
2.34192e-07
3.56214e-06
3.29445e-07
3.55635e-06
3.16301e-07
3.55661e-06
3.01511e-07
3.56451e-06
3.7367e-07
3.56616e-06
3.58811e-07
3.41383e-07
3.57668e-06
3.70798e-06
-1.29535e-06
3.73e-06
1.56041e-07
3.77863e-06
8.37178e-07
3.77648e-06
-5.44842e-07
3.69464e-06
-1.67386e-06
3.70112e-06
-4.13262e-07
3.71825e-06
1.15531e-07
3.7173e-06
6.80318e-08
3.71727e-06
-5.48054e-08
3.72086e-06
8.71066e-08
3.71526e-06
5.55417e-08
3.72049e-06
8.85024e-08
3.72365e-06
2.68902e-07
3.7211e-06
2.36742e-07
3.73135e-06
3.19195e-07
3.72724e-06
3.20414e-07
3.72685e-06
3.01902e-07
3.73604e-06
3.6448e-07
3.73891e-06
3.55938e-07
3.32258e-07
3.74804e-06
3.88652e-06
-1.24768e-06
3.90961e-06
1.32947e-07
3.95739e-06
7.89407e-07
3.95505e-06
-5.42503e-07
3.87445e-06
-1.59326e-06
3.87878e-06
-4.17594e-07
3.89703e-06
9.72834e-08
3.89632e-06
6.87405e-08
3.89623e-06
-5.47199e-08
3.89986e-06
8.34792e-08
3.89332e-06
6.2083e-08
3.89824e-06
8.35859e-08
3.90168e-06
2.65455e-07
3.89889e-06
2.39535e-07
3.90908e-06
3.09009e-07
3.90695e-06
3.22544e-07
3.90599e-06
3.02861e-07
3.91606e-06
3.54409e-07
3.92045e-06
3.51547e-07
3.24483e-07
3.92822e-06
4.07372e-06
-1.19915e-06
4.09786e-06
1.08807e-07
4.14462e-06
7.42652e-07
4.1419e-06
-5.39792e-07
4.06313e-06
-1.51448e-06
4.06515e-06
-4.19613e-07
4.08406e-06
7.83731e-08
4.08413e-06
6.86684e-08
4.08387e-06
-5.44631e-08
4.08744e-06
7.99168e-08
4.08012e-06
6.93953e-08
4.08448e-06
7.92317e-08
4.08845e-06
2.6148e-07
4.08536e-06
2.42625e-07
4.09545e-06
2.98921e-07
4.09561e-06
3.22387e-07
4.09438e-06
3.0409e-07
4.10477e-06
3.44018e-07
4.11097e-06
3.45344e-07
3.1767e-07
4.11779e-06
4.26998e-06
-1.14983e-06
4.2951e-06
8.36888e-08
4.34082e-06
6.96924e-07
4.33745e-06
-5.36414e-07
4.26096e-06
-1.438e-06
4.26073e-06
-4.19384e-07
4.2798e-06
5.93093e-08
4.28105e-06
6.74128e-08
4.28063e-06
-5.40414e-08
4.28398e-06
7.65682e-08
4.27608e-06
7.72949e-08
4.27961e-06
7.57022e-08
4.28434e-06
2.56756e-07
4.28095e-06
2.46008e-07
4.29075e-06
2.89123e-07
4.29343e-06
3.19708e-07
4.29232e-06
3.05196e-07
4.30248e-06
3.33859e-07
4.31057e-06
3.3726e-07
3.11213e-07
4.31702e-06
4.47573e-06
-1.09978e-06
4.50167e-06
5.77433e-08
4.54649e-06
6.5211e-07
4.54211e-06
-5.32039e-07
4.46827e-06
-1.36416e-06
4.46604e-06
-4.17155e-07
4.48473e-06
4.06198e-08
4.48735e-06
6.47959e-08
4.48685e-06
-5.35456e-08
4.4899e-06
7.35209e-08
4.48163e-06
8.55714e-08
4.48412e-06
7.32042e-08
4.48978e-06
2.51094e-07
4.48618e-06
2.49614e-07
4.49541e-06
2.7989e-07
4.5006e-06
3.14517e-07
4.50006e-06
3.05735e-07
4.50956e-06
3.24358e-07
4.51925e-06
3.27573e-07
3.04434e-07
4.52603e-06
4.69145e-06
-1.04911e-06
4.71799e-06
3.12026e-08
4.76207e-06
6.08032e-07
4.7564e-06
-5.2637e-07
4.68541e-06
-1.29317e-06
4.68155e-06
-4.13295e-07
4.69939e-06
2.27863e-08
4.70331e-06
6.08686e-08
4.70286e-06
-5.30912e-08
4.70563e-06
7.07502e-08
4.69721e-06
9.39919e-08
4.69856e-06
7.18529e-08
4.70528e-06
2.44379e-07
4.70162e-06
2.53265e-07
4.70992e-06
2.71596e-07
4.7174e-06
3.07035e-07
4.71781e-06
3.05322e-07
4.72645e-06
3.15721e-07
4.73715e-06
3.1687e-07
2.96781e-07
4.74481e-06
4.91764e-06
-9.97953e-07
4.94449e-06
4.34583e-09
4.98801e-06
5.64511e-07
4.98085e-06
-5.19203e-07
4.91279e-06
-1.22512e-06
4.9077e-06
-4.08207e-07
4.9243e-06
6.18564e-09
4.92933e-06
5.58448e-08
4.929e-06
-5.27633e-08
4.93162e-06
6.81319e-08
4.9233e-06
1.02316e-07
4.92348e-06
7.16699e-08
4.93127e-06
2.36585e-07
4.92785e-06
2.5669e-07
4.93486e-06
2.64589e-07
4.94418e-06
2.97714e-07
4.94586e-06
3.03641e-07
4.95356e-06
3.0802e-07
4.96462e-06
3.05805e-07
2.88057e-07
4.97335e-06
5.15482e-06
-9.46453e-07
5.1817e-06
-2.2542e-08
5.2248e-06
5.21413e-07
5.21605e-06
-5.10448e-07
5.15088e-06
-1.15995e-06
5.14493e-06
-4.02257e-07
5.16004e-06
-8.92799e-09
5.16589e-06
4.99975e-08
5.16571e-06
-5.25876e-08
5.16835e-06
6.54913e-08
5.16036e-06
1.10309e-07
5.1594e-06
7.26328e-08
5.16824e-06
2.27745e-07
5.16538e-06
2.59542e-07
5.17081e-06
2.59162e-07
5.18149e-06
2.87037e-07
5.18456e-06
3.0057e-07
5.19135e-06
3.01234e-07
5.20218e-06
2.94967e-07
2.78423e-07
5.21182e-06
5.40353e-06
-8.94796e-07
5.43018e-06
-4.91936e-08
5.47292e-06
4.78675e-07
5.4626e-06
-5.00124e-07
5.40018e-06
-1.09753e-06
5.39367e-06
-3.95754e-07
5.40724e-06
-2.24955e-08
5.41356e-06
4.36807e-08
5.41351e-06
-5.25429e-08
5.41635e-06
6.26536e-08
5.40891e-06
1.17752e-07
5.40684e-06
7.47043e-08
5.41661e-06
2.17972e-07
5.41472e-06
2.61436e-07
5.41841e-06
2.55465e-07
5.42984e-06
2.75608e-07
5.43444e-06
2.95975e-07
5.44038e-06
2.95294e-07
5.45059e-06
2.84757e-07
2.6834e-07
5.46067e-06
5.66434e-06
-8.43179e-07
5.69051e-06
-7.53659e-08
5.7329e-06
4.36293e-07
5.72109e-06
-4.88324e-07
5.66126e-06
-1.03769e-06
5.65443e-06
-3.88928e-07
5.66661e-06
-3.467e-08
5.67297e-06
3.73167e-08
5.673e-06
-5.2568e-08
5.67616e-06
5.94933e-08
5.66946e-06
1.24444e-07
5.66633e-06
7.78359e-08
5.67683e-06
2.07475e-07
5.67633e-06
2.61936e-07
5.67829e-06
2.53504e-07
5.68981e-06
2.64086e-07
5.69608e-06
2.89706e-07
5.70134e-06
2.90033e-07
5.71062e-06
2.75484e-07
2.58254e-07
5.7207e-06
5.93783e-06
-7.91812e-07
5.96329e-06
-1.00826e-07
6.00528e-06
3.94299e-07
5.99213e-06
-4.75172e-07
5.93472e-06
-9.80287e-07
5.92772e-06
-3.81921e-07
5.93873e-06
-4.56881e-08
5.94479e-06
3.12551e-08
5.94479e-06
-5.25632e-08
5.94834e-06
5.59436e-08
5.94259e-06
1.3019e-07
5.93846e-06
8.19718e-08
5.94937e-06
1.9656e-07
5.95067e-06
2.60636e-07
5.95108e-06
2.53102e-07
5.96203e-06
2.53128e-07
5.97014e-06
2.81596e-07
5.975e-06
2.8518e-07
5.98314e-06
2.67341e-07
2.48525e-07
5.99287e-06
6.22459e-06
-7.40915e-07
6.24911e-06
-1.25342e-07
6.29067e-06
3.52734e-07
6.2763e-06
-4.60796e-07
6.22121e-06
-9.25203e-07
6.21406e-06
-3.74769e-07
6.22419e-06
-5.58146e-08
6.2297e-06
2.57442e-08
6.22954e-06
-5.24013e-08
6.2335e-06
5.19827e-08
6.2289e-06
1.34791e-07
6.22384e-06
8.70239e-08
6.23481e-06
1.8559e-07
6.23818e-06
2.57274e-07
6.23743e-06
2.53848e-07
6.2472e-06
2.43355e-07
6.25712e-06
2.71679e-07
6.26206e-06
2.80241e-07
6.26894e-06
2.60456e-07
2.39423e-07
6.27805e-06
6.52527e-06
-6.90716e-07
6.54859e-06
-1.48667e-07
6.5897e-06
3.11627e-07
6.5742e-06
-4.45299e-07
6.5214e-06
-8.72403e-07
6.514e-06
-3.67366e-07
6.52353e-06
-6.53481e-08
6.52836e-06
2.09207e-08
6.52791e-06
-5.19512e-08
6.53226e-06
4.76255e-08
6.52896e-06
1.381e-07
6.52315e-06
9.28333e-08
6.53376e-06
1.74974e-07
6.5393e-06
2.51737e-07
6.53798e-06
2.55162e-07
6.54609e-06
2.3525e-07
6.55752e-06
2.60252e-07
6.56311e-06
2.7465e-07
6.56881e-06
2.54757e-07
2.31143e-07
6.57709e-06
6.84052e-06
-6.41447e-07
6.8624e-06
-1.70543e-07
6.90304e-06
2.70987e-07
6.88648e-06
-4.2874e-07
6.83601e-06
-8.21932e-07
6.82816e-06
-3.59515e-07
6.83732e-06
-7.45102e-08
6.84146e-06
1.67844e-08
6.84059e-06
-5.10819e-08
6.8453e-06
4.29162e-08
6.84341e-06
1.39984e-07
6.83709e-06
9.91595e-08
6.84692e-06
1.65135e-07
6.85456e-06
2.44097e-07
6.85336e-06
2.56369e-07
6.85948e-06
2.2913e-07
6.87183e-06
2.47902e-07
6.87872e-06
2.67763e-07
6.88343e-06
2.50041e-07
2.23842e-07
6.89073e-06
7.17104e-06
-5.93349e-07
7.19119e-06
-1.90699e-07
7.23137e-06
2.30811e-07
7.2138e-06
-4.1117e-07
7.16573e-06
-7.73865e-07
7.15722e-06
-3.50998e-07
7.16615e-06
-8.34407e-08
7.16973e-06
1.32038e-08
7.16831e-06
-4.96622e-08
7.17327e-06
3.79517e-08
7.17289e-06
1.4037e-07
7.16635e-06
1.05693e-07
7.17507e-06
1.56421e-07
7.18457e-06
2.34592e-07
7.18423e-06
2.56709e-07
7.18827e-06
2.25096e-07
7.2006e-06
2.35565e-07
7.20944e-06
2.58927e-07
7.21352e-06
2.45956e-07
2.1763e-07
7.21974e-06
7.51754e-06
-5.46662e-07
7.53571e-06
-2.08873e-07
7.57541e-06
1.91111e-07
7.55688e-06
-3.92635e-07
7.51133e-06
-7.2832e-07
7.50196e-06
-3.41629e-07
7.51066e-06
-9.21333e-08
7.51393e-06
9.93349e-09
7.51182e-06
-4.75587e-08
7.51693e-06
3.284e-08
7.51806e-06
1.39245e-07
7.51164e-06
1.12112e-07
7.51905e-06
1.49014e-07
7.52999e-06
2.2365e-07
7.53126e-06
2.55439e-07
7.53345e-06
2.22911e-07
7.54454e-06
2.24473e-07
7.55533e-06
2.48139e-07
7.55953e-06
2.41756e-07
2.12422e-07
7.56473e-06
7.88077e-06
-5.01624e-07
7.8967e-06
-2.24799e-07
7.93592e-06
1.51894e-07
7.91655e-06
-3.73264e-07
7.87349e-06
-6.85263e-07
7.86329e-06
-3.31428e-07
7.87164e-06
-1.00481e-07
7.8748e-06
6.76526e-09
7.87196e-06
-4.47173e-08
7.877e-06
2.78028e-08
7.87963e-06
1.36617e-07
7.87362e-06
1.18117e-07
7.87964e-06
1.42993e-07
7.8917e-06
2.11589e-07
7.89528e-06
2.51864e-07
7.89633e-06
2.21863e-07
7.90486e-06
2.15939e-07
7.91642e-06
2.36582e-07
7.92085e-06
2.37318e-07
2.07362e-07
7.92591e-06
8.26153e-06
-4.58472e-07
8.27498e-06
-2.38248e-07
8.31365e-06
1.13219e-07
8.29363e-06
-3.5324e-07
8.25292e-06
-6.44551e-07
8.24218e-06
-3.20695e-07
8.24974e-06
-1.08033e-07
8.25298e-06
3.51652e-09
8.24961e-06
-4.13433e-08
8.25428e-06
2.3132e-08
8.25836e-06
1.32535e-07
8.2531e-06
1.2338e-07
8.25764e-06
1.38455e-07
8.2703e-06
1.98926e-07
8.27674e-06
2.45431e-07
8.27851e-06
2.20086e-07
8.28756e-06
2.06893e-07
8.30165e-06
2.22489e-07
8.30816e-06
2.30811e-07
2.04305e-07
8.31122e-06
8.66062e-06
-4.17425e-07
8.67136e-06
-2.48995e-07
8.70943e-06
7.51514e-08
8.68905e-06
-3.32865e-07
8.65026e-06
-6.05754e-07
8.63957e-06
-3.10004e-07
8.64578e-06
-1.14243e-07
8.64914e-06
1.57079e-10
8.64553e-06
-3.77374e-08
8.64966e-06
1.90018e-08
8.65503e-06
1.27167e-07
8.65075e-06
1.27656e-07
8.65409e-06
1.35122e-07
8.66684e-06
1.86173e-07
8.67579e-06
2.36485e-07
8.67938e-06
2.16491e-07
8.69048e-06
1.95791e-07
8.70922e-06
2.03748e-07
8.72155e-06
2.18481e-07
2.03813e-07
8.72204e-06
9.07888e-06
-3.7869e-07
9.08675e-06
-2.56861e-07
9.12406e-06
3.78427e-08
9.10373e-06
-3.12534e-07
9.06633e-06
-5.68361e-07
9.05632e-06
-2.99987e-07
9.0606e-06
-1.18523e-07
9.06403e-06
-3.27446e-09
9.0606e-06
-3.43083e-08
9.06409e-06
1.55072e-08
9.07053e-06
1.20727e-07
9.06745e-06
1.30744e-07
9.06982e-06
1.32746e-07
9.08244e-06
1.73549e-07
9.09323e-06
2.25703e-07
9.09629e-06
2.13426e-07
9.10166e-06
1.90423e-07
9.11504e-06
1.9037e-07
9.12485e-06
2.08665e-07
1.99331e-07
9.12934e-06
9.51721e-06
-3.42442e-07
9.52202e-06
-2.6167e-07
9.55841e-06
1.456e-09
9.53861e-06
-2.92735e-07
9.50208e-06
-5.31836e-07
9.49308e-06
-2.90981e-07
9.49558e-06
-1.21026e-07
9.49863e-06
-6.31997e-09
9.49549e-06
-3.11751e-08
9.49845e-06
1.25492e-08
9.50571e-06
1.13467e-07
9.50399e-06
1.3247e-07
9.50572e-06
1.31011e-07
9.51761e-06
1.6166e-07
9.52869e-06
2.14618e-07
9.53159e-06
2.10532e-07
9.53316e-06
1.88855e-07
9.54247e-06
1.81059e-07
9.55398e-06
1.97148e-07
1.923e-07
9.56101e-06
9.97652e-06
-3.08827e-07
9.97823e-06
-2.63375e-07
1.00133e-05
-3.36495e-08
9.99458e-06
-2.73981e-07
9.9587e-06
-4.95955e-07
9.95051e-06
-2.82799e-07
9.95195e-06
-1.22461e-07
9.95391e-06
-8.28435e-09
9.95104e-06
-2.83059e-08
9.95372e-06
9.87769e-09
9.96158e-06
1.05598e-07
9.96117e-06
1.32889e-07
9.96224e-06
1.29938e-07
9.9729e-06
1.51001e-07
9.98401e-06
2.03502e-07
9.98803e-06
2.06518e-07
9.98962e-06
1.8726e-07
9.99801e-06
1.72675e-07
1.00107e-05
1.84416e-07
1.84911e-07
1.00181e-05
1.04578e-05
-2.7795e-07
1.04564e-05
-2.62057e-07
1.04898e-05
-6.70268e-08
1.04726e-05
-2.56794e-07
1.04373e-05
-4.6058e-07
1.04294e-05
-2.7495e-07
1.04308e-05
-1.23801e-07
1.04311e-05
-8.58303e-09
1.04281e-05
-2.53134e-08
1.04306e-05
7.3525e-09
1.04389e-05
9.7301e-08
1.04397e-05
1.32096e-07
1.04401e-05
1.29506e-07
1.04495e-05
1.41598e-07
1.04609e-05
1.9212e-07
1.04664e-05
2.01016e-07
1.04682e-05
1.85467e-07
1.04745e-05
1.66343e-07
1.04861e-05
1.72821e-07
1.76225e-07
1.04948e-05
1.09619e-05
-2.49865e-07
1.09578e-05
-2.57924e-07
1.0989e-05
-9.81899e-08
1.09737e-05
-2.41569e-07
1.0939e-05
-4.258e-07
1.09308e-05
-2.66789e-07
1.09327e-05
-1.25706e-07
1.09315e-05
-7.34796e-09
1.09276e-05
-2.14152e-08
1.09298e-05
5.07444e-09
1.09384e-05
8.87144e-08
1.09404e-05
1.30171e-07
1.09402e-05
1.29694e-07
1.09483e-05
1.33459e-07
1.096e-05
1.80417e-07
1.09668e-05
1.9426e-07
1.09689e-05
1.83361e-07
1.09733e-05
1.61918e-07
1.09835e-05
1.62633e-07
1.66434e-07
1.09933e-05
1.14901e-05
-2.24588e-07
1.14834e-05
-2.51232e-07
1.15119e-05
-1.26682e-07
1.14989e-05
-2.28601e-07
1.1465e-05
-3.91837e-07
1.14558e-05
-2.57647e-07
1.14587e-05
-1.2856e-07
1.14567e-05
-5.33689e-09
1.14511e-05
-1.58492e-08
1.14524e-05
3.79288e-09
1.14612e-05
7.9902e-08
1.14643e-05
1.27102e-07
1.14636e-05
1.30305e-07
1.14701e-05
1.27004e-07
1.14821e-05
1.68447e-07
1.14901e-05
1.86205e-07
1.14933e-05
1.80203e-07
1.14966e-05
1.58612e-07
1.15048e-05
1.54403e-07
1.5621e-07
1.1515e-05
1.20433e-05
-2.02086e-07
1.20344e-05
-2.42298e-07
1.20598e-05
-1.52093e-07
1.20492e-05
-2.18017e-07
1.20164e-05
-3.59054e-07
1.20058e-05
-2.47034e-07
1.20095e-05
-1.32282e-07
1.20077e-05
-3.52672e-09
1.20004e-05
-8.5063e-09
1.19999e-05
4.25279e-09
1.20088e-05
7.10705e-08
1.20131e-05
1.22758e-07
1.20123e-05
1.31136e-07
1.20166e-05
1.22713e-07
1.20285e-05
1.56498e-07
1.20382e-05
1.76503e-07
1.20429e-05
1.75521e-07
1.2046e-05
1.55493e-07
1.20524e-05
1.4801e-07
1.46641e-07
1.2062e-05
1.26228e-05
-1.82282e-07
1.2612e-05
-2.31467e-07
1.2634e-05
-1.74106e-07
1.26257e-05
-2.0979e-07
1.25945e-05
-3.27846e-07
1.25822e-05
-2.3466e-07
1.25864e-05
-1.36517e-07
1.25858e-05
-2.88568e-09
1.2577e-05
2.33476e-10
1.25743e-05
6.94975e-09
1.25827e-05
6.26902e-08
1.25887e-05
1.16804e-07
1.25883e-05
1.31459e-07
1.25907e-05
1.20346e-07
1.26016e-05
1.45554e-07
1.26126e-05
1.65507e-07
1.26188e-05
1.69326e-07
1.26224e-05
1.51943e-07
1.26277e-05
1.4268e-07
1.3844e-07
1.26359e-05
1.32297e-05
-1.65059e-07
1.32173e-05
-2.191e-07
1.32357e-05
-1.92502e-07
1.32296e-05
-2.03687e-07
1.32005e-05
-2.98684e-07
1.31863e-05
-2.20519e-07
1.31904e-05
-1.40588e-07
1.31916e-05
-4.12242e-09
1.31822e-05
9.651e-09
1.31772e-05
1.19594e-08
1.31845e-05
5.54383e-08
1.3192e-05
1.09228e-07
1.3193e-05
1.30494e-07
1.31941e-05
1.19247e-07
1.32031e-05
1.36528e-07
1.32147e-05
1.53972e-07
1.32222e-05
1.6177e-07
1.32264e-05
1.47739e-07
1.32313e-05
1.37848e-07
1.31515e-07
1.32382e-05
1.38653e-05
-1.50242e-07
1.38519e-05
-2.05622e-07
1.38665e-05
-2.07094e-07
1.38622e-05
-1.99434e-07
1.38355e-05
-2.71954e-07
1.38197e-05
-2.04778e-07
1.38229e-05
-1.43778e-07
1.38263e-05
-7.53884e-09
1.38172e-05
1.87752e-08
1.38102e-05
1.90047e-08
1.38155e-05
5.01279e-08
1.38242e-05
1.00531e-07
1.38269e-05
1.27743e-07
1.38276e-05
1.18576e-07
1.38345e-05
1.29599e-07
1.38456e-05
1.42856e-07
1.38544e-05
1.53017e-07
1.38593e-05
1.42882e-07
1.38639e-05
1.33245e-07
1.25154e-07
1.38702e-05
1.4531e-05
-1.37596e-07
1.45169e-05
-1.91502e-07
1.45275e-05
-2.1768e-07
1.45248e-05
-1.96747e-07
1.45008e-05
-2.47972e-07
1.44838e-05
-1.87782e-07
1.44853e-05
-1.45227e-07
1.44908e-05
-1.31013e-08
1.44831e-05
2.64667e-08
1.44745e-05
2.76491e-08
1.44773e-05
4.7276e-08
1.44864e-05
9.14444e-08
1.44911e-05
1.23059e-07
1.44921e-05
1.17634e-07
1.44973e-05
1.24346e-07
1.45071e-05
1.33067e-07
1.45166e-05
1.43487e-07
1.45224e-05
1.37087e-07
1.45267e-05
1.28925e-07
1.19014e-07
1.45329e-05
1.52281e-05
-1.26816e-07
1.52139e-05
-1.77281e-07
1.52202e-05
-2.24032e-07
1.52188e-05
-1.95291e-07
1.51978e-05
-2.26988e-07
1.51799e-05
-1.69934e-07
1.51789e-05
-1.44178e-07
1.51863e-05
-2.04785e-08
1.51811e-05
3.16816e-08
1.51715e-05
3.72427e-08
1.51718e-05
4.69682e-08
1.51803e-05
8.28757e-08
1.51868e-05
1.16638e-07
1.51885e-05
1.15903e-07
1.51927e-05
1.20128e-07
1.52009e-05
1.24916e-07
1.52103e-05
1.34036e-07
1.52174e-05
1.30033e-07
1.52214e-05
1.24847e-07
1.13255e-07
1.52272e-05
1.59581e-05
-1.17544e-07
1.59443e-05
-1.63538e-07
1.59463e-05
-2.26035e-07
1.59455e-05
-1.94519e-07
1.59277e-05
-2.09137e-07
1.59094e-05
-1.51652e-07
1.59054e-05
-1.40124e-07
1.59139e-05
-2.89946e-08
1.59119e-05
3.36124e-08
1.59023e-05
4.68522e-08
1.59004e-05
4.89259e-08
1.59076e-05
7.56763e-08
1.59153e-05
1.08945e-07
1.59182e-05
1.12978e-07
1.59219e-05
1.16415e-07
1.59287e-05
1.18111e-07
1.59372e-05
1.25595e-07
1.59452e-05
1.21969e-07
1.59498e-05
1.20308e-07
1.0834e-07
1.59547e-05
1.67225e-05
-1.09412e-07
1.67097e-05
-1.50728e-07
1.67076e-05
-2.23954e-07
1.67067e-05
-1.93597e-07
1.66919e-05
-1.94397e-07
1.66738e-05
-1.33522e-07
1.66663e-05
-1.32685e-07
1.6675e-05
-3.76532e-08
1.66767e-05
3.18936e-08
1.66684e-05
5.51785e-08
1.66647e-05
5.26077e-08
1.667e-05
7.0385e-08
1.66783e-05
1.00702e-07
1.66825e-05
1.08684e-07
1.66861e-05
1.12853e-07
1.66921e-05
1.12112e-07
1.66993e-05
1.18434e-07
1.67073e-05
1.13891e-07
1.67131e-05
1.14553e-07
1.04344e-07
1.67171e-05
1.7523e-05
-1.02088e-07
1.75114e-05
-1.39085e-07
1.75059e-05
-2.18434e-07
1.75039e-05
-1.91612e-07
1.74921e-05
-1.8265e-07
1.74751e-05
-1.1644e-07
1.74643e-05
-1.21968e-07
1.74713e-05
-4.46162e-08
1.74766e-05
2.65887e-08
1.74709e-05
6.08674e-08
1.74663e-05
5.72761e-08
1.74695e-05
6.71048e-08
1.74775e-05
9.27228e-08
1.74831e-05
1.03131e-07
1.74869e-05
1.09066e-07
1.74924e-05
1.06601e-07
1.74987e-05
1.12118e-07
1.75057e-05
1.06874e-07
1.75126e-05
1.07615e-07
1.00513e-07
1.75165e-05
1.83615e-05
-9.52833e-08
1.83512e-05
-1.28726e-07
1.83429e-05
-2.10174e-07
1.83392e-05
-1.87877e-07
1.833e-05
-1.73417e-07
1.83149e-05
-1.01383e-07
1.83018e-05
-1.08859e-07
1.8305e-05
-4.78424e-08
1.83132e-05
1.83741e-08
1.83111e-05
6.29646e-08
1.83065e-05
6.19502e-08
1.8308e-05
6.55806e-08
1.8315e-05
8.56772e-08
1.83214e-05
9.6715e-08
1.83258e-05
1.04704e-07
1.83308e-05
1.01567e-07
1.83369e-05
1.06048e-07
1.83427e-05
1.01107e-07
1.83497e-05
1.00554e-07
9.58111e-08
1.83544e-05
1.92399e-05
-8.87802e-08
1.92308e-05
-1.19649e-07
1.92205e-05
-1.99888e-07
1.92146e-05
-1.81947e-07
1.92073e-05
-1.6609e-07
1.91948e-05
-8.89334e-08
1.91809e-05
-9.49881e-08
1.91797e-05