/*--------------------------------*- C++ -*----------------------------------*\
| =========                 |                                                 |
| \\      /  F ield         | OpenFOAM: The Open Source CFD Toolbox           |
|  \\    /   O peration     | Version:  v1912                                 |
|   \\  /    A nd           | Website:  www.openfoam.com                      |
|    \\/     M anipulation  |                                                 |
\*---------------------------------------------------------------------------*/
FoamFile
{
    version     2.0;
    format      ascii;
    class       volScalarField;
    location    "4.75";
    object      p;
}
// * * * * * * * * * * * * * * * * * * * * * * * * * * * * * * * * * * * * * //

dimensions      [0 2 -2 0 0 0 0];


internalField   nonuniform List<scalar> 
9600
(
-2.77465e-10
-0.000322406
0.000300534
0.00213031
0.00205532
0.00168796
-0.000128513
0.000382638
-0.0023937
0.00164108
0.00283132
0.00434058
0.00602343
0.00742624
0.0105401
0.0121009
0.0114214
0.0123966
0.0127768
0.0180694
-2.83562e-06
-0.000298945
0.000270879
0.00213408
0.00204935
0.00168181
-0.000122886
0.000394959
-0.0023842
0.00163841
0.0028375
0.00433917
0.0060159
0.0074263
0.0105384
0.0120971
0.0114488
0.0123672
0.0128332
0.0176761
-3.3325e-06
-0.000278651
0.000241384
0.00214851
0.00204226
0.0016876
-0.000107011
0.000399928
-0.00235763
0.00163762
0.0028466
0.00433488
0.00600121
0.00746474
0.0105365
0.0120985
0.0114769
0.0123304
0.012898
0.0171342
-3.18498e-06
-0.00026212
0.000221582
0.002177
0.00203225
0.00170184
-8.11808e-05
0.000406995
-0.00230098
0.00164337
0.00285562
0.00433043
0.00598822
0.00751939
0.0105388
0.0120972
0.0115091
0.0122924
0.0129478
0.0166623
-3.8433e-06
-0.000247298
0.000209072
0.00221164
0.00201874
0.00172451
-4.77431e-05
0.000416312
-0.00221512
0.00165829
0.00286397
0.00432179
0.00597996
0.00758414
0.0105515
0.0120929
0.0115442
0.0122538
0.0129853
0.0162442
-6.20404e-06
-0.000232371
0.000202605
0.00224703
0.00200411
0.00175367
-6.92594e-06
0.000429432
-0.0021066
0.00168398
0.00287021
0.0043083
0.00597844
0.00765669
0.0105744
0.0120841
0.0115817
0.0122143
0.013011
0.015873
-1.05963e-05
-0.000215364
0.000200874
0.0022828
0.00198946
0.00178826
4.06941e-05
0.000444588
-0.00198473
0.00171856
0.00287353
0.00429053
0.00598368
0.00773579
0.0106051
0.01207
0.011617
0.0121756
0.0130213
0.0155432
-1.64937e-05
-0.000194719
0.000203531
0.00231998
0.00197335
0.00182715
9.56464e-05
0.000460202
-0.00185789
0.00175724
0.0028729
0.00426688
0.00599391
0.00782094
0.0106393
0.0120487
0.011645
0.0121384
0.0130137
0.0152477
-2.2942e-05
-0.000169803
0.000211269
0.00235919
0.00195316
0.00186979
0.000158059
0.000475271
-0.00173206
0.00179402
0.00286725
0.00423541
0.0060061
0.00789428
0.0106716
0.0120183
0.0116612
0.0121025
0.0129868
0.0149766
-2.91298e-05
-0.000140888
0.000225404
0.00240053
0.00192707
0.00191555
0.000227322
0.000490049
-0.00160929
0.00182521
0.00285711
0.00419636
0.00601666
0.00795738
0.0106964
0.0119775
0.0116617
0.0120664
0.0129396
0.0147202
-3.46325e-05
-0.000108649
0.000246868
0.00244343
0.00189469
0.0019635
0.000301507
0.000505067
-0.0014879
0.00185049
0.00284562
0.00415302
0.00602321
0.00800466
0.0107079
0.0119259
0.0116443
0.0120283
0.0128725
0.0144708
-3.93604e-05
-7.38739e-05
0.000275682
0.00248684
0.00185673
0.00201224
0.000378311
0.000520727
-0.00136356
0.00187295
0.00283868
0.00411182
0.006026
0.00803174
0.0107014
0.0118632
0.0116078
0.0119868
0.0127873
0.0142225
-4.3381e-05
-3.72149e-05
0.000311091
0.00252963
0.00181431
0.00205985
0.000455628
0.000537099
-0.00123181
0.00189569
0.00284216
0.00408078
0.00602731
0.00803684
0.0106745
0.0117904
0.0115521
0.0119394
0.0126876
0.0139721
-4.67822e-05
9.53898e-07
0.000351979
0.0025708
0.00176894
0.00210465
0.000532253
0.000554058
-0.00109037
0.0019215
0.00286054
0.00406612
0.0060305
0.00802171
0.0106267
0.0117092
0.0114783
0.0118833
0.0125767
0.0137184
-4.96183e-05
4.0477e-05
0.000397226
0.00260981
0.00172225
0.00214551
0.000608156
0.000571583
-0.00093959
0.00195191
0.00289573
0.00406989
0.00603813
0.00799015
0.0105543
0.011622
0.0113886
0.0118154
0.0124574
0.0134596
-5.1887e-05
8.12986e-05
0.000445892
0.00264661
0.00167583
0.00218171
0.00068403
0.000589927
-0.00078139
0.00198709
0.00294676
0.00409016
0.00605054
0.0079468
0.0104719
0.0115313
0.0112855
0.011733
0.012332
0.0131949
-5.35264e-05
0.000123387
0.000497249
0.00268136
0.00163111
0.00221285
0.000760767
0.000609445
-0.000618057
0.00202653
0.00301037
0.00412249
0.00606608
0.00789638
0.0103767
0.0114381
0.0111717
0.0116339
0.012202
0.0129254
-5.44366e-05
0.000166702
0.00055076
0.00271423
0.00158929
0.00223875
0.000839169
0.000630445
-0.000451645
0.00206966
0.00308274
0.00416195
0.00608227
0.00784241
0.0102715
0.0113434
0.0110501
0.0115167
0.0120679
0.0126537
-5.44889e-05
0.000211184
0.000606052
0.00274524
0.00154956
0.00225932
0.000919747
0.000653189
-0.000283739
0.00211595
0.00316062
0.00420493
0.0060968
0.00778719
0.0101584
0.0112469
0.0109232
0.0113809
0.0119291
0.0123827
-5.352e-05
0.000256727
0.000662875
0.00277434
0.00151659
0.00227448
0.00100272
0.000677834
-0.000115484
0.00216505
0.00324164
0.00424944
0.00610768
0.00773242
0.0100363
0.0111472
0.010793
0.011227
0.0117843
0.0121158
-5.13404e-05
0.000303169
0.000721083
0.00280139
0.00148911
0.00228423
0.00108807
0.000704532
5.22088e-05
0.00221701
0.00332395
0.00429452
0.00611353
0.00767851
0.0099076
0.011043
0.0106606
0.0110561
0.0116317
0.011856
-4.77437e-05
0.000350323
0.000780613
0.0028262
0.00146761
0.00228862
0.00117563
0.000733532
0.000218573
0.0022722
0.00340604
0.00433991
0.00611358
0.00762492
0.00977736
0.0109334
0.0105272
0.0108696
0.011469
0.011606
-4.25075e-05
0.00039797
0.00084146
0.00284851
0.00145235
0.00228775
0.00126501
0.000765133
0.000382911
0.00233107
0.00348686
0.00438565
0.00610731
0.00757107
0.00964362
0.0108169
0.0103935
0.0106699
0.0112944
0.0113673
-3.53879e-05
0.000445855
0.00090367
0.00286804
0.00144351
0.00228185
0.00135568
0.000799658
0.0005445
0.00239417
0.00356565
0.00443166
0.0060946
0.00751623
0.00950691
0.0106924
0.0102593
0.0104594
0.0111068
0.0111406
-2.61316e-05
0.000493712
0.000967282
0.00288451
0.00144125
0.00227131
0.00144704
0.000837513
0.000702618
0.00246202
0.00364175
0.00447806
0.00607576
0.00745932
0.00936825
0.0105596
0.0101243
0.0102404
0.0109055
0.0109262
-1.44805e-05
0.000541279
0.00103229
0.00289771
0.0014456
0.00225661
0.00153843
0.000879229
0.000856445
0.00253507
0.00371489
0.00454903
0.00605141
0.00739919
0.00922817
0.0104187
0.00998865
0.0100152
0.0106892
0.0107231
-1.5876e-07
0.000588275
0.00109863
0.00290766
0.00145652
0.00223833
0.00162917
0.000925359
0.00100515
0.00261365
0.00378486
0.00459411
0.00602228
0.00733513
0.0090866
0.0102699
0.00985203
0.0097869
0.0104577
0.0105286
1.71188e-05
0.000634418
0.00116623
0.00291454
0.00147392
0.00221726
0.00171854
0.000976423
0.00114803
0.00269782
0.00385182
0.00463741
0.00598914
0.00726698
0.00894391
0.0101135
0.00971382
0.00955816
0.0102117
0.0103389
3.76534e-05
0.000679439
0.00123498
0.00291868
0.00149761
0.00219429
0.00180579
0.00103287
0.00128447
0.00278706
0.00391637
0.00467829
0.0059525
0.00719454
0.0088003
0.00995063
0.00957383
0.00933071
0.00995212
0.0101499
6.17745e-05
0.000723107
0.00130471
0.00292056
0.00152728
0.00217041
0.00189032
0.001095
0.00141399
0.00288064
0.00397927
0.00471599
0.00591287
0.00711753
0.00865534
0.00978246
0.00943236
0.00910696
0.0096805
0.00995657
8.98135e-05
0.00076525
0.00137521
0.00292074
0.00156248
0.00214648
0.00197161
0.00116316
0.00153635
0.00297741
0.0040412
0.00474999
0.00587068
0.00703594
0.00850858
0.00960923
0.00928959
0.00888994
0.00939881
0.00975371
0.000122127
0.000805666
0.00144623
0.00291985
0.00160259
0.00212343
0.00204907
0.00123748
0.00165154
0.00307618
0.00410282
0.00477946
0.00582583
0.00695036
0.00836025
0.00943114
0.00914471
0.00868224
0.00911111
0.0095359
0.000159098
0.000844256
0.0015173
0.00291847
0.00164698
0.00210223
0.0021224
0.00131784
0.00175944
0.00317577
0.00416489
0.00480351
0.0057781
0.00686051
0.00821049
0.00924868
0.00899696
0.00848527
0.00882311
0.0092993
0.000201065
0.000881024
0.00158778
0.00291723
0.00169504
0.00208352
0.00219144
0.0014044
0.0018602
0.00327436
0.00422788
0.00482199
0.00572752
0.00676858
0.00805906
0.00906169
0.00884639
0.00829943
0.00854061
0.00904443
0.000248335
0.000916038
0.00165688
0.00291678
0.00174645
0.00206787
0.0022556
0.0014969
0.00195476
0.00337027
0.00429206
0.00483482
0.0056731
0.00667551
0.00790684
0.00887022
0.00869187
0.00812367
0.00826934
0.00877658
0.00030122
0.000949578
0.0017237
0.00291756
0.00180102
0.00205593
0.0023147
0.00159465
0.00204377
0.00346195
0.00435799
0.00484234
0.00561333
0.00658138
0.0077553
0.00867552
0.00853211
0.00795576
0.00801358
0.00850349
0.000359969
0.000981924
0.00178724
0.00292019
0.00185879
0.00204798
0.00236846
0.00169731
0.00212816
0.00354743
0.00442571
0.00484559
0.00554644
0.00648576
0.00760624
0.00847829
0.00836611
0.00779433
0.0077766
0.0082338
0.000424741
0.00101347
0.00184649
0.00292492
0.00192035
0.00204498
0.00241656
0.0018035
0.00220946
0.00362543
0.00449449
0.00484614
0.00547033
0.00638728
0.00746285
0.00828064
0.00819143
0.00763528
0.00755935
0.00797699
0.000495638
0.00104486
0.00190056
0.00293189
0.00198556
0.00204756
0.00245978
0.00191169
0.00228825
0.00369498
0.00456318
0.00484668
0.00538476
0.00628211
0.00732554
0.00808846
0.00801014
0.00747339
0.00735852
0.00773878
0.000572674
0.00107682
0.00194866
0.00294088
0.00205486
0.00205629
0.00249805
0.00202111
0.00236552
0.00375532
0.00463003
0.00484891
0.00529225
0.00616589
0.00719037
0.00790502
0.0078259
0.00730866
0.00717462
0.00752164
0.000655718
0.00111003
0.00199034
0.00295157
0.00212789
0.00207222
0.00253212
0.00212994
0.00244202
0.00380664
0.00469416
0.00485354
0.00519361
0.00603701
0.00705465
0.00773057
0.00764129
0.00713914
0.00700794
0.00733492
0.000744554
0.00114523
0.0020253
0.00296382
0.00220426
0.00209532
0.00256339
0.00223723
0.00251804
0.0038484
0.00475367
0.00486342
0.00509198
0.00589304
0.00691408
0.00756294
0.00745591
0.00696408
0.00685723
0.00719202
0.000838882
0.00118333
0.00205361
0.00297709
0.00228382
0.00212574
0.00259271
0.00234209
0.00259405
0.00388145
0.00480571
0.00487822
0.00499298
0.00573707
0.0067652
0.0074023
0.00727139
0.0067732
0.00670152
0.00710503
0.000937986
0.00122519
0.00207583
0.00299101
0.00236592
0.0021633
0.0026216
0.00244375
0.00266977
0.00390637
0.00484974
0.00489789
0.00489946
0.00557226
0.00660725
0.00725027
0.00710456
0.00658651
0.0065249
0.00700655
0.00104117
0.00127181
0.00209252
0.00300463
0.00245087
0.00220767
0.00264998
0.0025423
0.00274562
0.00392353
0.00488348
0.00492197
0.00481841
0.0054044
0.00644242
0.00711343
0.00696519
0.00642293
0.00631202
0.00678457
0.00114758
0.00132434
0.00210474
0.00301686
0.00253853
0.00225841
0.00267795
0.00263777
0.00282193
0.0039346
0.00490564
0.00494681
0.00475373
0.00524047
0.00627171
0.00699612
0.00685193
0.00625859
0.00607732
0.00648975
0.00125596
0.00138412
0.00211344
0.00302997
0.00262936
0.00231547
0.0027052
0.00273022
0.00289953
0.00393978
0.00491584
0.00497245
0.00470473
0.00508512
0.00608483
0.00683709
0.00670696
0.00607065
0.00582795
0.00628218
0.00136536
0.00145196
0.00212038
0.00303491
0.0027237
0.00238032
0.00273107
0.00281791
0.0029799
0.00394221
0.00491094
0.00499549
0.00467253
0.0049408
0.00589331
0.00668518
0.00659483
0.00593352
0.00559313
0.00592283
0.00147465
0.00152867
0.00212751
0.00303317
0.00282088
0.00245417
0.00275462
0.00289963
0.00306376
0.00394335
0.00489236
0.00501236
0.00465389
0.00481044
0.00568904
0.00649637
0.00647003
0.00581706
0.00536741
0.00558204
0.00158301
0.00161436
0.00213768
0.00302316
0.00291827
0.00253876
0.00277675
0.00297255
0.00315094
0.00394839
0.00486108
0.0050139
0.00464409
0.00469677
0.00547198
0.00628379
0.00633871
0.00570073
0.00518966
0.00533438
0.00168978
0.00170864
0.00215412
0.0030036
0.00301278
0.00263656
0.00279958
0.00303314
0.00323929
0.00396005
0.00481854
0.00499842
0.00463881
0.0045991
0.00525298
0.00605176
0.00619097
0.00560803
0.00508179
0.00513994
0.00179444
0.00181064
0.00217922
0.00297611
0.00310045
0.00274692
0.00282599
0.00307894
0.00332439
0.00397982
0.00477254
0.00496764
0.00462673
0.00451514
0.00504749
0.00580765
0.00604085
0.00554571
0.00498299
0.00494623
0.00189693
0.00191879
0.00221551
0.00294259
0.00317562
0.00286778
0.00286109
0.003109
0.0033999
0.00400735
0.00472903
0.00492409
0.00460485
0.00444458
0.00486301
0.00556577
0.00587594
0.00547641
0.00489198
0.00479
0.00199736
0.00203132
0.00226418
0.00290671
0.00323536
0.00299492
0.00290916
0.00312709
0.00345774
0.00403806
0.00469512
0.00487585
0.00457378
0.00438101
0.00469983
0.00533057
0.00569124
0.00540195
0.00483198
0.00466248
0.00209597
0.0021463
0.00232613
0.00287339
0.0032765
0.00312192
0.00297443
0.00313804
0.00349279
0.00406677
0.00467304
0.00482918
0.00453513
0.00432237
0.00455846
0.00510671
0.00549272
0.00531786
0.00478881
0.00455667
0.00219315
0.00226192
0.00240144
0.00284709
0.00329825
0.00324228
0.00305763
0.00314955
0.0035048
0.00408115
0.00465845
0.00479568
0.00449851
0.00426477
0.00443155
0.00489753
0.00528634
0.00521933
0.00475759
0.00447883
0.00228961
0.00237611
0.00248895
0.00283332
0.00330244
0.00334721
0.00315529
0.00317279
0.00349786
0.00407027
0.00464468
0.00477967
0.00447217
0.00420746
0.00431515
0.00470921
0.00508132
0.00510218
0.00472828
0.00442449
0.00238587
0.00248805
0.0025866
0.00283445
0.00329306
0.00343083
0.00326134
0.00321509
0.00348136
0.00403093
0.00461618
0.00477508
0.0044665
0.00416201
0.00420886
0.00453784
0.00488091
0.00496566
0.00469259
0.00439323
0.00248232
0.00259684
0.00269158
0.0028517
0.00327564
0.00349142
0.003368
0.00327603
0.00347163
0.00396884
0.00455889
0.00477086
0.004483
0.00413882
0.0041142
0.00437834
0.0046906
0.00481885
0.00464422
0.00437752
0.00257979
0.00270183
0.0027999
0.00288599
0.00325519
0.00352957
0.00346765
0.00335122
0.00347934
0.00389873
0.00447213
0.00474818
0.00451389
0.00414138
0.00404025
0.00423348
0.0045108
0.0046664
0.00457949
0.00436589
0.00267839
0.002803
0.00290693
0.00293628
0.00323883
0.00354717
0.00355517
0.00343462
0.00350324
0.00384127
0.00436493
0.00469294
0.00454239
0.00416744
0.00399343
0.00410953
0.00434306
0.00451034
0.0044991
0.00435179
0.00277808
0.00290053
0.00300945
0.00299985
0.00323302
0.00354881
0.00362667
0.00351947
0.0035398
0.00380355
0.00425754
0.00460695
0.00454946
0.00420867
0.00397418
0.00401164
0.00419484
0.0043556
0.00440193
0.00432929
0.0028786
0.00299503
0.00310543
0.00307295
0.00324173
0.00354208
0.00367926
0.00360037
0.00358477
0.00378346
0.00416607
0.00450184
0.00452336
0.00425
0.00398112
0.00393947
0.00407174
0.00421322
0.00429077
0.00429005
0.00297895
0.00308727
0.00319507
0.0031512
0.00326559
0.00353417
0.00371373
0.00367219
0.0036349
0.00377812
0.00409375
0.00439711
0.00446902
0.00427368
0.00400764
0.00389415
0.00397218
0.0040923
0.00417656
0.00423115
0.00307826
0.00317781
0.00327932
0.00323046
0.00330307
0.00353056
0.00373283
0.00373085
0.00368674
0.0037854
0.00403954
0.0043039
0.00439897
0.00427019
0.00403923
0.00387716
0.00389348
0.0039943
0.00407366
0.00415798
0.00317583
0.00326699
0.00335928
0.00330745
0.00335103
0.00353536
0.00374182
0.00377484
0.00373605
0.00380229
0.00400279
0.00422506
0.00432709
0.00424611
0.00405989
0.00388348
0.00383757
0.0039137
0.00399057
0.00408256
0.00327097
0.00335476
0.00343618
0.00338077
0.00340537
0.00354976
0.00374652
0.00380539
0.0037803
0.00382459
0.00398095
0.00416328
0.00426057
0.00421187
0.00406427
0.00390051
0.00380845
0.00384809
0.00392589
0.00401603
0.00336323
0.00344074
0.00351053
0.00345026
0.00346297
0.00357331
0.00375075
0.00382387
0.00381791
0.00385071
0.00397028
0.00411985
0.00420425
0.00417459
0.00405663
0.00391516
0.00380421
0.00380099
0.00387569
0.00396813
0.00345219
0.00352464
0.00358293
0.00351554
0.00352045
0.00360466
0.00375864
0.00383345
0.0038458
0.00387893
0.00396907
0.0040919
0.00416365
0.00414176
0.00404537
0.00392327
0.00381343
0.00377363
0.00383358
0.00393456
0.00353739
0.00360576
0.0036539
0.00357759
0.00357521
0.00363998
0.00377144
0.0038405
0.00386545
0.00390457
0.00397551
0.00407571
0.00413793
0.00412057
0.00403955
0.00393395
0.0038349
0.00377224
0.00380307
0.00390476
0.00361859
0.0036839
0.0037227
0.0036362
0.00362739
0.00367767
0.00378668
0.00384627
0.00388122
0.00392678
0.00398831
0.00407228
0.00412303
0.00410865
0.0040393
0.00394708
0.00386449
0.00379998
0.00380576
0.00389757
0.00369553
0.00375873
0.0037896
0.00369134
0.00367444
0.00371611
0.00380572
0.00385
0.00389188
0.00394702
0.00400579
0.004086
0.00412785
0.00410917
0.00404847
0.0039652
0.0038923
0.00383197
0.00382272
0.00390722
0.00376791
0.0038298
0.00385448
0.00374421
0.00371688
0.00374928
0.00382543
0.00385474
0.00389623
0.00396239
0.00402383
0.00411034
0.00415872
0.00413745
0.00408547
0.00401081
0.00394158
0.00387957
0.00384792
0.00390495
0.0038355
0.00389643
0.00391633
0.00379453
0.00375729
0.00377916
0.00384111
0.00385955
0.0038953
0.00396656
0.00403809
0.00413337
0.00420102
0.00419468
0.00415919
0.00410478
0.00405042
0.00400455
0.00396707
0.00399009
0.00389792
0.00395776
0.00397456
0.00384108
0.00379306
0.00380557
0.00385475
0.00386283
0.00389291
0.00396254
0.00403943
0.00413968
0.00421959
0.00423396
0.00421811
0.0041822
0.0041349
0.00410165
0.0040942
0.00414277
0.00395734
0.00401309
0.00402669
0.00388414
0.00382481
0.00382369
0.00386291
0.00386372
0.00389856
0.00399608
0.00411231
0.00425895
0.00438348
0.0044241
0.00442848
0.00440603
0.00433815
0.0042363
0.00414047
0.00409854
0.00401436
0.00406203
0.00406585
0.00391535
0.00384507
0.0038254
0.00383809
0.003799
0.00376051
0.00379871
0.00390416
0.00411399
0.00437406
0.00454404
0.00464521
0.00475144
0.00487334
0.00500995
0.00515077
0.00527677
0.00406726
0.00412457
0.00414098
0.00398476
0.00389652
0.00385724
0.00386809
0.00386833
0.00388903
0.00400348
0.00417916
0.00437158
0.00457479
0.00469276
0.00473336
0.00472878
0.004655
0.00453196
0.00439289
0.00429743
0.00407442
0.00409674
0.0041216
0.00399365
0.00390806
0.00385306
0.00384796
0.00384542
0.00384666
0.00394225
0.00413387
0.00431215
0.00452356
0.00473346
0.0048697
0.00498928
0.00513777
0.00531646
0.0054663
0.0055392
0.00421562
0.00426537
0.00425493
0.00405644
0.00391883
0.00382719
0.00377922
0.00375308
0.00374737
0.00386617
0.00417886
0.00452778
0.00483084
0.00507689
0.00521049
0.00528821
0.00536192
0.00543064
0.00546258
0.00542507
0.0278555
0.0188449
0.00904613
0.00214965
-7.68187e-05
0.000601847
0.00185915
0.0027159
0.00303368
0.00317751
0.00331043
0.00332539
0.00330727
0.00337432
0.00348498
0.00355486
0.00356624
0.00359957
0.0036615
0.00368921
0.0037227
0.00380172
0.00391851
0.00408674
0.00422967
0.00425922
0.00422524
0.004237
0.00435483
0.00451715
0.00461347
0.00468497
0.00481861
0.00495706
0.00505562
0.00515642
0.00527767
0.00538838
0.00547183
0.00555747
0.00566688
0.00577133
0.00585775
0.00597316
0.0061223
0.00625612
0.00637298
0.00653017
0.0067066
0.00683798
0.00692797
0.00702359
0.00715234
0.00727709
0.00737104
0.00751599
0.00769166
0.00784958
0.00803293
0.00824816
0.00848005
0.00864478
0.00869211
0.00869489
0.00887503
0.00916138
0.00940907
0.00961069
0.00980387
0.0099499
0.010068
0.0102604
0.0104894
0.0106989
0.0108901
0.0111182
0.0113107
0.0114726
0.0116858
0.0119414
0.012159
0.0123776
0.0126332
0.012909
0.0131862
0.0134617
0.013704
0.0139715
0.0142325
0.0145679
0.0148731
0.0151247
0.0153885
0.0156572
0.0159501
0.0162054
0.0164945
0.0166663
0.0167082
0.0167645
0.0263896
0.0186295
0.00912268
0.00230816
2.54856e-05
0.000649811
0.00188975
0.00273929
0.00305109
0.00319084
0.00332157
0.00333459
0.0033147
0.0033806
0.00349058
0.00355999
0.00357082
0.00360363
0.00366521
0.00369249
0.00372554
0.00380428
0.00392079
0.00408884
0.00423174
0.00426115
0.00422692
0.00423842
0.0043561
0.00451844
0.00461472
0.00468602
0.00481958
0.00495802
0.00505652
0.00515724
0.00527846
0.00538917
0.00547258
0.00555817
0.00566756
0.00577202
0.0058584
0.00597375
0.00612288
0.00625671
0.00637352
0.00653066
0.0067071
0.00683848
0.00692845
0.00702403
0.00715276
0.00727751
0.00737143
0.00751634
0.00769202
0.00784991
0.00803323
0.00824845
0.00848036
0.00864512
0.00869245
0.00869514
0.00887524
0.00916161
0.0094093
0.00961091
0.0098041
0.00995013
0.0100682
0.0102606
0.0104896
0.0106991
0.0108902
0.0111183
0.0113109
0.0114728
0.011686
0.0119416
0.0121592
0.0123777
0.0126333
0.0129092
0.0131863
0.0134619
0.0137041
0.0139716
0.0142326
0.014568
0.0148732
0.0151248
0.0153886
0.0156573
0.0159502
0.0162055
0.0164945
0.0166664
0.0167082
0.0167644
0.02523
0.0184342
0.00929399
0.00261064
0.000209914
0.000715387
0.00191321
0.00275522
0.00306626
0.00320479
0.00333376
0.00334502
0.00332344
0.00338772
0.0034962
0.00356458
0.00357484
0.00360736
0.00366868
0.00369546
0.00372805
0.00380656
0.00392286
0.00409082
0.00423365
0.00426282
0.0042283
0.00423959
0.00435721
0.00451959
0.00461578
0.0046869
0.00482042
0.00495886
0.00505726
0.00515792
0.00527913
0.00538982
0.00547319
0.00555873
0.00566812
0.00577258
0.00585891
0.00597422
0.00612337
0.00625719
0.00637395
0.00653107
0.00670754
0.00683891
0.00692883
0.00702438
0.0071531
0.00727786
0.00737173
0.00751661
0.00769232
0.00785018
0.00803346
0.00824868
0.00848063
0.00864545
0.00869273
0.00869527
0.00887535
0.00916183
0.00940952
0.0096111
0.0098043
0.00995033
0.0100683
0.0102607
0.0104898
0.0106993
0.0108904
0.0111185
0.011311
0.0114729
0.0116861
0.0119417
0.0121593
0.0123778
0.0126334
0.0129093
0.0131864
0.013462
0.0137042
0.0139717
0.0142327
0.0145681
0.0148733
0.0151249
0.0153887
0.0156573
0.0159503
0.0162055
0.0164946
0.0166664
0.0167082
0.0167643
0.0241504
0.0182069
0.00950261
0.00298843
0.000464682
0.000810937
0.0019477
0.0027773
0.0030871
0.00322286
0.00334815
0.00335778
0.00333576
0.00339848
0.00350439
0.00357088
0.00358051
0.00361278
0.00367336
0.00369906
0.0037311
0.00380965
0.00392592
0.00409359
0.00423601
0.00426478
0.00423004
0.00424115
0.00435862
0.00452095
0.00461705
0.004688
0.00482148
0.00495984
0.0050581
0.00515869
0.0052799
0.00539054
0.00547383
0.0055593
0.00566868
0.00577317
0.00585946
0.00597472
0.00612387
0.00625769
0.0063744
0.00653152
0.00670804
0.00683937
0.00692924
0.00702475
0.00715347
0.00727823
0.00737203
0.00751689
0.00769264
0.00785045
0.00803369
0.00824892
0.00848095
0.00864584
0.00869305
0.00869535
0.00887544
0.00916208
0.00940975
0.0096113
0.00980451
0.00995054
0.0100685
0.0102609
0.0104899
0.0106994
0.0108905
0.0111186
0.0113112
0.011473
0.0116862
0.0119418
0.0121594
0.0123779
0.0126335
0.0129094
0.0131865
0.0134621
0.0137043
0.0139718
0.0142328
0.0145682
0.0148734
0.015125
0.0153888
0.0156574
0.0159504
0.0162056
0.0164947
0.0166665
0.0167083
0.0167641
0.0231024
0.0179465
0.00971784
0.00338562
0.000745009
0.000921792
0.00198764
0.00280283
0.00311246
0.0032448
0.00336467
0.003373
0.00335216
0.0034136
0.00351573
0.00357947
0.00358888
0.00362142
0.00368063
0.00370403
0.00373486
0.00381368
0.00393038
0.00409765
0.00423916
0.00426742
0.00423268
0.00424365
0.00436063
0.00452265
0.0046187
0.00468961
0.00482294
0.00496108
0.00505917
0.00515971
0.00528087
0.00539141
0.00547457
0.00555992
0.00566926
0.00577379
0.00586007
0.00597528
0.0061244
0.00625822
0.00637494
0.00653209
0.00670862
0.00683988
0.0069297
0.00702519
0.00715389
0.00727864
0.00737235
0.0075172
0.00769301
0.00785076
0.00803395
0.00824918
0.00848132
0.0086463
0.00869339
0.0086954
0.00887552
0.00916237
0.00941003
0.00961153
0.00980476
0.00995077
0.0100686
0.010261
0.0104901
0.0106996
0.0108906
0.0111188
0.0113114
0.0114731
0.0116863
0.011942
0.0121596
0.0123781
0.0126336
0.0129095
0.0131867
0.0134623
0.0137044
0.0139719
0.0142328
0.0145683
0.0148736
0.0151251
0.0153889
0.0156575
0.0159505
0.0162057
0.0164948
0.0166667
0.0167085
0.0167638
0.0220954
0.0176601
0.00992537
0.00378256
0.00103659
0.00104073
0.00202877
0.00282895
0.00314023
0.00326883
0.00338189
0.00338923
0.00337114
0.00343183
0.00352945
0.00359004
0.00360006
0.00363383
0.00369146
0.00371136
0.00373986
0.00381872
0.00393614
0.00410286
0.00424303
0.00427092
0.00423677
0.00424769
0.00436362
0.0045248
0.00462089
0.00469193
0.00482497
0.00496266
0.00506058
0.00516111
0.00528217
0.00539254
0.00547553
0.00556068
0.00566988
0.00577446
0.00586079
0.0059759
0.00612491
0.00625878
0.00637561
0.00653281
0.00670929
0.00684046
0.00693026
0.00702574
0.00715438
0.00727909
0.00737271
0.00751756
0.00769342
0.00785112
0.00803424
0.00824948
0.00848176
0.00864683
0.00869377
0.00869542
0.00887561
0.00916273
0.00941035
0.00961179
0.00980505
0.00995104
0.0100687
0.0102612
0.0104903
0.0106998
0.0108908
0.011119
0.0113116
0.0114732
0.0116864
0.0119421
0.0121597
0.0123782
0.0126337
0.0129096
0.0131868
0.0134624
0.0137045
0.013972
0.0142329
0.0145684
0.0148737
0.0151252
0.015389
0.0156576
0.0159506
0.0162058
0.016495
0.016667
0.0167088
0.0167635
0.0211375
0.0173485
0.0101164
0.00417387
0.00133802
0.00116809
0.00207097
0.00285494
0.00316958
0.00329459
0.00339977
0.00340588
0.0033912
0.00345146
0.00354417
0.00360155
0.00361319
0.00364941
0.00370576
0.0037215
0.00374672
0.00382504
0.00394295
0.00410864
0.00424703
0.004275
0.00424246
0.00425377
0.004368
0.00452762
0.00462375
0.00469513
0.00482764
0.00496461
0.00506237
0.00516297
0.00528388
0.00539405
0.00547685
0.00556172
0.00567065
0.00577528
0.0058617
0.00597661
0.00612535
0.00625929
0.00637643
0.00653373
0.00671007
0.00684114
0.00693099
0.00702647
0.00715498
0.0072796
0.00737315
0.00751798
0.00769386
0.00785151
0.00803458
0.00824983
0.00848227
0.00864744
0.00869417
0.00869542
0.00887573
0.00916316
0.00941071
0.00961208
0.00980537
0.00995133
0.0100689
0.0102614
0.0104906
0.0107
0.010891
0.0111192
0.0113118
0.0114734
0.0116866
0.0119423
0.0121599
0.0123783
0.0126339
0.0129097
0.013187
0.0134626
0.0137047
0.0139721
0.014233
0.0145685
0.0148739
0.0151254
0.0153891
0.0156577
0.0159508
0.016206
0.0164952
0.0166674
0.0167093
0.0167632
0.0202308
0.0170111
0.0102875
0.00455994
0.00165095
0.00130582
0.00211474
0.00287998
0.00319981
0.00332218
0.00341888
0.00342324
0.00341204
0.00347188
0.00355929
0.00361329
0.00362726
0.00366694
0.00372249
0.00373399
0.00375556
0.00383293
0.00395074
0.00411449
0.0042505
0.00427903
0.00424936
0.00426181
0.00437396
0.00453137
0.00462747
0.00469927
0.00483095
0.0049669
0.00506452
0.00516524
0.00528596
0.00539595
0.00547865
0.00556316
0.00567169
0.0057764
0.00586298
0.00597753
0.00612572
0.00625969
0.00637735
0.00653483
0.00671094
0.0068419
0.00693196
0.00702747
0.00715576
0.00728024
0.00737371
0.00751848
0.00769432
0.00785191
0.00803492
0.00825021
0.0084829
0.00864818
0.00869463
0.0086954
0.00887588
0.00916365
0.00941112
0.0096124
0.00980574
0.00995167
0.0100691
0.0102616
0.0104909
0.0107003
0.0108912
0.0111194
0.0113121
0.0114735
0.0116867
0.0119425
0.0121601
0.0123784
0.012634
0.0129099
0.0131872
0.0134628
0.0137048
0.0139722
0.0142331
0.0145686
0.0148742
0.0151255
0.0153892
0.0156578
0.0159509
0.0162062
0.0164954
0.016668
0.01671
0.0167628
0.0193746
0.0166508
0.0104375
0.00493987
0.00197453
0.00145455
0.00216021
0.00290324
0.00323036
0.0033518
0.00343974
0.00344179
0.00343392
0.0034932
0.00357489
0.00362514
0.00364172
0.00368555
0.0037407
0.00374804
0.00376597
0.00384231
0.00395956
0.00412042
0.00425325
0.00428251
0.00425671
0.00427118
0.00438129
0.00453611
0.00463215
0.00470436
0.00483484
0.00496947
0.00506696
0.00516782
0.00528827
0.00539813
0.00548089
0.00556506
0.00567307
0.00577792
0.00586479
0.00597886
0.00612615
0.00626001
0.00637829
0.00653601
0.0067118
0.0068427
0.00693314
0.00702879
0.0071568
0.0072811
0.00737451
0.00751915
0.00769483
0.0078523
0.00803521
0.00825055
0.0084836
0.00864906
0.00869519
0.00869541
0.00887607
0.00916419
0.00941154
0.00961276
0.00980616
0.00995205
0.0100694
0.0102619
0.0104912
0.0107006
0.0108915
0.0111198
0.0113124
0.0114737
0.0116869
0.0119428
0.0121602
0.0123785
0.0126341
0.01291
0.0131874
0.013463
0.0137049
0.0139723
0.0142332
0.0145688
0.0148744
0.0151257
0.0153894
0.015658
0.0159512
0.0162065
0.0164957
0.0166688
0.0167111
0.0167625
0.0185689
0.0162712
0.0105628
0.00530873
0.00230598
0.0016148
0.00220808
0.00292429
0.0032606
0.00338338
0.00346266
0.0034619
0.00345714
0.0035157
0.00359129
0.00363729
0.00365634
0.00370477
0.00375989
0.00376311
0.00377744
0.00385285
0.00396938
0.00412675
0.0042557
0.0042855
0.00426404
0.00428117
0.00438947
0.00454164
0.0046377
0.00471031
0.00483925
0.00497226
0.00506962
0.00517061
0.00529066
0.00540039
0.00548344
0.00556737
0.00567478
0.00577984
0.00586719
0.00598073
0.00612685
0.00626038
0.00637925
0.00653717
0.00671254
0.00684341
0.00693446
0.00703038
0.00715807
0.00728222
0.00737566
0.00752014
0.00769553
0.00785273
0.00803537
0.0082507
0.00848424
0.00865006
0.00869589
0.00869554
0.00887637
0.00916478
0.00941193
0.0096131
0.0098066
0.00995248
0.0100697
0.0102622
0.0104916
0.0107009
0.0108919
0.0111201
0.0113127
0.011474
0.0116872
0.0119431
0.0121605
0.0123787
0.0126343
0.0129102
0.0131876
0.0134633
0.013705
0.0139724
0.0142333
0.0145689
0.0148747
0.0151258
0.0153895
0.0156581
0.0159514
0.0162068
0.016496
0.0166699
0.0167125
0.0167622
0.0178141
0.0158748
0.0106579
0.00566144
0.00264271
0.00178714
0.00225923
0.00294284
0.00328962
0.00341651
0.00348773
0.00348373
0.00348175
0.00353948
0.00360881
0.00365007
0.00367114
0.00372429
0.00377975
0.00377891
0.00378958
0.00386416
0.00398009
0.00413375
0.00425842
0.0042885
0.0042714
0.00429139
0.00439803
0.00454762
0.00464384
0.00471693
0.0048441
0.00497524
0.00507245
0.00517358
0.00529306
0.0054026
0.00548613
0.00557001
0.00567677
0.00578206
0.00587007
0.00598316
0.00612796
0.00626097
0.00638029
0.00653824
0.00671307
0.00684393
0.00693578
0.00703211
0.00715949
0.00728356
0.00737716
0.00752153
0.00769657
0.00785337
0.00803545
0.00825052
0.0084846
0.00865097
0.0086967
0.00869588
0.00887692
0.00916548
0.00941226
0.00961334
0.00980702
0.00995294
0.0100701
0.0102627
0.010492
0.0107013
0.0108922
0.0111206
0.0113132
0.0114743
0.0116876
0.0119435
0.0121607
0.0123789
0.0126345
0.0129104
0.0131879
0.0134636
0.0137052
0.0139724
0.0142334
0.0145691
0.014875
0.0151261
0.0153897
0.0156583
0.0159517
0.0162072
0.0164964
0.0166714
0.0167144
0.0167619
0.0171103