/*--------------------------------*- C++ -*----------------------------------*\
| =========                 |                                                 |
| \\      /  F ield         | OpenFOAM: The Open Source CFD Toolbox           |
|  \\    /   O peration     | Version:  v1912                                 |
|   \\  /    A nd           | Website:  www.openfoam.com                      |
|    \\/     M anipulation  |                                                 |
\*---------------------------------------------------------------------------*/
FoamFile
{
    version     2.0;
    format      ascii;
    class       volVectorField;
    location    "4.75";
    object      U;
}
// * * * * * * * * * * * * * * * * * * * * * * * * * * * * * * * * * * * * * //

dimensions      [0 1 -1 0 0 0 0];


internalField   nonuniform List<vector> 
9600
(
(0.682286 -0.00691456 0)
(1.26366 -0.00609277 0)
(0.907952 0.000361834 0)
(1.18248 0.0269033 0)
(0.896373 -0.00675974 0)
(1.10745 -0.0133091 0)
(0.844832 -0.0456537 0)
(1.17626 -0.0301957 0)
(0.981992 -0.0196815 0)
(1.16483 0.0112869 0)
(0.993548 0.00684664 0)
(1.16812 0.0164513 0)
(0.984796 0.0114486 0)
(1.14718 -0.00339404 0)
(0.968695 -0.0208918 0)
(1.14897 -0.0253303 0)
(0.971682 -0.0338556 0)
(1.17652 -0.0279135 0)
(0.960113 -0.0235509 0)
(1.20246 -0.0121042 0)
(0.71283 -0.0066505 0)
(1.23857 -0.00768538 0)
(0.925086 0.000664037 0)
(1.16492 0.0270964 0)
(0.96019 -0.00597264 0)
(1.07347 -0.0124148 0)
(0.877645 -0.0470212 0)
(1.1248 -0.0320788 0)
(0.995189 -0.0199108 0)
(1.14592 0.011332 0)
(1.02434 0.00669118 0)
(1.13919 0.0167187 0)
(1.0433 0.011757 0)
(1.1042 -0.0027812 0)
(1.03661 -0.0207807 0)
(1.06947 -0.0256178 0)
(1.03539 -0.0341967 0)
(1.07171 -0.0284669 0)
(1.05189 -0.0235525 0)
(1.07496 -0.0123734 0)
(0.761546 -0.00649083 0)
(1.18915 -0.00886524 0)
(0.955466 0.00108363 0)
(1.14062 0.0270321 0)
(1.00856 -0.00518529 0)
(1.04422 -0.0115701 0)
(0.90721 -0.0471197 0)
(1.06256 -0.0331312 0)
(1.00999 -0.0202793 0)
(1.11303 0.0109032 0)
(1.057 0.00675981 0)
(1.11382 0.0164355 0)
(1.08381 0.0122974 0)
(1.09319 -0.00257213 0)
(1.05907 -0.0197312 0)
(1.04646 -0.0255301 0)
(1.03895 -0.0336713 0)
(1.0376 -0.0291602 0)
(1.04853 -0.0233436 0)
(1.05011 -0.0120137 0)
(0.819133 -0.00623904 0)
(1.12501 -0.0100001 0)
(0.988428 0.00121977 0)
(1.11977 0.0266401 0)
(1.04384 -0.00427955 0)
(1.02566 -0.01053 0)
(0.931389 -0.0471211 0)
(1.00833 -0.0343269 0)
(1.01303 -0.0210326 0)
(1.08097 0.0100833 0)
(1.07488 0.00661665 0)
(1.10272 0.0158654 0)
(1.10263 0.0125898 0)
(1.09815 -0.0019985 0)
(1.0693 -0.0185412 0)
(1.04334 -0.0250522 0)
(1.03164 -0.0332017 0)
(1.02547 -0.0295007 0)
(1.03176 -0.0235909 0)
(1.03778 -0.0119445 0)
(0.87546 -0.00587572 0)
(1.06201 -0.0110831 0)
(1.01358 0.000962937 0)
(1.10759 0.0261654 0)
(1.06542 -0.00329902 0)
(1.01862 -0.00940689 0)
(0.948573 -0.0465273 0)
(0.973327 -0.0352212 0)
(1.00433 -0.0220334 0)
(1.05726 0.00898738 0)
(1.08074 0.00612591 0)
(1.10108 0.015287 0)
(1.1126 0.012684 0)
(1.10688 -0.00133181 0)
(1.07679 -0.0170708 0)
(1.04438 -0.0241443 0)
(1.02619 -0.0322761 0)
(1.01636 -0.0296505 0)
(1.0187 -0.0235474 0)
(1.02377 -0.0122798 0)
(0.922645 -0.00543525 0)
(1.0135 -0.0120051 0)
(1.02589 0.000303453 0)
(1.1018 0.0257206 0)
(1.07567 -0.00232732 0)
(1.02033 -0.00823855 0)
(0.9607 -0.0457351 0)
(0.956599 -0.0358965 0)
(0.991882 -0.0231739 0)
(1.04183 0.00762812 0)
(1.08192 0.00531823 0)
(1.10396 0.0145936 0)
(1.12056 0.0126289 0)
(1.11492 -0.000602113 0)
(1.0823 -0.0153805 0)
(1.04574 -0.0228967 0)
(1.02212 -0.0311148 0)
(1.00852 -0.0295488 0)
(1.00789 -0.0234559 0)
(1.01108 -0.0125946 0)
(0.957152 -0.00497025 0)
(0.984884 -0.0127032 0)
(1.02559 -0.000673389 0)
(1.09687 0.0252557 0)
(1.07702 -0.0014079 0)
(1.02653 -0.00709086 0)
(0.969866 -0.0446968 0)
(0.95152 -0.0363217 0)
(0.982255 -0.0243394 0)
(1.03338 0.00598274 0)
(1.0831 0.00419677 0)
(1.10926 0.0137028 0)
(1.12801 0.0125078 0)
(1.12053 0.000216926 0)
(1.08495 -0.013454 0)
(1.04599 -0.0213734 0)
(1.01878 -0.0296729 0)
(1.00212 -0.029138 0)
(0.998757 -0.02329 0)
(1.00053 -0.0127876 0)
(0.979447 -0.00453899 0)
(0.973799 -0.013156 0)
(1.01631 -0.00181682 0)
(1.0885 0.0247298 0)
(1.07193 -0.000604562 0)
(1.03358 -0.00603081 0)
(0.977744 -0.0435277 0)
(0.952262 -0.0365852 0)
(0.977031 -0.0255198 0)
(1.03099 0.00405575 0)
(1.0856 0.00281034 0)
(1.11519 0.0126349 0)
(1.13385 0.0124389 0)
(1.1224 0.0012087 0)
(1.08418 -0.0113334 0)
(1.04453 -0.0196528 0)
(1.01579 -0.0280412 0)
(0.997218 -0.028483 0)
(0.991592 -0.0230668 0)
(0.992235 -0.0129073 0)
(0.992306 -0.00418463 0)
(0.973803 -0.0133682 0)
(1.00305 -0.00295146 0)
(1.0756 0.02413 0)
(1.06291 3.10815e-05 0)
(1.03901 -0.00511878 0)
(0.985319 -0.0422214 0)
(0.955821 -0.036707 0)
(0.974481 -0.0267343 0)
(1.03234 0.00189201 0)
(1.08766 0.00125686 0)
(1.11875 0.0114688 0)
(1.13561 0.0124984 0)
(1.1193 0.00242651 0)
(1.07963 -0.00907855 0)
(1.04119 -0.0178153 0)
(1.01282 -0.026329 0)
(0.993658 -0.027635 0)
(0.986513 -0.0227833 0)
(0.986301 -0.0129568 0)
(0.999027 -0.0039195 0)
(0.978539 -0.0133753 0)
(0.990311 -0.00395298 0)
(1.05976 0.0234625 0)
(1.05237 0.000470836 0)
(1.04142 -0.00440028 0)
(0.9927 -0.0408268 0)
(0.961042 -0.0366865 0)
(0.972581 -0.02796 0)
(1.0333 -0.000439297 0)
(1.08564 -0.000342684 0)
(1.11617 0.0102796 0)
(1.13053 0.0127335 0)
(1.11036 0.00384915 0)
(1.07137 -0.00678868 0)
(1.03615 -0.0159609 0)
(1.00978 -0.0246463 0)
(0.991167 -0.0266547 0)
(0.983275 -0.022452 0)
(0.98245 -0.0129598 0)
(1.00229 -0.00373342 0)
(0.983923 -0.0132278 0)
(0.980958 -0.00476681 0)
(1.04358 0.0227462 0)
(1.0423 0.000727658 0)
(1.04052 -0.00388871 0)
(0.999314 -0.0394119 0)
(0.967216 -0.0364935 0)
(0.970651 -0.0291023 0)
(1.03004 -0.00280197 0)
(1.07652 -0.00187708 0)
(1.10475 0.00912776 0)
(1.11694 0.0131132 0)
(1.09565 0.00534549 0)
(1.06001 -0.00460417 0)
(1.02987 -0.0141953 0)
(1.00682 -0.0230603 0)
(0.989513 -0.0256073 0)
(0.981407 -0.0220799 0)
(0.980024 -0.0129494 0)
(1.0038 -0.00360677 0)
(0.988218 -0.0129781 0)
(0.975825 -0.00538487 0)
(1.02915 0.0220067 0)
(1.03381 0.000829129 0)
(1.03695 -0.00358179 0)
(1.00448 -0.0380457 0)
(0.973489 -0.0361315 0)
(0.969142 -0.0300347 0)
(1.02132 -0.00503227 0)
(1.06008 -0.0032489 0)
(1.08459 0.00805939 0)
(1.09554 0.0135333 0)
(1.07664 0.00676207 0)
(1.04684 -0.00267114 0)
(1.02295 -0.0126134 0)
(1.00409 -0.021633 0)
(0.988507 -0.0245271 0)
(0.980446 -0.0216599 0)
(0.978356 -0.0129226 0)
(1.00451 -0.00351842 0)
(0.991134 -0.0126754 0)
(0.974218 -0.00582994 0)
(1.01744 0.0212681 0)
(1.0272 0.00082133 0)
(1.03196 -0.00345469 0)
(1.00785 -0.0367791 0)
(0.979014 -0.0356413 0)
(0.96862 -0.0306409 0)
(1.00881 -0.00697533 0)
(1.0391 -0.00437507 0)
(1.05882 0.00708699 0)
(1.06942 0.0138827 0)
(1.05589 0.00793419 0)
(1.03351 -0.00111234 0)
(1.01609 -0.0112901 0)
(1.00168 -0.0204071 0)
(0.987954 -0.0234517 0)
(0.980044 -0.0211575 0)
(0.977086 -0.0128627 0)
(1.00486 -0.00345339 0)
(0.992969 -0.0123534 0)
(0.974777 -0.00613438 0)
(1.00852 0.0205529 0)
(1.02229 0.000755198 0)
(1.02681 -0.00346349 0)
(1.00958 -0.0356377 0)
(0.983264 -0.0350783 0)
(0.969152 -0.0308824 0)
(0.995639 -0.008515 0)
(1.01778 -0.00521664 0)
(1.0322 0.00621091 0)
(1.04297 0.0140554 0)
(1.0363 0.00872772 0)
(1.02162 3.43218e-06 0)
(1.00997 -0.0102537 0)
(0.999629 -0.0193926 0)
(0.98764 -0.0224227 0)
(0.979946 -0.0205553 0)
(0.976151 -0.0127431 0)
(1.00504 -0.00340212 0)
(0.994119 -0.0120306 0)
(0.976233 -0.00632676 0)
(1.00205 0.0198709 0)
(1.01874 0.000653422 0)
(1.02238 -0.00357056 0)
(1.01005 -0.0346062 0)
(0.98614 -0.0344924 0)
(0.970346 -0.0307841 0)
(0.984492 -0.00962643 0)
(0.999626 -0.00576263 0)
(1.00901 0.00542533 0)
(1.02012 0.0139946 0)
(1.02015 0.00910211 0)
(1.01224 0.000693903 0)
(1.00508 -0.00947445 0)
(0.997932 -0.0185691 0)
(0.98741 -0.021452 0)
(0.979962 -0.0198615 0)
(0.975583 -0.0125628 0)
(1.00512 -0.00335857 0)
(0.994892 -0.0117153 0)
(0.977781 -0.00643172 0)
(0.997581 0.0192149 0)
(1.01622 0.000532708 0)
(1.01902 -0.00374566 0)
(1.00975 -0.0336498 0)
(0.987861 -0.0339095 0)
(0.971706 -0.0304213 0)
(0.976621 -0.0103803 0)
(0.986367 -0.00604776 0)
(0.991641 0.00471823 0)
(1.00309 0.0136937 0)
(1.00849 0.00909733 0)
(1.00568 0.00100681 0)
(1.00163 -0.00889596 0)
(0.996606 -0.0178794 0)
(0.987207 -0.0205411 0)
(0.979985 -0.0190966 0)
(0.975361 -0.0123347 0)
(1.00511 -0.00331926 0)
(0.995482 -0.0114096 0)
(0.979079 -0.00646812 0)
(0.994675 0.018572 0)
(1.01447 0.000403463 0)
(1.01668 -0.00396188 0)
(1.009 -0.0327341 0)
(0.98878 -0.0333413 0)
(0.972908 -0.0298708 0)
(0.971936 -0.010869 0)
(0.977966 -0.00613863 0)
(0.980349 0.00407558 0)
(0.992084 0.0131898 0)
(1.00114 0.0088113 0)
(1.00163 0.00103721 0)
(0.999482 -0.00844748 0)
(0.995654 -0.0172588 0)
(0.987047 -0.019685 0)
(0.979999 -0.0182747 0)
(0.975405 -0.0120864 0)
(1.005 -0.00328266 0)
(0.996006 -0.0111107 0)
(0.980072 -0.00645441 0)
(0.992914 0.0179289 0)
(1.01327 0.000269683 0)
(1.01516 -0.00420141 0)
(1.00806 -0.0318298 0)
(0.989228 -0.0327868 0)
(0.97386 -0.0291994 0)
(0.96965 -0.0111818 0)
(0.97338 -0.00609634 0)
(0.974013 0.00348169 0)
(0.985946 0.0125264 0)
(0.997142 0.00834345 0)
(0.999413 0.000901001 0)
(0.998335 -0.00806459 0)
(0.995033 -0.0166524 0)
(0.986977 -0.0188721 0)
(0.980045 -0.0174187 0)
(0.975642 -0.0118297 0)
(1.00478 -0.00324723 0)
(0.996532 -0.0108182 0)
(0.980825 -0.00640241 0)
(0.99193 0.0172776 0)
(1.01244 0.000134461 0)
(1.01419 -0.00444923 0)
(1.00703 -0.0309199 0)
(0.98945 -0.0322404 0)
(0.974612 -0.0284556 0)
(0.968876 -0.0113904 0)
(0.971341 -0.00596946 0)
(0.971079 0.00291722 0)
(0.98308 0.0117374 0)
(0.995311 0.00777379 0)
(0.998317 0.000648277 0)
(0.99781 -0.00770945 0)
(0.994662 -0.0160214 0)
(0.987035 -0.0180884 0)
(0.980176 -0.016547 0)
(0.976033 -0.0115574 0)
(1.00444 -0.00321235 0)
(0.997107 -0.0105321 0)
(0.981431 -0.006317 0)
(0.991432 0.0166116 0)
(1.01183 -9.34154e-07 0)
(1.01359 -0.00469833 0)
(1.00602 -0.0299942 0)
(0.989593 -0.0316981 0)
(0.975256 -0.027671 0)
(0.968935 -0.0115424 0)
(0.970811 -0.00580506 0)
(0.970208 0.00236895 0)
(0.982083 0.010858 0)
(0.994644 0.00716241 0)
(0.997768 0.000333816 0)
(0.997581 -0.0073682 0)
(0.994446 -0.0153477 0)
(0.987234 -0.0173209 0)
(0.980425 -0.0156726 0)
(0.976558 -0.0112622 0)
(1.00397 -0.00317754 0)
(0.997751 -0.0102534 0)
(0.98198 -0.0062006 0)
(0.991206 0.0159262 0)
(1.0113 -0.000136729 0)
(1.0132 -0.00494321 0)
(1.00506 -0.0290486 0)
(0.989733 -0.0311592 0)
(0.97586 -0.0268672 0)
(0.969402 -0.0116642 0)
(0.971099 -0.0056441 0)
(0.970495 0.00184135 0)
(0.981999 0.00991048 0)
(0.994454 0.00653871 0)
(0.997397 1.79669e-06 0)
(0.997411 -0.00703692 0)
(0.994302 -0.0146364 0)
(0.987557 -0.0165654 0)
(0.980801 -0.014808 0)
(0.977202 -0.0109335 0)
(1.0034 -0.00314252 0)
(0.99845 -0.00998405 0)
(0.982551 -0.00605524 0)
(0.991105 0.0152223 0)
(1.01075 -0.000274673 0)
(1.01288 -0.00518177 0)
(1.0042 -0.0280839 0)
(0.989893 -0.0306196 0)
(0.976454 -0.0260564 0)
(0.970051 -0.011769 0)
(0.971803 -0.00550734 0)
(0.971409 0.00133919 0)
(0.982285 0.00892051 0)
(0.994352 0.00592414 0)
(0.997013 -0.000337508 0)
(0.997159 -0.0067156 0)
(0.994172 -0.0138983 0)
(0.987968 -0.0158279 0)
(0.981292 -0.013966 0)
(0.977938 -0.0105676 0)
(1.00275 -0.00310661 0)
(0.999152 -0.00972825 0)
(0.983204 -0.00587872 0)
(0.991047 0.0145019 0)
(1.01013 -0.00041672 0)
(1.01254 -0.00541684 0)
(1.00349 -0.0271033 0)
(0.99007 -0.0300739 0)
(0.977032 -0.0252447 0)
(0.970778 -0.0118592 0)
(0.972699 -0.00540811 0)
(0.97265 0.000859686 0)
(0.982677 0.00792094 0)
(0.99416 0.00532778 0)
(0.996556 -0.000675559 0)
(0.996769 -0.00641721 0)
(0.994029 -0.013145 0)
(0.988415 -0.015105 0)
(0.981878 -0.0131579 0)
(0.978733 -0.0101661 0)
(1.00207 -0.00306843 0)
(0.999779 -0.00949074 0)
(0.983965 -0.00566969 0)
(0.991009 0.0137686 0)
(1.00941 -0.000560375 0)
(1.01212 -0.00565174 0)
(1.00294 -0.0261123 0)
(0.990252 -0.0295159 0)
(0.977576 -0.0244387 0)
(0.971539 -0.0119386 0)
(0.973655 -0.00535779 0)
(0.97404 0.000413645 0)
(0.983074 0.00693129 0)
(0.993841 0.0047489 0)
(0.996041 -0.00100368 0)
(0.996243 -0.00615554 0)
(0.993872 -0.0123955 0)
(0.988846 -0.0143922 0)
(0.982529 -0.0123875 0)
(0.979542 -0.00973268 0)
(1.00145 -0.0030264 0)
(1.00025 -0.00927455 0)
(0.984815 -0.0054304 0)
(0.991016 0.013032 0)
(1.00862 -0.000705518 0)
(1.01159 -0.00589017 0)
(1.00258 -0.0251168 0)
(0.990433 -0.0289359 0)
(0.978072 -0.0236458 0)
(0.972317 -0.0120067 0)
(0.974587 -0.00536129 0)
(0.975453 -4.94877e-07 0)
(0.983453 0.00597333 0)
(0.993429 0.00418861 0)
(0.995522 -0.00130976 0)
(0.995625 -0.00592783 0)
(0.993713 -0.0116657 0)
(0.989225 -0.0137004 0)
(0.983217 -0.0116526 0)
(0.980326 -0.0092698 0)
(1.00094 -0.00297808 0)
(1.00049 -0.00908163 0)
(0.985695 -0.00516657 0)
(0.991119 0.0123 0)
(1.0078 -0.000852222 0)
(1.01097 -0.00613528 0)
(1.00237 -0.0241219 0)
(0.990617 -0.0283244 0)
(0.97853 -0.022874 0)
(0.973112 -0.0120554 0)
(0.975439 -0.00542045 0)
(0.9768 -0.000386341 0)
(0.983821 0.00506037 0)
(0.992984 0.00363482 0)
(0.995047 -0.00159317 0)
(0.994969 -0.00573175 0)
(0.993558 -0.0109631 0)
(0.989532 -0.0130269 0)
(0.983919 -0.0109689 0)
(0.981057 -0.0087814 0)
(1.0006 -0.00292047 0)
(1.00048 -0.0089117 0)
(0.986516 -0.00488286 0)
(0.991372 0.0115764 0)
(1.00702 -0.0009943 0)
(1.01029 -0.00638679 0)
(1.00227 -0.0231359 0)
(0.990819 -0.0276734 0)
(0.978979 -0.0221253 0)
(0.973921 -0.0120864 0)
(0.976181 -0.00553481 0)
(0.978013 -0.000748114 0)
(0.984184 0.00420085 0)
(0.992556 0.00308777 0)
(0.99464 -0.00186023 0)
(0.994322 -0.00556879 0)
(0.99341 -0.0102926 0)
(0.989768 -0.0123638 0)
(0.984618 -0.0103455 0)
(0.981727 -0.00828313 0)
(1.00044 -0.00285197 0)
(1.00025 -0.00875917 0)
(0.987194 -0.00459321 0)
(0.991799 0.0108629 0)
(1.00635 -0.00112915 0)
(1.00958 -0.00664435 0)
(1.00223 -0.022167 0)
(0.99105 -0.0269756 0)
(0.97946 -0.0214064 0)
(0.97474 -0.012094 0)
(0.97681 -0.00568773 0)
(0.979056 -0.00109896 0)
(0.984535 0.00339553 0)
(0.992163 0.00254761 0)
(0.994293 -0.00210856 0)
(0.993716 -0.00543761 0)
(0.993258 -0.00966463 0)
(0.989943 -0.0117169 0)
(0.985301 -0.00976897 0)
(0.982349 -0.00778985 0)
(1.00044 -0.00277115 0)
(0.999864 -0.00861794 0)
(0.987673 -0.00430734 0)
(0.992379 0.0101551 0)
(1.00583 -0.00125285 0)
(1.00889 -0.00690316 0)
(1.00219 -0.0212231 0)
(0.991317 -0.0262285 0)
(0.980002 -0.0207191 0)
(0.975559 -0.0120694 0)
(0.977347 -0.00586871 0)
(0.979914 -0.00144788 0)
(0.984864 0.00263963 0)
(0.991806 0.00200929 0)
(0.993978 -0.00233398 0)
(0.993163 -0.00532449 0)
(0.99309 -0.00908104 0)
(0.990078 -0.0110849 0)
(0.985957 -0.00924144 0)
(0.98294 -0.00731459 0)
(1.00057 -0.00267767 0)
(0.999414 -0.00847911 0)
(0.987951 -0.00403875 0)
(0.993052 0.00945059 0)
(1.00545 -0.00136302 0)
(1.00825 -0.0071529 0)
(1.0021 -0.0203054 0)
(0.99161 -0.025437 0)
(0.980619 -0.0200603 0)
(0.976371 -0.012011 0)
(0.977828 -0.00606742 0)
(0.980609 -0.00179915 0)
(0.98516 0.00192415 0)
(0.991475 0.00147151 0)
(0.993672 -0.00254003 0)
(0.992667 -0.00522396 0)
(0.992894 -0.0085326 0)
(0.990189 -0.0104687 0)
(0.986575 -0.00876607 0)
(0.983519 -0.00686493 0)
(1.00077 -0.0025736 0)
(0.998989 -0.00833334 0)
(0.988075 -0.00379458 0)
(0.993738 0.00874234 0)
(1.00518 -0.00146373 0)
(1.00766 -0.00738673 0)
(1.00194 -0.0194153 0)
(0.991915 -0.024605 0)
(0.981305 -0.0194296 0)
(0.977174 -0.0119186 0)
(0.978301 -0.00626643 0)
(0.981179 -0.00215447 0)
(0.985432 0.00124419 0)
(0.991168 0.000934856 0)
(0.993358 -0.0027366 0)
(0.992227 -0.00513926 0)
(0.992666 -0.0080188 0)
(0.990284 -0.00987017 0)
(0.987149 -0.00833553 0)
(0.9841 -0.00645326 0)
(1.00097 -0.00246043 0)
(0.998657 -0.0081766 0)
(0.988125 -0.00357403 0)
(0.994362 0.00802782 0)
(1.00498 -0.0015534 0)
(1.00712 -0.0075967 0)
(1.00172 -0.0185594 0)
(0.992212 -0.0237375 0)
(0.98204 -0.0188205 0)
(0.97797 -0.0117933 0)
(0.978804 -0.00646532 0)
(0.981681 -0.00251701 0)
(0.985695 0.000605297 0)
(0.990893 0.000413692 0)
(0.993038 -0.00292438 0)
(0.991843 -0.00507015 0)
(0.992413 -0.00754616 0)
(0.990368 -0.00928058 0)
(0.987678 -0.00794264 0)
(0.984686 -0.00610039 0)
(1.00114 -0.00234031 0)
(0.998446 -0.00800557 0)
(0.988185 -0.00338404 0)
(0.994879 0.00731255 0)
(1.00478 -0.00163892 0)
(1.00662 -0.00777341 0)
(1.00143 -0.0177366 0)
(0.99249 -0.0228497 0)
(0.982804 -0.0182323 0)
(0.978767 -0.0116366 0)
(0.979361 -0.00665126 0)
(0.982166 -0.00288382 0)
(0.985972 -3.70539e-06 0)
(0.99066 -0.00010236 0)
(0.992719 -0.00310716 0)
(0.991513 -0.0050112 0)
(0.992149 -0.00711423 0)
(0.990437 -0.00871774 0)
(0.988155 -0.0075704 0)
(0.985275 -0.00581397 0)
(1.00124 -0.00221735 0)
(0.998358 -0.00781734 0)
(0.98832 -0.00321771 0)
(0.995276 0.00660341 0)
(1.00455 -0.00172895 0)
(1.00613 -0.00791735 0)
(1.0011 -0.0169436 0)
(0.992746 -0.0219397 0)
(0.983582 -0.0176664 0)
(0.97957 -0.0114639 0)
(0.979976 -0.00681222 0)
(0.982664 -0.0032492 0)
(0.986272 -0.000581424 0)
(0.990476 -0.000599812 0)
(0.992418 -0.00328862 0)
(0.991233 -0.00495996 0)
(0.991885 -0.00671515 0)
(0.99049 -0.00818176 0)
(0.988585 -0.00720522 0)
(0.985858 -0.00558418 0)
(1.00127 -0.00209207 0)
(0.99837 -0.00761613 0)
(0.988565 -0.00307581 0)
(0.99557 0.00590691 0)
(1.00427 -0.00182129 0)
(1.00565 -0.00802978 0)
(1.00074 -0.0161884 0)
(0.992982 -0.0210093 0)
(0.984364 -0.0171105 0)
(0.980382 -0.0112819 0)
(0.980639 -0.00695321 0)
(0.983188 -0.00361866 0)
(0.986599 -0.00112898 0)
(0.99034 -0.00106693 0)
(0.992141 -0.00346019 0)
(0.990999 -0.00492398 0)
(0.991636 -0.00635719 0)
(0.990525 -0.007666 0)
(0.988967 -0.00683718 0)
(0.986424 -0.00538975 0)
(1.00125 -0.0019654 0)
(0.998452 -0.0074056 0)
(0.988922 -0.00295681 0)
(0.995789 0.00522757 0)
(1.00393 -0.00192122 0)
(1.00517 -0.00810629 0)
(1.00038 -0.0154684 0)
(0.993205 -0.0200806 0)
(0.985143 -0.0165676 0)
(0.981204 -0.0110907 0)
(0.981332 -0.00706409 0)
(0.983736 -0.00398571 0)
(0.986949 -0.00165038 0)
(0.990245 -0.00150661 0)
(0.991894 -0.00361744 0)
(0.990802 -0.00489612 0)
(0.991413 -0.00604168 0)
(0.990546 -0.007187 0)
(0.989305 -0.00647556 0)
(0.986961 -0.00522034 0)
(1.00117 -0.00184047 0)
(0.998576 -0.00718692 0)
(0.989376 -0.00285124 0)
(0.995963 0.0045792 0)
(1.00356 -0.00202817 0)
(1.0047 -0.00816019 0)
(1.00001 -0.0147794 0)
(0.993414 -0.0191438 0)
(0.985918 -0.0160386 0)
(0.982035 -0.0109069 0)
(0.982039 -0.00714844 0)
(0.984299 -0.0043399 0)
(0.987317 -0.00214994 0)
(0.990187 -0.00190518 0)
(0.991676 -0.00376189 0)
(0.99064 -0.00487919 0)
(0.991222 -0.00575062 0)
(0.990559 -0.00673384 0)
(0.989602 -0.00611824 0)
(0.987463 -0.00506315 0)
(1.00107 -0.0017161 0)
(0.99872 -0.00696218 0)
(0.989902 -0.00276692 0)
(0.996114 0.00396046 0)
(1.00316 -0.00212957 0)
(1.00425 -0.00817889 0)
(0.999653 -0.0141419 0)
(0.993611 -0.0182188 0)
(0.986678 -0.0155031 0)
(0.982869 -0.0107296 0)
(0.982747 -0.00720683 0)
(0.984868 -0.00467554 0)
(0.9877 -0.00263412 0)
(0.990161 -0.00226899 0)
(0.991486 -0.00387923 0)
(0.990512 -0.00487935 0)
(0.991071 -0.00551985 0)
(0.99057 -0.00631532 0)
(0.989861 -0.00575343 0)
(0.987922 -0.00488725 0)
(1.00095 -0.00159389 0)
(0.99887 -0.00673345 0)
(0.990473 -0.00270151 0)
(0.996258 0.00337467 0)
(1.00275 -0.00224286 0)
(1.00381 -0.00816572 0)
(0.999317 -0.0135276 0)
(0.993799 -0.0173207 0)
(0.987421 -0.0149747 0)
(0.983702 -0.0105572 0)
(0.983446 -0.00723897 0)
(0.985433 -0.00497673 0)
(0.988094 -0.0031075 0)
(0.990172 -0.00262013 0)
(0.99132 -0.00395128 0)
(0.990407 -0.00484895 0)
(0.990962 -0.00532704 0)
(0.990599 -0.00595618 0)
(0.990094 -0.00541746 0)
(0.988336 -0.00470296 0)
(1.00082 -0.00147448 0)
(0.99902 -0.00649964 0)
(0.991068 -0.00265732 0)
(0.9964 0.00282371 0)
(1.00234 -0.00233896 0)
(1.00341 -0.00813615 0)
(0.999012 -0.0129545 0)
(0.993975 -0.0164277 0)
(0.988141 -0.0144526 0)
(0.984529 -0.0103904 0)
(0.984133 -0.00726341 0)
(0.985985 -0.00524279 0)
(0.988495 -0.00354295 0)
(0.990228 -0.00296854 0)
(0.991192 -0.00401546 0)
(0.990327 -0.00480976 0)
(0.99088 -0.00514537 0)
(0.990638 -0.00561615 0)
(0.990308 -0.00510365 0)
(0.988709 -0.00454301 0)
(1.0007 -0.00135937 0)
(0.999167 -0.00625902 0)
(0.991669 -0.00262451 0)
(0.996549 0.00230125 0)
(1.00195 -0.00244376 0)
(1.00302 -0.00805529 0)
(0.998743 -0.0124134 0)
(0.994146 -0.0155782 0)
(0.988833 -0.0139221 0)
(0.985344 -0.0102262 0)
(0.984804 -0.00727004 0)
(0.986525 -0.00549087 0)
(0.988897 -0.00396019 0)
(0.990322 -0.00329092 0)
(0.991095 -0.00405854 0)
(0.990273 -0.00474485 0)
(0.990841 -0.0049864 0)
(0.9907 -0.00532905 0)
(0.990492 -0.0047884 0)
(0.989032 -0.0043567 0)
(1.00058 -0.00124962 0)
(0.99931 -0.00601282 0)
(0.992265 -0.00261614 0)
(0.996699 0.00181675 0)
(1.00156 -0.00254185 0)
(1.00265 -0.00796459 0)
(0.998508 -0.0118906 0)
(0.994312 -0.0147518 0)
(0.989497 -0.0134053 0)
(0.986144 -0.0100693 0)
(0.985456 -0.00725617 0)
(0.98704 -0.00568015 0)
(0.989303 -0.004354 0)
(0.990468 -0.00364089 0)
(0.991043 -0.00411155 0)
(0.990238 -0.00469186 0)
(0.990814 -0.00480994 0)
(0.990787 -0.00502071 0)
(0.990679 -0.00449297 0)
(0.989288 -0.00415004 0)
(1.00047 -0.00114402 0)
(0.999447 -0.00575722 0)
(0.992851 -0.00261957 0)
(0.996858 0.00135332 0)
(1.00119 -0.00263975 0)
(1.0023 -0.00783934 0)
(0.998316 -0.0113961 0)
(0.994478 -0.0139724 0)
(0.990129 -0.0128799 0)
(0.986929 -0.00991299 0)
(0.986101 -0.0072577 0)
(0.987533 -0.00584031 0)
(0.989688 -0.00468655 0)
(0.990647 -0.00396616 0)
(0.99103 -0.00419168 0)
(0.990241 -0.00462821 0)
(0.990847 -0.00474928 0)
(0.99089 -0.00487196 0)
(0.990835 -0.00422093 0)
(0.989489 -0.00384016 0)
(1.00037 -0.00105116 0)
(0.999582 -0.00548265 0)
(0.993423 -0.00264784 0)
(0.997017 0.000930367 0)
(1.00084 -0.00273679 0)
(1.00197 -0.00769646 0)
(0.998153 -0.0109168 0)
(0.994646 -0.0132237 0)
(0.990733 -0.0123719 0)
(0.987689 -0.00975199 0)
(0.986728 -0.00722685 0)
(0.98801 -0.00597748 0)
(0.990076 -0.00500336 0)
(0.990864 -0.0043058 0)
(0.991066 -0.00429774 0)
(0.990238 -0.00461273 0)
(0.990838 -0.00465968 0)
(0.991057 -0.00480497 0)
(0.991098 -0.00430388 0)
(0.989662 -0.00371407 0)
(1.00028 -0.000963242 0)
(0.999707 -0.00520345 0)
(0.99398 -0.00268579 0)
(0.997186 0.000527637 0)
(1.00051 -0.00281621 0)
(1.00165 -0.00754756 0)
(0.998028 -0.0104578 0)
(0.994813 -0.0125066 0)
(0.991303 -0.0118661 0)
(0.988439 -0.00958708 0)
(0.987348 -0.0072219 0)
(0.988456 -0.00605645 0)
(0.990432 -0.00524395 0)
(0.991108 -0.00464324 0)
(0.991141 -0.00443955 0)
(0.990293 -0.004634 0)
(0.990882 -0.00473758 0)
(0.991098 -0.00478244 0)
(0.991293 -0.0042906 0)
(0.990074 -0.00363016 0)
(1.0002 -0.000888346 0)
(0.999824 -0.00490069 0)
(0.994518 -0.00274651 0)
(0.997355 0.000153883 0)
(1.0002 -0.00289298 0)
(1.00136 -0.00738267 0)
(0.997926 -0.010009 0)
(0.994984 -0.0118263 0)
(0.991843 -0.0113751 0)
(0.989152 -0.00941818 0)
(0.987961 -0.00719517 0)
(0.988907 -0.00613823 0)
(0.990779 -0.00544744 0)
(0.991368 -0.00494571 0)
(0.991264 -0.00460087 0)
(0.990295 -0.00463787 0)
(0.990878 -0.00461049 0)
(0.991308 -0.00465256 0)
(0.991603 -0.00408502 0)
(0.990392 -0.00336876 0)
(1.00012 -0.000825535 0)
(0.999928 -0.00458825 0)
(0.99504 -0.0028186 0)
(0.997536 -0.000190047 0)
(0.999903 -0.00294509 0)
(1.00107 -0.00721892 0)
(0.997859 -0.009585 0)
(0.995156 -0.0111757 0)
(0.99235 -0.010887 0)
(0.989858 -0.00924933 0)
(0.988563 -0.00717375 0)
(0.98932 -0.00617891 0)
(0.991095 -0.00560746 0)
(0.99164 -0.00520132 0)
(0.991434 -0.00477192 0)
(0.990448 -0.00464278 0)
(0.990966 -0.00450476 0)
(0.991374 -0.00450898 0)
(0.991862 -0.00398795 0)
(0.990826 -0.00330933 0)
(1.00005 -0.000772953 0)
(1.00002 -0.00426722 0)
(0.995537 -0.00288525 0)
(0.997717 -0.00053218 0)
(0.999632 -0.00296506 0)
(1.00081 -0.00704498 0)
(0.997813 -0.00918527 0)
(0.995333 -0.0105648 0)
(0.99282 -0.0103947 0)
(0.990518 -0.00908075 0)
(0.989165 -0.00715055 0)
(0.989747 -0.00619124 0)
(0.991401 -0.00571306 0)
(0.991916 -0.0054096 0)
(0.991648 -0.00492246 0)
(0.990543 -0.0046377 0)
(0.991011 -0.0044338 0)
(0.991594 -0.00440828 0)
(0.992163 -0.00399149 0)
(0.991205 -0.0033667 0)
(0.999995 -0.000734483 0)
(1.0001 -0.00393857 0)
(0.99601 -0.00295949 0)
(0.997915 -0.000849182 0)
(0.999377 -0.00296503 0)
(1.00056 -0.00686727 0)
(0.997798 -0.00880539 0)
(0.995513 -0.0099779 0)
(0.993254 -0.00991134 0)
(0.991168 -0.00889054 0)
(0.98976 -0.00710885 0)
(0.990145 -0.00621954 0)
(0.991676 -0.00575808 0)
(0.992196 -0.00555932 0)
(0.991907 -0.00504237 0)
(0.990793 -0.00459801 0)
(0.991142 -0.00419183 0)
(0.991622 -0.00424102 0)
(0.992364 -0.00386522 0)
(0.991756 -0.00326058 0)
(0.999942 -0.000704404 0)
(1.00016 -0.00361817 0)
(0.996453 -0.00300187 0)
(0.998111 -0.00118597 0)
(0.999146 -0.00294911 0)
(1.00032 -0.00664807 0)
(0.997803 -0.00845852 0)
(0.995705 -0.00944147 0)
(0.993654 -0.00940953 0)
(0.991763 -0.00868873 0)
(0.990344 -0.00709296 0)
(0.990571 -0.00620127 0)
(0.991958 -0.00573119 0)
(0.992463 -0.00563086 0)
(0.992209 -0.00512935 0)
(0.99104 -0.00454829 0)
(0.991242 -0.00411108 0)
(0.991808 -0.00405036 0)
(0.992661 -0.00361806 0)
(0.992066 -0.00327139 0)
(0.999898 -0.000685786 0)
(1.00021 -0.00330303 0)
(0.996858 -0.00303624 0)
(0.998324 -0.00150649 0)
(0.998944 -0.00291178 0)
(1.00009 -0.00641894 0)
(0.997825 -0.00813048 0)
(0.995909 -0.00894252 0)
(0.99402 -0.00892217 0)
(0.992327 -0.0084498 0)
(0.990928 -0.00702204 0)
(0.990993 -0.00618488 0)
(0.992211 -0.00571416 0)
(0.992717 -0.00564652 0)
(0.992536 -0.00516584 0)
(0.991381 -0.00455473 0)
(0.991455 -0.00394183 0)
(0.991925 -0.00387385 0)
(0.992767 -0.00366551 0)
(0.992335 -0.00334023 0)
(0.99986 -0.000673604 0)
(1.00024 -0.00300814 0)
(0.997226 -0.00302776 0)
(0.998538 -0.0018252 0)
(0.998769 -0.00290209 0)
(0.999862 -0.00614638 0)
(0.997862 -0.007806 0)
(0.996126 -0.00850421 0)
(0.994362 -0.00842773 0)
(0.99284 -0.00817256 0)
(0.991482 -0.00694734 0)
(0.991426 -0.00617508 0)
(0.992494 -0.00565866 0)
(0.992978 -0.00557956 0)
(0.992864 -0.00517386 0)
(0.991743 -0.00457642 0)
(0.991649 -0.00390834 0)
(0.992014 -0.00381717 0)
(0.992964 -0.00360934 0)
(0.992669 -0.00320474 0)
(0.999828 -0.000665434 0)
(1.00026 -0.0027343 0)
(0.997548 -0.00299755 0)
(0.998756 -0.00212899 0)
(0.998635 -0.00288789 0)
(0.99964 -0.00585069 0)
(0.997894 -0.007486 0)
(0.99636 -0.00811228 0)
(0.994686 -0.0079676 0)
(0.993312 -0.00785598 0)
(0.992017 -0.00681327 0)
(0.991864 -0.0061342 0)
(0.992778 -0.00560893 0)
(0.993218 -0.00552525 0)
(0.993177 -0.00516084 0)
(0.992133 -0.00461263 0)
(0.991922 -0.00389209 0)
(0.992156 -0.00367553 0)
(0.993136 -0.00349912 0)
(0.99293 -0.00319769 0)
(0.999802 -0.000661246 0)
(1.00027 -0.00248898 0)
(0.997829 -0.00292752 0)
(0.998971 -0.00239929 0)
(0.998534 -0.00291178 0)
(0.999431 -0.00554993 0)
(0.997926 -0.00713182 0)
(0.996601 -0.00776461 0)
(0.995005 -0.00754523 0)
(0.993747 -0.00750304 0)
(0.99251 -0.00665015 0)
(0.992288 -0.00608816 0)
(0.993076 -0.00555494 0)
(0.993476 -0.00543747 0)
(0.993488 -0.00510154 0)
(0.992528 -0.00462856 0)
(0.992229 -0.00389382 0)
(0.992304 -0.00359069 0)
(0.993269 -0.00343013 0)
(0.993195 -0.00320038 0)
(0.999781 -0.000655425 0)
(1.00027 -0.00226968 0)
(0.998063 -0.00283597 0)
(0.999176 -0.00264324 0)
(0.998478 -0.00295094 0)
(0.999242 -0.00524018 0)
(0.99794 -0.00676478 0)
(0.996843 -0.00744993 0)
(0.995325 -0.00716827 0)
(0.994148 -0.00715327 0)
(0.992965 -0.00643312 0)
(0.992705 -0.00599172 0)
(0.993386 -0.00548681 0)
(0.993729 -0.00535927 0)
(0.993773 -0.0050409 0)
(0.99292 -0.00463338 0)
(0.992583 -0.00390427 0)
(0.9925 -0.00352033 0)
(0.993401 -0.00333002 0)
(0.993447 -0.0031725 0)
(0.999763 -0.000649374 0)
(1.00027 -0.00208222 0)
(0.998257 -0.00271467 0)
(0.999367 -0.00283825 0)
(0.998458 -0.00301945 0)
(0.999075 -0.0049537 0)
(0.997939 -0.00637216 0)
(0.997076 -0.0071419 0)
(0.995648 -0.00685369 0)
(0.994537 -0.00681789 0)
(0.993387 -0.00616403 0)
(0.993088 -0.0058485 0)
(0.993685 -0.00541911 0)
(0.993992 -0.00528473 0)
(0.994064 -0.00494328 0)
(0.99331 -0.00459087 0)
(0.992962 -0.00391156 0)
(0.992729 -0.00348051 0)
(0.993517 -0.0032408 0)
(0.993665 -0.00314842 0)
(0.999748 -0.000636685 0)
(1.00027 -0.00192544 0)
(0.998412 -0.00257891 0)
(0.999533 -0.00298307 0)
(0.998478 -0.00310268 0)
(0.998946 -0.00469402 0)
(0.997921 -0.00596 0)
(0.997281 -0.00682305 0)
(0.99597 -0.00658844 0)
(0.994924 -0.00652064 0)
(0.993782 -0.00588583 0)
(0.993436 -0.00565178 0)
(0.993972 -0.00530418 0)
(0.994265 -0.0051977 0)
(0.994348 -0.00484689 0)
(0.993673 -0.00454096 0)
(0.993346 -0.00392465 0)
(0.993005 -0.00346932 0)
(0.993646 -0.00315024 0)
(0.993864 -0.0030979 0)
(0.999735 -0.000621255 0)
(1.00028 -0.00179096 0)
(0.998536 -0.00244105 0)
(0.999677 -0.00306919 0)
(0.998525 -0.00317563 0)
(0.998856 -0.0044777 0)
(0.997898 -0.00555495 0)
(0.997453 -0.0064813 0)
(0.996277 -0.00633284 0)
(0.995316 -0.0062853 0)
(0.994171 -0.00562098 0)
(0.993757 -0.0054125 0)
(0.994226 -0.00513592 0)
(0.994523 -0.00510052 0)
(0.994631 -0.00476258 0)
(0.994025 -0.00447217 0)
(0.993734 -0.00390515 0)
(0.993325 -0.0034638 0)
(0.993797 -0.0030767 0)
(0.994026 -0.00303216 0)
(0.999723 -0.000599789 0)
(1.00028 -0.00168222 0)
(0.998632 -0.00229577 0)
(0.999791 -0.00310196 0)
(0.998595 -0.00324097 0)
(0.998809 -0.00428237 0)
(0.997874 -0.00517155 0)
(0.997591 -0.00612148 0)
(0.996554 -0.00605948 0)
(0.995705 -0.00609462 0)
(0.994571 -0.0054057 0)
(0.994064 -0.00517046 0)
(0.994448 -0.00493101 0)
(0.994755 -0.00496421 0)
(0.99491 -0.0046668 0)
(0.99437 -0.00439667 0)
(0.994105 -0.00386775 0)
(0.993663 -0.003464 0)
(0.993981 -0.00303529 0)
(0.994167 -0.00295942 0)
(0.999712 -0.000571374 0)
(1.00029 -0.00159245 0)
(0.99871 -0.00215928 0)
(0.999879 -0.00307065 0)
(0.998681 -0.00328064 0)
(0.998802 -0.00412084 0)
(0.997858 -0.00481577 0)
(0.997703 -0.0057594 0)
(0.99679 -0.00575855 0)
(0.996072 -0.00589451 0)
(0.994983 -0.00525649 0)
(0.994377 -0.00495499 0)
(0.994648 -0.00470633 0)
(0.994954 -0.00479259 0)
(0.995166 -0.00454692 0)
(0.994703 -0.00432169 0)
(0.994467 -0.00382255 0)
(0.994011 -0.00345341 0)
(0.994202 -0.00300506 0)
(0.994306 -0.00288959 0)
(0.999703 -0.000542119 0)
(1.0003 -0.00151095 0)
(0.998775 -0.00203079 0)
(0.999941 -0.00298934 0)
(0.998769 -0.00328088 0)
(0.998835 -0.00399593 0)
(0.997856 -0.00448291 0)
(0.997794 -0.00541354 0)
(0.996993 -0.00543984 0)
(0.996397 -0.00566233 0)