/*--------------------------------*- C++ -*----------------------------------*\
| =========                 |                                                 |
| \\      /  F ield         | OpenFOAM: The Open Source CFD Toolbox           |
|  \\    /   O peration     | Version:  v1912                                 |
|   \\  /    A nd           | Website:  www.openfoam.com                      |
|    \\/     M anipulation  |                                                 |
\*---------------------------------------------------------------------------*/
FoamFile
{
    version     2.0;
    format      ascii;
    class       volScalarField;
    location    "7.85";
    object      p;
}
// * * * * * * * * * * * * * * * * * * * * * * * * * * * * * * * * * * * * * //

dimensions      [0 2 -2 0 0 0 0];


internalField   nonuniform List<scalar> 
9600
(
-1.01458e-10
-0.00116061
0.00116954
0.000544619
-8.20299e-05
-0.000243777
-0.0020963
-0.00120936
-0.000474831
-0.00089247
-0.00141145
-0.00248821
-0.000213807
-0.00175532
-0.000694846
-0.00164405
-0.00156491
-0.00128785
-0.00189405
-0.00147836
4.26309e-08
-0.00116499
0.00117572
0.000534859
-7.28368e-05
-0.000278781
-0.00210058
-0.00117906
-0.000488201
-0.000891973
-0.00139891
-0.00250634
-0.000205248
-0.00179422
-0.000669044
-0.00169354
-0.00155087
-0.00139799
-0.00188531
-0.00177626
-8.0318e-07
-0.00117005
0.00118384
0.000521623
-6.23657e-05
-0.000311481
-0.00209564
-0.0011435
-0.000513513
-0.000898277
-0.00139148
-0.00253928
-0.00018681
-0.00184045
-0.000643316
-0.00175932
-0.00155258
-0.00151642
-0.00188927
-0.00210772
-2.26742e-06
-0.00117604
0.00119069
0.000503989
-5.96719e-05
-0.000342444
-0.00208476
-0.00111324
-0.00055654
-0.000911405
-0.00138423
-0.00258761
-0.000171339
-0.00189465
-0.000646168
-0.00182405
-0.00157088
-0.00161888
-0.00191887
-0.00238449
-4.35725e-06
-0.0011836
0.00119641
0.000480886
-6.42906e-05
-0.000370702
-0.0020696
-0.00109008
-0.0006153
-0.000925792
-0.00137473
-0.00265041
-0.000158519
-0.00195935
-0.000660534
-0.00188822
-0.0015829
-0.00172005
-0.00196437
-0.00260182
-7.142e-06
-0.00119294
0.0012014
0.000452519
-7.32877e-05
-0.000395809
-0.00205238
-0.0010752
-0.000685039
-0.000938151
-0.00136382
-0.00271871
-0.000143646
-0.00202644
-0.00067662
-0.00194797
-0.0015886
-0.00182334
-0.00201514
-0.00279241
-1.06056e-05
-0.00120401
0.00120548
0.000419918
-8.42761e-05
-0.000416312
-0.00203526
-0.0010674
-0.000758981
-0.000947539
-0.00135243
-0.00278287
-0.000123281
-0.00209184
-0.000695153
-0.00200404
-0.00159994
-0.00192201
-0.00208186
-0.00296849
-1.47033e-05
-0.00121668
0.00120819
0.000384222
-9.54986e-05
-0.000434085
-0.00201944
-0.00106418
-0.000831225
-0.000954146
-0.00134085
-0.00283761
-9.77919e-05
-0.00215756
-0.000716128
-0.00206059
-0.00162001
-0.00201448
-0.00217374
-0.00312516
-1.9389e-05
-0.00123079
0.00120915
0.000346157
-0.000105778
-0.000450652
-0.00200539
-0.0010628
-0.000898182
-0.000958609
-0.00132883
-0.00288348
-7.01856e-05
-0.00222557
-0.000740399
-0.00211592
-0.00164951
-0.00209909
-0.0022896
-0.00325943
-2.46028e-05
-0.0012462
0.00120811
0.000305904
-0.00011455
-0.000466338
-0.00199324
-0.00106106
-0.000958582
-0.000961792
-0.00131639
-0.00292574
-4.26055e-05
-0.00229559
-0.000770521
-0.00216521
-0.00169146
-0.00217315
-0.00242837
-0.00337711
-3.02593e-05
-0.00126275
0.00120501
0.000263327
-0.000121793
-0.000481337
-0.00198294
-0.00105767
-0.00101306
-0.000964696
-0.00130413
-0.00296916
-1.51475e-05
-0.00236577
-0.0008095
-0.00220436
-0.00174922
-0.00223606
-0.00258952
-0.00348624
-3.62504e-05
-0.00128022
0.00119992
0.000218306
-0.000127785
-0.000496075
-0.0019742
-0.00105225
-0.00106384
-0.000968383
-0.00129297
-0.00301545
1.21049e-05
-0.00243371
-0.000859771
-0.00223175
-0.00182528
-0.00228923
-0.00277059
-0.00359511
-4.24551e-05
-0.00129837
0.00119301
0.000170967
-0.000132865
-0.000510969
-0.00196648
-0.00104505
-0.00111393
-0.000973931
-0.00128369
-0.00306267
3.71388e-05
-0.00249683
-0.000922513
-0.00224829
-0.00192093
-0.00233486
-0.00296698
-0.00371245
-4.87528e-05
-0.00131698
0.00118441
0.000121723
-0.000137382
-0.000526251
-0.00195926
-0.00103678
-0.00116561
-0.00098206
-0.00127689
-0.00310775
5.62773e-05
-0.00255257
-0.000998046
-0.00225571
-0.00203593
-0.00237616
-0.00317262
-0.00384612
-5.5046e-05
-0.00133585
0.00117421
7.11886e-05
-0.000141713
-0.000542188
-0.00195226
-0.00102825
-0.00121986
-0.000992827
-0.00127265
-0.00314912
6.56439e-05
-0.00259846
-0.00108684
-0.00225527
-0.00216904
-0.00241753
-0.00338047
-0.00400115
-6.12832e-05
-0.00135484
0.00116243
2.0066e-05
-0.000146286
-0.000559181
-0.00194531
-0.00102023
-0.00127717
-0.00100597
-0.00127022
-0.00318701
6.2412e-05
-0.00263262
-0.00118986
-0.00224791
-0.00231841
-0.00246431
-0.00358249
-0.00417837
-6.74787e-05
-0.00137385
0.00114901
-3.09699e-05
-0.000151568
-0.000577587
-0.00193846
-0.00101328
-0.00133774
-0.0010212
-0.00126887
-0.00322226
4.55148e-05
-0.0026539
-0.00130825
-0.00223479
-0.00248097
-0.0025228
-0.00377046
-0.00437566
-7.37199e-05
-0.00139287
0.00113391
-8.1394e-05
-0.000158063
-0.000597573
-0.00193206
-0.00100777
-0.00140129
-0.00103838
-0.00126842
-0.00325515
1.54668e-05
-0.00266154
-0.00144255
-0.00221768
-0.00265225
-0.00259991
-0.0039372
-0.00458916
-8.01503e-05
-0.00141195
0.00111707
-0.000130905
-0.000166244
-0.000619122
-0.00192654
-0.00100379
-0.00146749
-0.00105763
-0.00126893
-0.00328521
-2.67093e-05
-0.0026551
-0.00159191
-0.00219901
-0.00282727
-0.00270184
-0.0040775
-0.00481325
-8.69402e-05
-0.00143119
0.0010984
-0.000179414
-0.00017651
-0.00064202
-0.00192242
-0.00100135
-0.00153596
-0.0010794
-0.00127032
-0.00331201
-8.04742e-05
-0.00263475
-0.0017546
-0.00218179
-0.00300099
-0.00283249
-0.00418906
-0.00504105
-9.42539e-05
-0.0014507
0.00107776
-0.000226957
-0.000189206
-0.000665895
-0.0019203
-0.00100037
-0.00160615
-0.00110429
-0.00127232
-0.00333585
-0.000145712
-0.0026015
-0.00192912
-0.00216964
-0.00316796
-0.00299289
-0.00427343
-0.00526441
-0.000102222
-0.00147061
0.00105496
-0.000273573
-0.000204653
-0.000690309
-0.00192079
-0.00100065
-0.00167743
-0.00113307
-0.00127449
-0.00335786
-0.000222678
-0.00255689
-0.00211384
-0.00216715
-0.00332278
-0.00318168
-0.0043364
-0.00547307
-0.00011094
-0.001491
0.00102978
-0.000319252
-0.000223179
-0.000714838
-0.00192442
-0.0010022
-0.00174908
-0.00116658
-0.00127643
-0.00337939
-0.000311905
-0.00250212
-0.00230726
-0.00217952
-0.00345973
-0.00339647
-0.00438687
-0.00565495
-0.000120485
-0.00151192
0.00100194
-0.000363912
-0.000245137
-0.000739072
-0.00193157
-0.00100514
-0.00182046
-0.0012058
-0.00127791
-0.00340119
-0.00041385
-0.00243856
-0.00250761
-0.00221154
-0.0035737
-0.00363371
-0.0044357
-0.00579814
-0.000130912
-0.00153345
0.000971155
-0.00040742
-0.000270863
-0.000762595
-0.00194265
-0.00100964
-0.00189103
-0.00125182
-0.00127877
-0.00342349
-0.000529359
-0.00236753
-0.00271132
-0.00226807
-0.0036618
-0.00388728
-0.00449525
-0.00589397
-0.000142254
-0.00155561
0.000937057
-0.00044959
-0.000300683
-0.000784994
-0.00195795
-0.00101606
-0.00196003
-0.00130563
-0.00127892
-0.00344627
-0.000659592
-0.00229008
-0.00291418
-0.00235441
-0.00372297
-0.00414817
-0.00457839
-0.00594027
-0.000154544
-0.00157845
0.000899256
-0.000490191
-0.000334972
-0.00080589
-0.00197753
-0.00102505
-0.00202659
-0.0013683
-0.00127831
-0.00346884
-0.000805476
-0.00220783
-0.00311184
-0.00247468
-0.00375871
-0.00440549
-0.00469552
-0.00594229
-0.000167819
-0.00160199
0.000857329
-0.000529009
-0.000374045
-0.000824951
-0.00200156
-0.00103735
-0.00208966
-0.00144101
-0.00127728
-0.00348982
-0.000968058
-0.00212286
-0.00329872
-0.00263205
-0.0037741
-0.00464629
-0.00485187
-0.00591277
-0.000182098
-0.00162626
0.00081081
-0.000565725
-0.000418241
-0.000841863
-0.00203005
-0.00105387
-0.00214792
-0.00152463
-0.00127688
-0.00350749
-0.00114823
-0.0020384
-0.00346901
-0.00282778
-0.0037775
-0.0048562
-0.00504635
-0.00587274
-0.000197409
-0.00165131
0.000759199
-0.00059988
-0.000467961
-0.00085648
-0.00206263
-0.00107582
-0.00219997
-0.00161965
-0.0012786
-0.00351996
-0.00134658
-0.00195943
-0.00361588
-0.00305911
-0.00378113
-0.00502259
-0.00527156
-0.00584866
-0.000213784
-0.00167714
0.000701944
-0.000630947
-0.000523552
-0.000868967
-0.00209864
-0.00110478
-0.00224437
-0.00172599
-0.00128447
-0.00352487
-0.0015632
-0.00189205
-0.00373217
-0.00332081
-0.00379998
-0.00513689
-0.00551434
-0.00586581
-0.000231243
-0.0017037
0.000638449
-0.000658404
-0.000585263
-0.000879654
-0.00213719
-0.00114262
-0.00227972
-0.00184307
-0.00129754
-0.00351907
-0.00179626
-0.00184383
-0.00381293
-0.00360535
-0.00384869
-0.00519733
-0.00575545
-0.00594106
-0.000249845
-0.00173091
0.000568065
-0.000681772
-0.000653141
-0.000889151
-0.00217717
-0.00119129
-0.00230499
-0.00197005
-0.00132079
-0.0034995
-0.00204254
-0.00182293
-0.00385592
-0.00390146
-0.00393946
-0.00521184
-0.00597122
-0.00607702
-0.000269664
-0.00175863
0.000490106
-0.000700625
-0.000727106
-0.00089852
-0.00221697
-0.00125308
-0.00232005
-0.00210448
-0.00135169
-0.003465
-0.00229717
-0.00183608
-0.0038634
-0.00419619
-0.00407796
-0.00519493
-0.00613901
-0.00626137
-0.000290771
-0.00178672
0.000403928
-0.000714661
-0.000806789
-0.000909276
-0.00225464
-0.00132975
-0.00232568
-0.00224244
-0.00140618
-0.00341566
-0.00255227
-0.0018886
-0.00384164
-0.00447587
-0.00426302
-0.00516676
-0.00624481
-0.00647231
-0.000313337
-0.00181494
0.000308931
-0.000723838
-0.000891403
-0.000923439
-0.00228819
-0.00142189
-0.00232383
-0.00237931
-0.00148593
-0.00335441
-0.0027992
-0.00198433
-0.00380022
-0.00472593
-0.00448689
-0.00515093
-0.00628776
-0.00667846
-0.000337493
-0.0018429
0.000204248
-0.000728219
-0.000979762
-0.00094324
-0.00231518
-0.00152958
-0.00231815
-0.00250991
-0.00159138
-0.00328828
-0.0030303
-0.00212311
-0.00375246
-0.00493636
-0.00473661
-0.0051648
-0.00627915
-0.00684684
-0.000363452
-0.00187019
8.91579e-05
-0.000728144
-0.00107007
-0.000971541
-0.00233336
-0.00165122
-0.00231377
-0.00262998
-0.0017223
-0.00322451
-0.00323911
-0.00230116
-0.00371062
-0.0051033
-0.00499979
-0.0052155
-0.00623796
-0.00695739
-0.000391514
-0.00189632
-3.6913e-05
-0.000725077
-0.00115968
-0.00101169
-0.00234202
-0.00178296
-0.00231663
-0.00273714
-0.00187736
-0.00317035
-0.00342148
-0.00251357
-0.00368583
-0.00522464
-0.00526351
-0.00530198
-0.00618356
-0.00701141
-0.000421983
-0.00192042
-0.000174364
-0.00072097
-0.00124559
-0.0010657
-0.00234096
-0.00192084
-0.00233287
-0.00283103
-0.0020509
-0.00313227
-0.00357579
-0.00275213
-0.00369148
-0.00530668
-0.00551315
-0.00541565
-0.0061233
-0.00701242
-0.000455309
-0.00194202
-0.000323191
-0.000717971
-0.00132488
-0.00113506
-0.00233183
-0.00205981
-0.0023662
-0.00291294
-0.00223713
-0.00311566
-0.0037028
-0.00300601
-0.0037346
-0.00536202
-0.00574361
-0.00554969
-0.0060603
-0.00695996
-0.00049183
-0.00196062
-0.00048318
-0.000718565
-0.00139433
-0.00121968
-0.00231885
-0.00219541
-0.00241813
-0.00298511
-0.00243059
-0.00312497
-0.00380492
-0.0032647
-0.00381591
-0.00540431
-0.00595466
-0.00570351
-0.0060026
-0.0068577
-0.000532097
-0.00197574
-0.000653133
-0.000726363
-0.00145202
-0.00131819
-0.00230667
-0.00232383
-0.00248958
-0.00305169
-0.00262565
-0.00316201
-0.00388601
-0.0035145
-0.00393246
-0.00544177
-0.00614382
-0.00588097
-0.00597474
-0.00671404
-0.00057649
-0.00198725
-0.000830754
-0.00074511
-0.00149662
-0.00142762
-0.00230074
-0.00244154
-0.00257891
-0.00311673
-0.00281773
-0.00322644
-0.0039529
-0.00374585
-0.00407252
-0.00547035
-0.00628207
-0.00606649
-0.00600445
-0.00662634
-0.000625562
-0.00199452
-0.00101398
-0.000779094
-0.00152851
-0.00154304
-0.00230732
-0.00253794
-0.00267586
-0.00318296
-0.00300405
-0.00331721
-0.00401107
-0.00395126
-0.00422931
-0.00549429
-0.00637047
-0.00624699
-0.00609659
-0.00660058
-0.000680084
-0.00199739
-0.00119834
-0.000832265
-0.00155113
-0.0016594
-0.00232872
-0.00263321
-0.00278055
-0.00325401
-0.00318303
-0.00342965
-0.00406634
-0.00412946
-0.00439243
-0.00552432
-0.00643187
-0.00642944
-0.00625261
-0.00664466
-0.00074081
-0.00199568
-0.00137877
-0.000908944
-0.0015687
-0.00177089
-0.00236609
-0.0027199
-0.00288866
-0.00333192
-0.00335318
-0.00355955
-0.00412655
-0.00428461
-0.00456012
-0.00559067
-0.00651615
-0.00662255
-0.00645411
-0.00669703
-0.000808747
-0.00198958
-0.00155019
-0.00101117
-0.00158731
-0.00187329
-0.00241801
-0.00280018
-0.00299855
-0.00341446
-0.00351473
-0.00370372
-0.00419553
-0.00441785
-0.00472361
-0.00566456
-0.00658336
-0.00679519
-0.00666647
-0.00681476
-0.000883657
-0.00198006
-0.00171078
-0.00113954
-0.00161152
-0.00196404
-0.00248179
-0.00288038
-0.00310808
-0.00350095
-0.00366597
-0.00385587
-0.00428395
-0.00455009
-0.00488598
-0.0057461
-0.00665335
-0.00695916
-0.00687478
-0.00695599
-0.00096522
-0.0019695
-0.00185715
-0.00129099
-0.00164776
-0.00204377
-0.0025524
-0.00296238
-0.00321641
-0.00359289
-0.0038099
-0.00401366
-0.0043937
-0.00468283
-0.0050407
-0.00584157
-0.00673056
-0.00711044
-0.00708163
-0.00710706
-0.00105319
-0.0019596
-0.00198949
-0.00146003
-0.00170141
-0.00211481
-0.00262527
-0.00304737
-0.00332722
-0.0036909
-0.00394704
-0.00417291
-0.00452126
-0.00482151
-0.00519655
-0.00594753
-0.00680331
-0.00723826
-0.00726789
-0.00724278
-0.00114653
-0.00195443
-0.00210625
-0.00163822
-0.00177689
-0.00218431
-0.00269747
-0.00313374
-0.00343962
-0.0037961
-0.00408089
-0.00433273
-0.00466324
-0.00496611
-0.00534707
-0.00605043
-0.00687018
-0.00733836
-0.00742702
-0.00738986
-0.00124452
-0.00195875
-0.00220528
-0.00181804
-0.00187771
-0.00225768
-0.00276717
-0.00322097
-0.00355518
-0.00390932
-0.00421364
-0.00448838
-0.00481008
-0.00511289
-0.00549299
-0.00615221
-0.00693786
-0.00742265
-0.00756457
-0.0075581
-0.00134612
-0.00197334
-0.00229001
-0.00199353
-0.00200233
-0.00234143
-0.00283843
-0.00330705
-0.00366979
-0.00402737
-0.00434748
-0.00464174
-0.00495915
-0.00526136
-0.00563542
-0.00624965
-0.00700572
-0.00750816
-0.00768054
-0.00771817
-0.0014505
-0.0019995
-0.00236234
-0.00215974
-0.00214718
-0.00244201
-0.00291417
-0.00338954
-0.00378167
-0.00415154
-0.0044845
-0.00479239
-0.00510617
-0.00540557
-0.00577614
-0.00634925
-0.00707306
-0.00759988
-0.00777837
-0.00784255
-0.00155685
-0.00203705
-0.00242884
-0.00231515
-0.00230253
-0.00256049
-0.003002
-0.00347254
-0.00388826
-0.00427524
-0.00462079
-0.00494035
-0.00525418
-0.00555007
-0.00591624
-0.00645155
-0.00713024
-0.00768446
-0.00787606
-0.00793801
-0.0016646
-0.00208571
-0.00249383
-0.00245854
-0.00246057
-0.00269764
-0.00310794
-0.0035584
-0.00398645
-0.00439433
-0.0047579
-0.00508877
-0.00540455
-0.00569372
-0.00604706
-0.00655405
-0.00718436
-0.00775716
-0.0079888
-0.00802194
-0.00177342
-0.00214451
-0.00256052
-0.00259188
-0.00261757
-0.00284744
-0.00323181
-0.00365308
-0.00407983
-0.0045068
-0.004892
-0.0052349
-0.00555441
-0.00583935
-0.0061747
-0.00665827
-0.0072434
-0.00780917
-0.00809793
-0.0081121
-0.00188316
-0.00221248
-0.00263107
-0.00271927
-0.00277127
-0.00300237
-0.00337272
-0.0037621
-0.00417159
-0.00461018
-0.00501909
-0.00537866
-0.00570443
-0.00598998
-0.00630424
-0.00675565
-0.00730323
-0.00784504
-0.00818957
-0.00822492
-0.00199404
-0.00228849
-0.00270658
-0.00284409
-0.00292152
-0.00315684
-0.00352383
-0.00388645
-0.00426782
-0.00470634
-0.00513798
-0.00551817
-0.00585225
-0.00614113
-0.00643772
-0.00685055
-0.00736692
-0.00788111
-0.0082561
-0.00834135
-0.00210621
-0.00237201
-0.00278745
-0.00296809
-0.00306962
-0.00330763
-0.00367711
-0.00402512
-0.00437649
-0.00479912
-0.00524621
-0.00565017
-0.00599624
-0.00629045
-0.00657675
-0.006952
-0.00743165
-0.00791725
-0.00829742
-0.00843758
-0.0022199
-0.0024627
-0.00287365
-0.00309152
-0.00321718
-0.00345471
-0.00382764
-0.0041742
-0.00450027
-0.00489467
-0.00534393
-0.00577132
-0.00613553
-0.00643709
-0.00671724
-0.00706066
-0.00749832
-0.00795631
-0.00832949
-0.00850774
-0.00233532
-0.0025601
-0.00296523
-0.00321426
-0.00336463
-0.00359933
-0.00397304
-0.00432667
-0.0046378
-0.0049996
-0.00543548
-0.00587958
-0.00626537
-0.00657957
-0.00685733
-0.00717531
-0.00757242
-0.00800007
-0.00836
-0.00855595
-0.00245268
-0.00266378
-0.00306205
-0.00333612
-0.00351167
-0.00374368
-0.0041133
-0.00447705
-0.00478578
-0.00511617
-0.00552707
-0.00597723
-0.00638219
-0.00671384
-0.00699596
-0.00729518
-0.00765427
-0.00804788
-0.00839142
-0.00859291
-0.00257204
-0.00277308
-0.0031641
-0.00345717
-0.0036575
-0.00388922
-0.00424993
-0.00462155
-0.0049382
-0.0052443
-0.00562317
-0.00606777
-0.00648701
-0.00683598
-0.00712795
-0.00741864
-0.00774462
-0.0081015
-0.0084254
-0.00862538
-0.00269332
-0.00288726
-0.00327139
-0.0035776
-0.00380128
-0.00403572
-0.00438535
-0.00475946
-0.00508803
-0.00538181
-0.00572806
-0.00615438
-0.00658112
-0.00694637
-0.00724808
-0.00753971
-0.00784361
-0.00816366
-0.0084637
-0.00865567
-0.00281655
-0.00300558
-0.00338373
-0.00369773
-0.00394235
-0.00418241
-0.00452114
-0.00489257
-0.00523071
-0.00552213
-0.00584409
-0.00624285
-0.00666459
-0.00704632
-0.00735715
-0.0076506
-0.00794541
-0.00823399
-0.00850811
-0.00868829
-0.00294169
-0.00312714
-0.00350087
-0.00381827
-0.00407987
-0.00432799
-0.00465763
-0.0050228
-0.00536641
-0.00565786
-0.00596545
-0.00633914
-0.0067417
-0.00713376
-0.00745826
-0.00775091
-0.00804372
-0.00831056
-0.008557
-0.00872418
-0.00306867
-0.0032511
-0.00362189
-0.00393986
-0.00421421
-0.00447133
-0.00479393
-0.00515092
-0.00549623
-0.00578798
-0.00608584
-0.00644159
-0.0068193
-0.00720668
-0.00754755
-0.00784199
-0.00813433
-0.00839275
-0.00861416
-0.00876668
-0.00319749
-0.00337701
-0.00374571
-0.0040627
-0.00434523
-0.00461182
-0.00493016
-0.00527673
-0.00561891
-0.00591278
-0.00620314
-0.00654485
-0.00690209
-0.00727097
-0.00762004
-0.00791988
-0.00820921
-0.0084676
-0.0086727
-0.00881338
-0.00332774
-0.00350397
-0.0038714
-0.00418748
-0.00447322
-0.00474707
-0.00506547
-0.00540277
-0.00573476
-0.00602873
-0.00631498
-0.00664436
-0.00698794
-0.00733724
-0.00768196
-0.00798707
-0.00827269
-0.00853113
-0.00872485
-0.00884852
-0.00345929
-0.00363211
-0.00399727
-0.00431318
-0.00459996
-0.00487729
-0.00519615
-0.005529
-0.00584897
-0.00613656
-0.00641715
-0.00673464
-0.00706445
-0.00739855
-0.00773711
-0.00804352
-0.00832765
-0.0085926
-0.00878965
-0.00889933
-0.00359099
-0.00376086
-0.00412334
-0.00443813
-0.00472427
-0.00500417
-0.00532248
-0.0056503
-0.00596389
-0.00624366
-0.00651265
-0.00681968
-0.00713053
-0.00743839
-0.00776895
-0.00807461
-0.00835325
-0.00862495
-0.00884238
-0.00896628
-0.00372267
-0.00388979
-0.00424891
-0.00456208
-0.0048454
-0.00512542
-0.00544514
-0.00576638
-0.00607309
-0.00635273
-0.00660675
-0.00690139
-0.0072012
-0.00747242
-0.00778005
-0.00808056
-0.00834079
-0.00859015
-0.00880833
-0.00895379
-0.00385431
-0.00401916
-0.00437304
-0.00468328
-0.0049636
-0.00524114
-0.00556276
-0.00588093
-0.00617527
-0.00645237
-0.00669547
-0.00696907
-0.00727127
-0.00752135
-0.00779537
-0.00810172
-0.00836196
-0.00858977
-0.00876831
-0.00887592
-0.00398365
-0.0041473
-0.00449661
-0.00480122
-0.00507664
-0.00535034
-0.00567495
-0.00599828
-0.0062819
-0.0065371
-0.00675381
-0.00696705
-0.00722734
-0.00746567
-0.00769612
-0.00799395
-0.00830642
-0.00861851
-0.00890749
-0.00912024
-0.00411252
-0.00427297
-0.00461644
-0.00491401
-0.00517834
-0.00544622
-0.00578449
-0.00614567
-0.00648657
-0.00677677
-0.00698518
-0.00713308
-0.00729141
-0.00746575
-0.00760804
-0.00774381
-0.00783591
-0.00786092
-0.00786316
-0.00788471
-0.00424898
-0.00439886
-0.00472344
-0.00500472
-0.00525582
-0.00550909
-0.00582982
-0.00615529
-0.00644126
-0.00668384
-0.00687277
-0.00706021
-0.00727065
-0.00749189
-0.0077088
-0.00798271
-0.00831946
-0.0086462
-0.00894205
-0.00918102
-0.00439655
-0.00455642
-0.00483931
-0.0050661
-0.0052795
-0.00552893
-0.00586588
-0.00620903
-0.00651693
-0.00679522
-0.00702196
-0.00720931
-0.00739804
-0.00756839
-0.00767311
-0.00770499
-0.00772201
-0.00774121
-0.00776993
-0.00784427
-0.00450292
-0.00466775
-0.00494217
-0.00515288
-0.0053534
-0.0055912
-0.00592532
-0.00628442
-0.00660029
-0.0068643
-0.0070755
-0.00723509
-0.00739244
-0.00757261
-0.00772723
-0.00785168
-0.00797362
-0.00810602
-0.00824021
-0.00839092
-0.000570057
-0.00347492
-0.0112482
-0.0169963
-0.0181159
-0.0166556
-0.0147394
-0.0132855
-0.0124119
-0.0118892
-0.0117078
-0.0118774
-0.0120066
-0.0117424
-0.0114665
-0.0115365
-0.0116946
-0.0120268
-0.012662
-0.0131879
-0.0134837
-0.0136346
-0.0133647
-0.0126315
-0.0120003
-0.0117571
-0.0118027
-0.011972
-0.0120111
-0.0119607
-0.0119541
-0.0119326
-0.0121002
-0.0126958
-0.0133394
-0.013545
-0.0134198
-0.0133406
-0.0133725
-0.0133904
-0.0133941
-0.0134766
-0.0136373
-0.013906
-0.0141882
-0.0142284
-0.0140773
-0.0140205
-0.014085
-0.0141771
-0.0142857
-0.0144069
-0.0145355
-0.0146413
-0.0147321
-0.0148157
-0.0148996
-0.0149973
-0.0150943
-0.0151675
-0.0152534
-0.015371
-0.0154894
-0.015577
-0.0156765
-0.0157774
-0.0158559
-0.0159522
-0.0160499
-0.0160937
-0.0161624
-0.0163265
-0.0165116
-0.0166248
-0.0167192
-0.0168081
-0.0168898
-0.0170112
-0.0171669
-0.01727
-0.0174339
-0.0176047
-0.0177463
-0.0178679
-0.01798
-0.0181424
-0.0182738
-0.0184437
-0.0185427
-0.0187034
-0.0188493
-0.0190461
-0.0191958
-0.0192882
-0.0194274
-0.019463
-0.0195769
-0.0196599
-0.0193897
-0.0191545
-0.00104131
-0.00356542
-0.0111365
-0.0168741
-0.0180461
-0.0166206
-0.0147191
-0.013271
-0.0123995
-0.0118768
-0.0116955
-0.0118673
-0.0119997
-0.0117368
-0.0114611
-0.0115318
-0.0116901
-0.0120221
-0.0126584
-0.013185
-0.0134809
-0.0136323
-0.0133629
-0.0126291
-0.0119975
-0.0117543
-0.0118001
-0.0119698
-0.0120092
-0.0119588
-0.0119524
-0.0119308
-0.0120981
-0.012694
-0.0133384
-0.0135443
-0.0134188
-0.0133395
-0.0133715
-0.0133896
-0.0133933
-0.0134758
-0.0136364
-0.0139052
-0.0141876
-0.014228
-0.0140768
-0.01402
-0.0140845
-0.0141766
-0.0142852
-0.0144065
-0.0145351
-0.0146409
-0.0147318
-0.0148153
-0.0148992
-0.014997
-0.0150939
-0.0151672
-0.0152531
-0.0153707
-0.0154891
-0.0155768
-0.0156763
-0.0157772
-0.0158556
-0.015952
-0.0160497
-0.0160935
-0.0161621
-0.0163262
-0.0165114
-0.0166246
-0.016719
-0.016808
-0.0168896
-0.0170111
-0.0171667
-0.0172699
-0.0174337
-0.0176046
-0.0177462
-0.0178677
-0.0179799
-0.0181423
-0.0182737
-0.0184436
-0.0185426
-0.0187033
-0.0188492
-0.019046
-0.0191957
-0.0192881
-0.0194273
-0.0194629
-0.0195768
-0.0196598
-0.0193895
-0.0191541
-0.00149874
-0.00359111
-0.0108664
-0.0166188
-0.0179191
-0.016565
-0.0146922
-0.013257
-0.0123917
-0.0118711
-0.0116883
-0.0118577
-0.0119896
-0.0117283
-0.0114549
-0.0115274
-0.0116858
-0.0120176
-0.0126552
-0.013183
-0.0134793
-0.0136311
-0.0133618
-0.012627
-0.0119947
-0.0117518
-0.011798
-0.0119682
-0.0120076
-0.0119571
-0.011951
-0.0119292
-0.0120958
-0.0126924
-0.013338
-0.013544
-0.0134179
-0.0133384
-0.0133707
-0.0133889
-0.0133925
-0.013475
-0.0136357
-0.0139046
-0.0141874
-0.0142279
-0.0140763
-0.0140194
-0.0140841
-0.0141763
-0.0142848
-0.0144061
-0.0145348
-0.0146406
-0.0147315
-0.014815
-0.0148989
-0.0149968
-0.0150937
-0.015167
-0.0152529
-0.0153705
-0.0154889
-0.0155766
-0.0156761
-0.015777
-0.0158554
-0.0159518
-0.0160495
-0.0160934
-0.0161619
-0.0163261
-0.0165113
-0.0166245
-0.0167189
-0.0168078
-0.0168895
-0.0170109
-0.0171666
-0.0172698
-0.0174336
-0.0176045
-0.0177461
-0.0178676
-0.0179798
-0.0181422
-0.0182736
-0.0184435
-0.0185425
-0.0187032
-0.0188491
-0.0190459
-0.0191956
-0.019288
-0.0194273
-0.0194629
-0.0195767
-0.0196597
-0.0193894
-0.0191537
-0.00192524
-0.00361795
-0.0105486
-0.0162989
-0.017746
-0.016483
-0.0146497
-0.0132352
-0.0123819
-0.0118673
-0.0116839
-0.011847
-0.0119742
-0.0117148
-0.0114466
-0.0115224
-0.0116804
-0.0120117
-0.0126507
-0.0131805
-0.013478
-0.0136301
-0.0133603
-0.0126243
-0.0119917
-0.0117495
-0.0117962
-0.0119666
-0.0120058
-0.0119552
-0.0119496
-0.0119273
-0.012093
-0.0126905
-0.0133378
-0.0135437
-0.0134168
-0.0133371
-0.0133698
-0.0133881
-0.0133916
-0.0134741
-0.0136348
-0.0139039
-0.0141872
-0.0142277
-0.0140757
-0.0140187
-0.0140835
-0.0141758
-0.0142844
-0.0144057
-0.0145345
-0.0146403
-0.0147312
-0.0148147
-0.0148987
-0.0149965
-0.0150935
-0.0151668
-0.0152526
-0.0153703
-0.0154887
-0.0155764
-0.0156759
-0.0157768
-0.0158552
-0.0159516
-0.0160494
-0.0160932
-0.0161617
-0.0163259
-0.0165111
-0.0166244
-0.0167187
-0.0168077
-0.0168893
-0.0170107
-0.0171665
-0.0172696
-0.0174335
-0.0176044
-0.017746
-0.0178675
-0.0179797
-0.0181421
-0.0182735
-0.0184434
-0.0185424
-0.0187031
-0.018849
-0.0190458
-0.0191956
-0.019288
-0.0194272
-0.0194628
-0.0195766
-0.0196598
-0.0193895
-0.0191532
-0.00236182
-0.00369104
-0.0102195
-0.0159447
-0.017547
-0.0163845
-0.014596
-0.0132068
-0.0123689
-0.0118639
-0.0116814
-0.0118351
-0.011953
-0.0116959
-0.0114364
-0.0115167
-0.0116742
-0.0120044
-0.0126446
-0.0131775
-0.0134771
-0.0136285
-0.0133572
-0.0126202
-0.0119881
-0.0117473
-0.0117949
-0.0119653
-0.012004
-0.0119534
-0.0119482
-0.0119251
-0.0120895
-0.012688
-0.0133372
-0.0135432
-0.0134152
-0.0133355
-0.0133686
-0.013387
-0.0133905
-0.013473
-0.0136337
-0.0139031
-0.014187
-0.0142275
-0.014075
-0.0140179
-0.0140829
-0.0141753
-0.014284
-0.0144053
-0.0145341
-0.01464
-0.0147308
-0.0148144
-0.0148983
-0.0149962
-0.0150932
-0.0151665
-0.0152523
-0.01537
-0.0154884
-0.0155761
-0.0156756
-0.0157766
-0.015855
-0.0159514
-0.0160492
-0.016093
-0.0161614
-0.0163256
-0.016511
-0.0166242
-0.0167185
-0.0168076
-0.0168891
-0.0170106
-0.0171663
-0.0172695
-0.0174333
-0.0176043
-0.0177459
-0.0178674
-0.0179795
-0.018142
-0.0182734
-0.0184433
-0.0185423
-0.018703
-0.0188489
-0.0190457
-0.0191955
-0.0192879
-0.0194271
-0.0194627
-0.0195766
-0.0196598
-0.0193896
-0.0191525
-0.00281745
-0.00380592
-0.00987808
-0.0155591
-0.0173294
-0.016278
-0.0145377
-0.0131752
-0.0123539
-0.0118598
-0.0116792
-0.0118218
-0.0119282
-0.0116744
-0.0114258
-0.0115111
-0.0116676
-0.0119961
-0.0126372
-0.0131744
-0.0134771
-0.0136263
-0.013352
-0.0126141
-0.0119832
-0.0117448
-0.0117935
-0.0119637
-0.0120021
-0.0119522
-0.0119477
-0.0119232
-0.0120854
-0.0126847
-0.0133362
-0.0135422
-0.0134131
-0.0133332
-0.0133668
-0.0133855
-0.013389
-0.0134715
-0.0136324
-0.0139021
-0.0141866
-0.0142271
-0.0140741
-0.0140169
-0.0140822
-0.0141746
-0.0142834
-0.0144047
-0.0145336
-0.0146396
-0.0147303
-0.0148139
-0.0148979
-0.0149958
-0.0150928
-0.0151661
-0.015252
-0.0153697
-0.0154882
-0.0155759
-0.0156754
-0.0157764
-0.0158548
-0.0159511
-0.016049
-0.0160928
-0.0161611
-0.0163254
-0.0165109
-0.0166241
-0.0167184
-0.0168074
-0.0168889
-0.0170103
-0.0171662
-0.0172693
-0.0174332
-0.0176042
-0.0177457
-0.0178673
-0.0179794
-0.0181419
-0.0182733
-0.0184433
-0.0185422
-0.0187029
-0.0188488
-0.0190456
-0.0191954
-0.0192878
-0.0194271
-0.0194627
-0.0195765
-0.01966
-0.0193899
-0.0191516
-0.00327271
-0.00394972
-0.00952199
-0.0151477
-0.017099
-0.0161688
-0.0144785
-0.0131423
-0.0123374
-0.0118545
-0.0116761
-0.0118075
-0.0119022
-0.0116528
-0.0114164
-0.0115063
-0.011661
-0.0119874
-0.0126293
-0.0131723
-0.0134792
-0.0136245
-0.013345
-0.0126057
-0.0119764
-0.0117412
-0.0117915
-0.0119611
-0.0119995
-0.0119516
-0.0119488
-0.0119225
-0.0120814
-0.0126809
-0.0133346
-0.0135407
-0.0134102
-0.0133301
-0.0133644
-0.0133834
-0.0133869
-0.0134696
-0.0136307
-0.0139009
-0.0141859
-0.0142264
-0.0140729
-0.0140158
-0.0140812
-0.0141738
-0.0142826
-0.014404
-0.014533
-0.0146391
-0.0147298
-0.0148134
-0.0148974
-0.0149954
-0.0150924
-0.0151657
-0.0152516
-0.0153694
-0.0154879
-0.0155756
-0.0156751
-0.0157762
-0.0158545
-0.0159509
-0.0160488
-0.0160926
-0.0161608
-0.0163251
-0.0165107
-0.0166239
-0.0167182
-0.0168072
-0.0168887
-0.0170101
-0.017166
-0.0172691
-0.017433
-0.0176041
-0.0177456
-0.0178672
-0.0179792
-0.0181417
-0.0182731
-0.0184431
-0.0185421
-0.0187027
-0.0188487
-0.0190456
-0.0191954
-0.0192877
-0.019427
-0.0194626
-0.0195766
-0.0196602
-0.0193904
-0.0191506
-0.00371044
-0.00412227
-0.00916551
-0.0147188
-0.0168584
-0.0160576
-0.0144184
-0.0131081
-0.012319
-0.0118473
-0.011672
-0.011793
-0.0118764
-0.011632
-0.0114084
-0.0115025
-0.0116545
-0.0119785
-0.0126215
-0.0131717
-0.013484
-0.0136243
-0.0133376
-0.0125954
-0.0119677
-0.0117364
-0.0117885
-0.0119569
-0.0119951
-0.0119507
-0.0119516
-0.011924
-0.0120784
-0.012677
-0.0133326
-0.0135386
-0.0134068
-0.0133263
-0.013361
-0.0133804
-0.0133842
-0.0134671
-0.0136287
-0.0138994
-0.0141849
-0.0142253
-0.0140715
-0.0140144
-0.01408
-0.0141727
-0.0142816
-0.0144031
-0.0145322
-0.0146383
-0.014729
-0.0148127
-0.0148969
-0.0149948
-0.0150918
-0.0151652
-0.0152512
-0.015369
-0.0154875
-0.0155753
-0.0156749
-0.0157759
-0.0158542
-0.0159505
-0.0160486
-0.0160924
-0.0161605
-0.0163248
-0.0165106
-0.0166236
-0.016718
-0.0168071
-0.0168885
-0.0170098
-0.0171658
-0.0172689
-0.0174328
-0.0176039
-0.0177454
-0.017867
-0.017979
-0.0181416
-0.018273
-0.018443
-0.0185419
-0.0187026
-0.0188486
-0.0190455
-0.0191953
-0.0192876
-0.019427
-0.0194625
-0.0195766
-0.0196606
-0.0193911
-0.0191494
-0.00412289
-0.00433193
-0.00882153
-0.0142749
-0.0166033
-0.0159414
-0.0143561
-0.0130719
-0.0122986
-0.0118384
-0.0116672
-0.0117788
-0.0118512
-0.0116122
-0.0114017
-0.0114995
-0.0116481
-0.0119694
-0.0126141
-0.0131726
-0.0134917
-0.0136267
-0.0133312
-0.0125844
-0.0119572
-0.0117304
-0.011785
-0.0119516
-0.0119891
-0.0119489
-0.0119557
-0.0119282
-0.0120774
-0.0126741
-0.013331
-0.0135364
-0.0134029
-0.013322
-0.013357
-0.0133767
-0.0133806
-0.0134639
-0.0136261
-0.0138975
-0.0141835
-0.014224
-0.01407
-0.0140128
-0.0140785
-0.0141714
-0.0142804
-0.0144018
-0.0145311
-0.0146373
-0.0147279
-0.0148118
-0.0148961
-0.0149941
-0.015091
-0.0151645
-0.0152506
-0.0153684
-0.015487
-0.0155749
-0.0156746
-0.0157757
-0.0158539
-0.0159502
-0.0160483
-0.0160921
-0.0161601
-0.0163245
-0.0165104
-0.0166234
-0.0167177
-0.0168069
-0.0168883
-0.0170095
-0.0171655
-0.0172687
-0.0174326
-0.0176038
-0.0177452
-0.0178668
-0.0179788
-0.0181414
-0.0182728
-0.0184429
-0.0185418
-0.0187025
-0.0188485
-0.0190454
-0.0191952
-0.0192875
-0.019427
-0.0194625
-0.0195767
-0.0196612
-0.0193921
-0.0191482
-0.00450625
-0.00457938
-0.00849603
-0.013815
-0.016329
-0.0158188
-0.0142917
-0.0130341
-0.0122765
-0.0118279