/*--------------------------------*- C++ -*----------------------------------*\
| =========                 |                                                 |
| \\      /  F ield         | OpenFOAM: The Open Source CFD Toolbox           |
|  \\    /   O peration     | Version:  v1912                                 |
|   \\  /    A nd           | Website:  www.openfoam.com                      |
|    \\/     M anipulation  |                                                 |
\*---------------------------------------------------------------------------*/
FoamFile
{
    version     2.0;
    format      ascii;
    class       surfaceScalarField;
    location    "7.85";
    object      phi;
}
// * * * * * * * * * * * * * * * * * * * * * * * * * * * * * * * * * * * * * //

dimensions      [0 3 -1 0 0 0 0];
oriented        oriented;


internalField   nonuniform List<scalar> 
19000
(
1.16504e-06
4.35978e-07
1.14156e-06
-1.34751e-06
1.17701e-06
9.24869e-07
1.1369e-06
-8.41397e-07
1.18979e-06
1.56395e-06
1.11003e-06
-1.91961e-07
1.11429e-06
-4.13216e-07
1.18204e-06
4.94011e-07
1.13777e-06
-1.36958e-06
1.17814e-06
-5.21286e-07
1.19547e-06
-1.0586e-07
1.17511e-06
-2.61166e-07
1.2085e-06
1.5036e-06
1.17074e-06
3.53244e-07
1.22555e-06
1.29634e-06
1.17989e-06
3.88814e-07
1.19932e-06
7.65216e-07
1.15029e-06
2.78131e-07
1.14867e-06
4.57326e-07
2.58788e-07
1.10542e-06
1.2203e-06
4.3994e-07
1.19715e-06
-1.32436e-06
1.23068e-06
8.91345e-07
1.19395e-06
-8.04669e-07
1.239e-06
1.5189e-06
1.16595e-06
-1.1891e-07
1.1658e-06
-4.13062e-07
1.23828e-06
4.21529e-07
1.20064e-06
-1.33194e-06
1.23883e-06
-5.59478e-07
1.25787e-06
-1.24895e-07
1.23082e-06
-2.34123e-07
1.25769e-06
1.47674e-06
1.23472e-06
3.76212e-07
1.26749e-06
1.26356e-06
1.24917e-06
4.0714e-07
1.23823e-06
7.76156e-07
1.22283e-06
2.93532e-07
1.18485e-06
4.95308e-07
2.49047e-07
1.19459e-06
1.27838e-06
4.44343e-07
1.25528e-06
-1.30126e-06
1.28863e-06
8.57991e-07
1.2553e-06
-7.71336e-07
1.29083e-06
1.48337e-06
1.23185e-06
-5.99217e-08
1.22004e-06
-4.01255e-07
1.28864e-06
3.52923e-07
1.26247e-06
-1.30576e-06
1.29817e-06
-5.95181e-07
1.3194e-06
-1.46119e-07
1.29604e-06
-2.10769e-07
1.31678e-06
1.456e-06
1.3027e-06
3.90288e-07
1.32494e-06
1.24132e-06
1.31952e-06
4.12563e-07
1.30455e-06
7.91123e-07
1.29388e-06
3.042e-07
1.2697e-06
5.19497e-07
2.59374e-07
1.25937e-06
1.33925e-06
4.49198e-07
1.31722e-06
-1.27923e-06
1.35047e-06
8.24735e-07
1.32247e-06
-7.43336e-07
1.34699e-06
1.45885e-06
1.30497e-06
-1.79006e-08
1.2795e-06
-3.75787e-07
1.33722e-06
2.95202e-07
1.32317e-06
-1.29171e-06
1.35327e-06
-6.25285e-07
1.37674e-06
-1.69589e-07
1.36382e-06
-1.97844e-07
1.3847e-06
1.43512e-06
1.37639e-06
3.98599e-07
1.39323e-06
1.22448e-06
1.38871e-06
4.17084e-07
1.37989e-06
7.99951e-07
1.3644e-06
3.19685e-07
1.35399e-06
5.29913e-07
2.78963e-07
1.3344e-06
1.40308e-06
4.54477e-07
1.38298e-06
-1.25913e-06
1.41608e-06
7.91633e-07
1.39376e-06
-7.21019e-07
1.40852e-06
1.44409e-06
1.38155e-06
9.07056e-09
1.34602e-06
-3.40258e-07
1.38809e-06
2.53132e-07
1.38258e-06
-1.28619e-06
1.40548e-06
-6.48183e-07
1.42976e-06
-1.93879e-07
1.42958e-06
-1.97659e-07
1.45577e-06
1.40892e-06
1.44912e-06
4.0525e-07
1.46365e-06
1.20995e-06
1.45496e-06
4.25774e-07
1.45184e-06
8.0307e-07
1.43347e-06
3.38055e-07
1.43003e-06
5.33349e-07
2.99818e-07
1.40918e-06
1.47003e-06
4.60121e-07
1.45231e-06
-1.24141e-06
1.48476e-06
7.59182e-07
1.46685e-06
-7.03114e-07
1.47522e-06
1.43572e-06
1.45922e-06
2.50711e-08
1.42021e-06
-3.01248e-07
1.44602e-06
2.27329e-07
1.44242e-06
-1.28259e-06
1.45924e-06
-6.65008e-07
1.48324e-06
-2.17873e-07
1.49175e-06
-2.06174e-07
1.52389e-06
1.37679e-06
1.51735e-06
4.11782e-07
1.53142e-06
1.19589e-06
1.5199e-06
4.37293e-07
1.52123e-06
8.01741e-07
1.50273e-06
3.56551e-07
1.50447e-06
5.31614e-07
3.19906e-07
1.48438e-06
1.54026e-06
4.66075e-07
1.5249e-06
-1.22604e-06
1.55573e-06
7.28352e-07
1.54024e-06
-6.87629e-07
1.54607e-06
1.4299e-06
1.53748e-06
3.36573e-08
1.50143e-06
-2.65197e-07
1.51339e-06
2.15369e-07
1.50471e-06
-1.27392e-06
1.5175e-06
-6.7779e-07
1.54167e-06
-2.42047e-07
1.55269e-06
-2.17198e-07
1.58857e-06
1.34091e-06
1.58324e-06
4.17116e-07
1.59897e-06
1.18015e-06
1.5876e-06
4.48662e-07
1.59344e-06
7.95906e-07
1.57565e-06
3.74335e-07
1.58203e-06
5.25239e-07
3.392e-07
1.56274e-06
1.61393e-06
4.72278e-07
1.60069e-06
-1.21281e-06
1.62868e-06
7.00364e-07
1.61409e-06
-6.73042e-07
1.62036e-06
1.42363e-06
1.61677e-06
3.72409e-08
1.5885e-06
-2.36929e-07
1.59033e-06
2.13548e-07
1.5714e-06
-1.25499e-06
1.58067e-06
-6.87061e-07
1.60612e-06
-2.67492e-07
1.61652e-06
-2.27601e-07
1.65456e-06
1.30287e-06
1.65231e-06
4.19367e-07
1.67135e-06
1.16111e-06
1.66144e-06
4.58569e-07
1.67163e-06
7.85718e-07
1.65377e-06
3.92197e-07
1.66365e-06
5.1536e-07
3.5801e-07
1.64484e-06
1.69124e-06
4.78617e-07
1.67985e-06
-1.20142e-06
1.70392e-06
6.76293e-07
1.68983e-06
-6.58948e-07
1.69828e-06
1.41518e-06
1.69766e-06
3.78573e-08
1.68012e-06
-2.19384e-07
1.67569e-06
2.17976e-07
1.64419e-06
-1.22349e-06
1.64868e-06
-6.91554e-07
1.67532e-06
-2.94131e-07
1.68633e-06
-2.38616e-07
1.72724e-06
1.26197e-06
1.72914e-06
4.17467e-07
1.7518e-06
1.13845e-06
1.74225e-06
4.68112e-07
1.75577e-06
7.72198e-07
1.73648e-06
4.11491e-07
1.74833e-06
5.03511e-07
3.76367e-07
1.72997e-06
1.77244e-06
4.84897e-07
1.76258e-06
-1.19156e-06
1.7822e-06
6.56672e-07
1.76912e-06
-6.45863e-07
1.78053e-06
1.40376e-06
1.78064e-06
3.77476e-08
1.77471e-06
-2.13451e-07
1.76764e-06
2.25041e-07
1.72426e-06
-1.18011e-06
1.72233e-06
-6.89622e-07
1.74809e-06
-3.19887e-07
1.76286e-06
-2.53394e-07
1.80873e-06
1.2161e-06
1.8145e-06
4.11698e-07
1.84012e-06
1.11283e-06
1.82855e-06
4.79682e-07
1.84398e-06
7.56771e-07
1.82242e-06
4.33052e-07
1.83484e-06
4.91093e-07
3.93932e-07
1.81727e-06
1.85781e-06
4.9084e-07
1.84899e-06
-1.18275e-06
1.86436e-06
6.41305e-07
1.85303e-06
-6.34532e-07
1.86766e-06
1.38913e-06
1.8663e-06
3.91064e-08
1.87065e-06
-2.17801e-07
1.86394e-06
2.31751e-07
1.81186e-06
-1.12803e-06
1.80299e-06
-6.80746e-07
1.82449e-06
-3.41388e-07
1.84478e-06
-2.7368e-07
1.89719e-06
1.16369e-06
1.90554e-06
4.03347e-07
1.93333e-06
1.08504e-06
1.91772e-06
4.95293e-07
1.93395e-06
7.40545e-07
1.9104e-06
4.56597e-07
1.9225e-06
4.7899e-07
4.10105e-07
1.90633e-06
1.94757e-06
4.96107e-07
1.93914e-06
-1.17431e-06
1.95105e-06
6.29397e-07
1.94182e-06
-6.25307e-07
1.95979e-06
1.37116e-06
1.95548e-06
4.34207e-08
1.96696e-06
-2.29283e-07
1.96255e-06
2.36165e-07
1.90611e-06
-1.07159e-06
1.89149e-06
-6.66135e-07
1.90582e-06
-3.5571e-07
1.93004e-06
-2.97899e-07
1.98845e-06
1.10527e-06
1.9978e-06
3.94001e-07
2.02751e-06
1.05533e-06
2.00745e-06
5.15359e-07
2.02412e-06
7.23875e-07
1.99992e-06
4.80798e-07
2.01139e-06
4.67513e-07
4.24149e-07
1.99735e-06
2.04198e-06
5.00318e-07
2.03318e-06
-1.16552e-06
2.04267e-06
6.19914e-07
2.03528e-06
-6.17917e-07
2.05672e-06
1.34972e-06
2.04908e-06
5.10554e-08
2.06382e-06
-2.44023e-07
2.06236e-06
2.37624e-07
2.00542e-06
-1.01465e-06
1.98753e-06
-6.4825e-07
1.99388e-06
-3.62057e-07
2.01769e-06
-3.21706e-07
2.07916e-06
1.0438e-06
2.0882e-06
3.84966e-07
2.12025e-06
1.02327e-06
2.09711e-06
5.38505e-07
2.1145e-06
7.0648e-07
2.09137e-06
5.03927e-07
2.10211e-06
4.56774e-07
4.35313e-07
2.09095e-06
2.14124e-06
5.03079e-07
2.13142e-06
-1.1557e-06
2.13941e-06
6.11928e-07
2.13305e-06
-6.11557e-07
2.15802e-06
1.32475e-06
2.14775e-06
6.13229e-08
2.1624e-06
-2.58668e-07
2.16353e-06
2.36496e-07
2.10849e-06
-9.59607e-07
2.08986e-06
-6.29624e-07
2.08984e-06
-3.6204e-07
2.10872e-06
-3.40587e-07
2.16928e-06
9.83234e-07
2.17713e-06
3.77121e-07
2.21215e-06
9.88254e-07
2.18818e-06
5.62475e-07
2.20664e-06
6.88019e-07
2.18587e-06
5.24694e-07
2.19543e-06
4.47216e-07
4.42985e-07
2.18776e-06
2.24552e-06
5.04047e-07
2.23415e-06
-1.14433e-06
2.24133e-06
6.04753e-07
2.23486e-06
-6.05087e-07
2.26321e-06
1.29639e-06
2.25168e-06
7.28537e-08
2.26406e-06
-2.71047e-07
2.267e-06
2.33556e-07
2.21494e-06
-9.07547e-07
2.19702e-06
-6.11703e-07
2.19324e-06
-3.58256e-07
2.2051e-06
-3.52452e-07
2.26185e-06
9.26489e-07
2.26783e-06
3.71144e-07
2.30597e-06
9.50113e-07
2.28305e-06
5.85392e-07
2.30242e-06
6.68645e-07
2.2845e-06
5.42616e-07
2.29188e-06
4.39836e-07
4.46712e-07
2.28815e-06
2.3549e-06
5.03019e-07
2.34162e-06
-1.13105e-06
2.34849e-06
5.97884e-07
2.34065e-06
-5.97246e-07
2.37193e-06
1.26511e-06
2.36074e-06
8.40461e-08
2.36984e-06
-2.80154e-07
2.37394e-06
2.29458e-07
2.32531e-06
-8.58911e-07
2.30812e-06
-5.94515e-07
2.30231e-06
-3.52451e-07
2.30786e-06
-3.57999e-07
2.35997e-06
8.74383e-07
2.36339e-06
3.67724e-07
2.40405e-06
9.09453e-07
2.38309e-06
6.06345e-07
2.40274e-06
6.48995e-07
2.38769e-06
5.57672e-07
2.39183e-06
4.3569e-07
4.46271e-07
2.39227e-06
2.4694e-06
5.0001e-07
2.454e-06
-1.11565e-06
2.46098e-06
5.90902e-07
2.45064e-06
-5.86899e-07
2.48417e-06
1.23158e-06
2.47472e-06
9.34936e-08
2.48041e-06
-2.85844e-07
2.48526e-06
2.24604e-07
2.44033e-06
-8.13975e-07
2.42305e-06
-5.77236e-07
2.41544e-06
-3.44847e-07
2.41636e-06
-3.58919e-07
2.4644e-06
8.26346e-07
2.46463e-06
3.67492e-07
2.50666e-06
8.67422e-07
2.48796e-06
6.25049e-07
2.50727e-06
6.29683e-07
2.49532e-06
5.6962e-07
2.49608e-06
4.3493e-07
4.41977e-07
2.50038e-06
2.58905e-06
4.95253e-07
2.57153e-06
-1.09812e-06
2.57899e-06
5.83443e-07
2.56537e-06
-5.73284e-07
2.60042e-06
1.19653e-06
2.59358e-06
1.00336e-07
2.59632e-06
-2.88592e-07
2.60165e-06
2.19278e-07
2.56047e-06
-7.728e-07
2.54228e-06
-5.59046e-07
2.53229e-06
-3.34856e-07
2.52947e-06
-3.56093e-07
2.57407e-06
7.81742e-07
2.57079e-06
3.70777e-07
2.61296e-06
8.25242e-07
2.59678e-06
6.4123e-07
2.61554e-06
6.10928e-07
2.60747e-06
5.77688e-07
2.60555e-06
4.36853e-07
4.34455e-07
2.61307e-06
2.71397e-06
4.89112e-07
2.69453e-06
-1.07868e-06
2.70274e-06
5.75224e-07
2.68558e-06
-5.56118e-07
2.72155e-06
1.16056e-06
2.71748e-06
1.0441e-07
2.71817e-06
-2.89287e-07
2.72372e-06
2.13733e-07
2.68593e-06
-7.35017e-07
2.66646e-06
-5.39575e-07
2.6537e-06
-3.22088e-07
2.64697e-06
-3.49372e-07
2.68827e-06
7.40446e-07
2.68162e-06
3.77427e-07
2.72303e-06
7.8383e-07
2.70981e-06
6.54449e-07
2.72804e-06
5.927e-07
2.72482e-06
5.80913e-07
2.72127e-06
4.40401e-07
4.24517e-07
2.73121e-06
2.84441e-06
4.8197e-07
2.82337e-06
-1.05764e-06
2.83253e-06
5.66059e-07
2.81193e-06
-5.35518e-07
2.84845e-06
1.12405e-06
2.84673e-06
1.06127e-07
2.84642e-06
-2.88975e-07
2.85199e-06
2.08164e-07
2.81686e-06
-6.99883e-07
2.79615e-06
-5.18869e-07
2.78078e-06
-3.06719e-07
2.76988e-06
-3.38475e-07
2.80785e-06
7.02481e-07
2.79841e-06
3.86866e-07
2.83858e-06
7.43664e-07
2.82873e-06
6.64299e-07
2.84629e-06
5.75139e-07
2.84846e-06
5.78738e-07
2.84429e-06
4.44576e-07
4.13191e-07
2.85561e-06
2.98073e-06
4.7414e-07
2.95841e-06
-1.03532e-06
2.96863e-06
5.55838e-07
2.94492e-06
-5.11802e-07
2.98179e-06
1.08717e-06
2.98172e-06
1.06191e-07
2.98131e-06
-2.88564e-07
2.98684e-06
2.0264e-07
2.95355e-06
-6.66595e-07
2.93183e-06
-4.97155e-07
2.91434e-06
-2.89221e-07
2.89956e-06
-3.23694e-07
2.93452e-06
6.67516e-07
2.9231e-06
3.98286e-07
2.96187e-06
7.04889e-07
2.95558e-06
6.70595e-07
2.97192e-06
5.58793e-07
2.97936e-06
5.71301e-07
2.97532e-06
4.48622e-07
4.01644e-07
2.98686e-06
3.12331e-06
4.65838e-07
3.09997e-06
-1.01198e-06
3.11131e-06
5.44492e-07
3.08483e-06
-4.85323e-07
3.12199e-06
1.05002e-06
3.12285e-06
1.05333e-07
3.1229e-06
-2.88618e-07
3.12845e-06
1.97097e-07
3.09645e-06
-6.34599e-07
3.074e-06
-4.74703e-07
3.05475e-06
-2.69969e-07
3.03688e-06
-3.05833e-07
3.06962e-06
6.34776e-07
3.05702e-06
4.10887e-07
3.09441e-06
6.67503e-07
3.09164e-06
6.73361e-07
3.10605e-06
5.4439e-07
3.11795e-06
5.59403e-07
3.11458e-06
4.51983e-07
3.90977e-07
3.12525e-06
3.27255e-06
4.57196e-07
3.24832e-06
-9.87744e-07
3.26083e-06
5.31973e-07
3.23192e-06
-4.56412e-07
3.26936e-06
1.01258e-06
3.2705e-06
1.04193e-07
3.27121e-06
-2.89322e-07
3.27691e-06
1.91392e-07
3.24602e-06
-6.03701e-07
3.22312e-06
-4.51807e-07
3.20224e-06
-2.49094e-07
3.18215e-06
-2.85743e-07
3.21357e-06
6.03358e-07
3.20049e-06
4.2397e-07
3.23645e-06
6.3154e-07
3.23715e-06
6.72665e-07
3.24902e-06
5.32518e-07
3.26422e-06
5.44198e-07
3.26202e-06
4.54192e-07
3.82027e-07
3.27097e-06
3.42884e-06
4.48292e-07
3.40375e-06
-9.62662e-07
3.41747e-06
5.18258e-07
3.38645e-06
-4.25392e-07
3.42424e-06
9.74789e-07
3.4251e-06
1.03328e-07
3.42633e-06
-2.90554e-07
3.43235e-06
1.85377e-07
3.40261e-06
-5.73966e-07
3.37961e-06
-4.28808e-07
3.3571e-06
-2.26579e-07
3.33535e-06
-2.6399e-07
3.36614e-06
5.72564e-07
3.35315e-06
4.36961e-07
3.38753e-06
5.97164e-07
3.39168e-06
6.68512e-07
3.40073e-06
5.23466e-07
3.41812e-06
5.26809e-07
3.41748e-06
4.54832e-07
3.75255e-07
3.42425e-06
3.59252e-06
4.39179e-07
3.56659e-06
-9.36731e-07
3.58149e-06
5.0336e-07
3.54873e-06
-3.92628e-07
3.587e-06
9.36512e-07
3.58708e-06
1.03255e-07
3.58854e-06
-2.92014e-07
3.59496e-06
1.78951e-07
3.56651e-06
-5.4551e-07
3.5438e-06
-4.06106e-07
3.51966e-06
-2.02434e-07
3.49647e-06
-2.40806e-07
3.527e-06
5.42037e-07
3.51455e-06
4.49414e-07
3.54704e-06
5.64668e-07
3.55473e-06
6.60824e-07
3.56102e-06
5.17177e-07
3.57954e-06
5.08288e-07
3.58093e-06
4.53439e-07
3.707e-07
3.58549e-06
3.76399e-06
4.29895e-07
3.73718e-06
-9.09923e-07
3.7532e-06
4.87342e-07
3.71912e-06
-3.58546e-07
3.75812e-06
8.97513e-07
3.7569e-06
1.04469e-07
3.75823e-06
-2.9334e-07
3.76507e-06
1.72103e-07
3.73788e-06
-5.18313e-07
3.71591e-06
-3.84139e-07
3.69028e-06
-1.76802e-07
3.66575e-06
-2.16271e-07
3.69603e-06
5.11753e-07
3.68447e-06
4.60969e-07
3.7147e-06
5.34438e-07
3.72604e-06
6.49489e-07
3.72994e-06
5.13278e-07
3.74858e-06
4.8965e-07
3.7525e-06
4.49514e-07
3.68024e-07
3.75518e-06
3.94361e-06
4.20474e-07
3.91589e-06
-8.82207e-07
3.93292e-06
4.70315e-07
3.89799e-06
-3.23618e-07
3.93802e-06
8.57484e-07
3.93507e-06
1.07419e-07
3.93592e-06
-2.94183e-07
3.94311e-06
1.6491e-07
3.9169e-06
-4.92102e-07
3.89608e-06
-3.63324e-07
3.8693e-06
-1.50024e-07
3.84351e-06
-1.90473e-07
3.8734e-06
4.81855e-07
3.86305e-06
4.71327e-07
3.89057e-06
5.06915e-07
3.90563e-06
6.34426e-07
3.90775e-06
5.11162e-07
3.92559e-06
4.71811e-07
3.93244e-06
4.42666e-07
3.66584e-07
3.93387e-06
4.13179e-06
4.10936e-07
4.10314e-06
-8.53555e-07
4.12103e-06
4.52418e-07
4.08573e-06
-2.88313e-07
4.12712e-06
8.16087e-07
4.1221e-06
1.12439e-07
4.12217e-06
-2.94253e-07
4.12958e-06
1.57507e-07
4.10378e-06
-4.6631e-07
4.08448e-06
-3.44016e-07
4.05704e-06
-1.22584e-07
4.03016e-06
-1.63596e-07
4.05951e-06
4.52509e-07
4.05065e-06
4.80186e-07
4.075e-06
4.82559e-07
4.09375e-06
6.15676e-07
4.09495e-06
5.09965e-07
4.11113e-06
4.55627e-07
4.12103e-06
4.32766e-07
3.65498e-07
4.12212e-06
4.32895e-06
4.01292e-07
4.29933e-06
-8.23938e-07
4.31795e-06
4.33796e-07
4.28268e-06
-2.53035e-07
4.32574e-06
7.73022e-07
4.31849e-06
1.19684e-07
4.31755e-06
-2.93305e-07
4.32503e-06
1.50022e-07
4.29888e-06
-4.40163e-07
4.28131e-06
-3.26443e-07
4.25377e-06
-9.50407e-08
4.22611e-06
-1.35942e-07
4.25481e-06
4.23811e-07
4.2478e-06
4.872e-07
4.26859e-06
4.61768e-07
4.29078e-06
5.93483e-07
4.29208e-06
5.08671e-07
4.30593e-06
4.41768e-07
4.3186e-06
4.20099e-07
3.63742e-07
4.32036e-06
4.53553e-06
3.91531e-07
4.50492e-06
-7.93328e-07
4.52416e-06
4.14562e-07
4.4892e-06
-2.18072e-07
4.53412e-06
7.28096e-07
4.52472e-06
1.29083e-07
4.52253e-06
-2.91116e-07
4.53007e-06
1.4249e-07
4.5027e-06
-4.12794e-07
4.48692e-06
-3.10668e-07
4.45986e-06
-6.79756e-08
4.43173e-06
-1.07818e-07
4.45978e-06
3.95762e-07
4.45504e-06
4.91946e-07
4.47204e-06
4.44765e-07
4.49715e-06
5.68373e-07
4.49957e-06
5.06246e-07
4.51079e-06
4.30552e-07
4.52541e-06
4.05476e-07
3.60286e-07
4.52887e-06
4.75202e-06
3.8163e-07
4.72038e-06
-7.61697e-07
4.74017e-06
3.94778e-07
4.70566e-06
-1.83563e-07
4.75247e-06
6.81282e-07
4.74124e-06
1.40321e-07
4.73757e-06
-2.87447e-07
4.74526e-06
1.34798e-07
4.71589e-06
-3.83421e-07
4.70177e-06
-2.96552e-07
4.67577e-06
-4.19738e-08
4.6474e-06
-7.94465e-08
4.67482e-06
3.6834e-07
4.67282e-06
4.93947e-07
4.68602e-06
4.31557e-07
4.71324e-06
5.41159e-07
4.71775e-06
5.01733e-07
4.72639e-06
4.21913e-07
4.74177e-06
3.901e-07
3.54317e-07
4.74774e-06
4.97888e-06
3.71551e-07
4.9462e-06
-7.29016e-07
4.96654e-06
3.74438e-07
4.93248e-06
-1.4951e-07
4.98101e-06
6.32758e-07
4.96847e-06
1.52853e-07
4.96303e-06
-2.82e-07
4.97115e-06
1.26671e-07
4.93923e-06
-3.51494e-07
4.92643e-06
-2.83754e-07
4.90207e-06
-1.76185e-08
4.87356e-06
-5.0934e-08
4.90025e-06
3.41654e-07
4.90149e-06
4.92706e-07
4.91115e-06
4.21897e-07
4.93938e-06
5.12931e-07
4.9467e-06
4.9441e-07
4.95327e-06
4.15344e-07
4.968e-06
3.75368e-07
3.45408e-07
4.97691e-06
5.21662e-06
3.61247e-07
5.18287e-06
-6.95263e-07
5.20383e-06
3.53477e-07
5.17013e-06
-1.15813e-07
5.21997e-06
5.82917e-07
5.20687e-06
1.65959e-07
5.19926e-06
-2.74394e-07
5.20823e-06
1.17703e-07
5.17359e-06
-3.16853e-07
5.1615e-06
-2.71666e-07
5.13943e-06
4.44753e-09
5.11078e-06
-2.22808e-08
5.13644e-06
3.15999e-07
5.1413e-06
4.87841e-07
5.14792e-06
4.15276e-07
5.17589e-06
4.84968e-07
5.18646e-06
4.8384e-07
5.19176e-06
4.10039e-07
5.2047e-06
3.62429e-07
3.33905e-07
5.2162e-06
5.46577e-06
3.50661e-07
5.43093e-06
-6.60423e-07
5.45262e-06
3.31791e-07
5.41915e-06
-8.23387e-08
5.46972e-06
5.32343e-07
5.45684e-06
1.78842e-07
5.44664e-06
-2.64195e-07
5.45688e-06
1.07456e-07
5.41981e-06
-2.79783e-07
5.40764e-06
-2.59492e-07
5.3885e-06
2.35908e-08
5.35972e-06
6.49544e-09
5.38383e-06
2.91891e-07
5.39253e-06
4.7914e-07
5.39678e-06
4.11028e-07
5.42325e-06
4.58493e-07
5.43706e-06
4.7003e-07
5.44208e-06
4.05019e-07
5.45262e-06
3.51891e-07
3.20845e-07
5.46568e-06
5.72688e-06
3.39735e-07
5.69095e-06
-6.24493e-07
5.71348e-06
3.09264e-07
5.68012e-06
-4.8979e-08
5.73068e-06
4.81782e-07
5.71884e-06
1.90688e-07
5.70559e-06
-2.5095e-07
5.71747e-06
9.55798e-08
5.67869e-06
-2.41005e-07
5.66558e-06
-2.46381e-07
5.64982e-06
3.935e-08
5.62114e-06
3.51808e-08
5.64298e-06
2.70049e-07
5.65548e-06
4.66641e-07
5.65818e-06
4.0832e-07
5.68214e-06
4.34537e-07
5.69878e-06
4.53394e-07
5.70438e-06
3.9942e-07
5.71268e-06
3.43586e-07
3.07633e-07
5.72589e-06
6.00052e-06
3.28406e-07
5.96351e-06
-5.8748e-07
5.98698e-06
2.85791e-07
5.95371e-06
-1.57082e-08
6.0034e-06
4.32093e-07
5.99339e-06
2.00697e-07
5.97666e-06
-2.34221e-07
5.9903e-06
8.19364e-08
5.95097e-06
-2.01675e-07
5.93608e-06
-2.31484e-07
5.92389e-06
5.15345e-08
5.89576e-06
6.33119e-08
5.91458e-06
2.51231e-07
5.93051e-06
4.50712e-07
5.93264e-06
4.06189e-07
5.95341e-06
4.13767e-07
5.97211e-06
4.34697e-07
5.97893e-06
3.92591e-07
5.98562e-06
3.36902e-07
2.9555e-07
5.9977e-06
6.28728e-06
3.16614e-07
6.24921e-06
-5.49412e-07
6.27369e-06
2.61314e-07
6.24062e-06
1.73656e-08
6.28849e-06
3.84222e-07
6.28106e-06
2.08122e-07
6.26054e-06
-2.13703e-07
6.27576e-06
6.67163e-08
6.23725e-06
-1.63162e-07
6.21988e-06
-2.1411e-07
6.21116e-06
6.02536e-08
6.18425e-06
9.02207e-08
6.19944e-06
2.36036e-07
6.21816e-06
4.32001e-07
6.22062e-06
4.03729e-07
6.23804e-06
3.9634e-07
6.25778e-06
4.14964e-07
6.26611e-06
3.84253e-07
6.27202e-06
3.30998e-07
2.8533e-07
6.28224e-06
6.58778e-06
3.04306e-07
6.5487e-06
-5.10336e-07
6.57417e-06
2.35847e-07
6.54156e-06
4.99761e-08
6.58663e-06
3.39153e-07
6.58245e-06
2.12295e-07
6.55815e-06
-1.89395e-07
6.57434e-06
5.05204e-08
6.53796e-06
-1.26775e-07
6.51774e-06
-1.93897e-07
6.51207e-06
6.59211e-08
6.48718e-06
1.15112e-07
6.49843e-06
2.24787e-07
6.51905e-06
4.11381e-07
6.52262e-06
4.00165e-07
6.53699e-06
3.81963e-07
6.55668e-06
3.95273e-07
6.56659e-06
3.7435e-07
6.57235e-06
3.25236e-07
2.77063e-07
6.58061e-06
6.90266e-06
2.91436e-07
6.86265e-06
-4.70322e-07
6.88896e-06
2.09538e-07
6.85729e-06
8.16427e-08
6.8986e-06
2.97844e-07
6.89819e-06
2.12701e-07
6.87062e-06
-1.61821e-07
6.88663e-06
3.45104e-08
6.85351e-06
-9.36546e-08
6.83045e-06
-1.7084e-07
6.82719e-06
6.91867e-08
6.80507e-06
1.37227e-07
6.81248e-06
2.17379e-07
6.83395e-06
3.8991e-07
6.8392e-06
3.94919e-07
6.85094e-06
3.70218e-07
6.86974e-06
3.76472e-07
6.88114e-06
3.62949e-07
6.88717e-06
3.19211e-07
2.7029e-07
6.89394e-06
7.2326e-06
2.77977e-07
7.19177e-06
-4.29492e-07
7.21859e-06
1.82715e-07
7.18856e-06
1.11674e-07
7.22521e-06
2.61194e-07
7.22883e-06
2.09076e-07
7.19913e-06
-1.32117e-07
7.21338e-06
2.02561e-08
7.18435e-06
-6.46192e-08
7.15886e-06
-1.45352e-07
7.15712e-06
7.09281e-08
7.13839e-06
1.5595e-07
7.14243e-06
2.13344e-07
7.16386e-06
3.68484e-07
7.17097e-06
3.87801e-07
7.1805e-06
3.60692e-07
7.19771e-06
3.59257e-07
7.21028e-06
3.50382e-07
7.21704e-06
3.12453e-07
2.64266e-07
7.22306e-06
7.57828e-06
2.63918e-07
7.53679e-06
-3.87997e-07
7.56369e-06
1.55814e-07
7.53614e-06
1.39223e-07
7.56734e-06
2.29996e-07
7.57491e-06
2.01502e-07
7.54431e-06
-1.01513e-07
7.5555e-06
9.06761e-09
7.53093e-06
-4.00562e-08
7.50376e-06
-1.18178e-07
7.50265e-06
7.2041e-08
7.4877e-06
1.70896e-07
7.489e-06
2.12046e-07
7.50985e-06
3.47634e-07
7.5189e-06
3.7875e-07
7.52656e-06
3.53029e-07
7.54123e-06
3.44589e-07
7.55425e-06
3.37364e-07
7.56181e-06
3.04889e-07
2.58241e-07
7.56784e-06
7.94046e-06
2.49266e-07
7.89852e-06
-3.46052e-07
7.92499e-06
1.29338e-07
7.9008e-06
1.63415e-07
7.92595e-06
2.04851e-07
7.93698e-06
1.90472e-07
7.90671e-06
-7.12437e-08
7.91396e-06
1.8139e-09
7.89384e-06
-1.99405e-08
7.86598e-06
-9.03168e-08
7.86459e-06
7.34309e-08
7.8535e-06
1.81985e-07
7.85291e-06
2.12639e-07
7.87278e-06
3.27768e-07
7.88435e-06
3.67176e-07
7.89068e-06
3.46699e-07
7.90159e-06
3.33679e-07
7.91335e-06
3.25609e-07
7.92098e-06
2.97252e-07
2.50385e-07
7.92884e-06
8.31988e-06
2.34066e-07
8.27771e-06
-3.03882e-07
8.30329e-06
1.03761e-07
8.28343e-06
1.83271e-07
8.30204e-06
1.86247e-07
8.31569e-06
1.76821e-07
8.28695e-06
-4.25082e-08
8.28986e-06
-1.09804e-09
8.27371e-06
-3.78126e-09
8.24615e-06
-6.27606e-08
8.24395e-06
7.56309e-08
8.23647e-06
1.89468e-07
8.2346e-06
2.14502e-07
8.25296e-06
3.09408e-07
8.26851e-06
3.51626e-07
8.28073e-06
3.34479e-07
8.29973e-06
3.14688e-07
8.31835e-06
3.06986e-07
8.32849e-06
2.87113e-07
2.48794e-07
8.33008e-06
8.71736e-06
2.18368e-07
8.67522e-06
-2.6174e-07
8.69938e-06
7.95997e-08
8.68493e-06
1.97716e-07
8.69681e-06
1.74368e-07
8.71177e-06
1.61862e-07
8.68565e-06
-1.63899e-08
8.68433e-06
2.22826e-10
8.67138e-06
9.17095e-09
8.64497e-06
-3.63481e-08
8.64182e-06
7.87757e-08
8.6374e-06
1.93895e-07
8.63532e-06
2.16577e-07
8.6524e-06
2.9233e-07
8.6707e-06
3.33328e-07
8.6828e-06
3.22375e-07
8.69794e-06
2.99545e-07
8.71423e-06
2.90698e-07
8.72406e-06
2.77287e-07
2.45102e-07
8.72775e-06
9.1337e-06
2.02291e-07
9.0918e-06
-2.19843e-07
9.11418e-06
5.72211e-08
9.10619e-06
2.05708e-07
9.11142e-06
1.69132e-07
9.12619e-06
1.47098e-07
9.10346e-06
6.33341e-09
9.09861e-06
5.07235e-09
9.08763e-06
2.01555e-08
9.06311e-06
-1.18337e-08
9.05899e-06
8.28967e-08
9.05744e-06
1.95452e-07
9.05589e-06
2.18124e-07
9.07054e-06
2.7768e-07
9.08855e-06
3.1532e-07
9.10161e-06
3.09308e-07
9.1166e-06
2.8456e-07
9.13313e-06
2.74162e-07
9.14425e-06
2.66172e-07
2.43005e-07
9.14635e-06
9.56979e-06
1.85964e-07
9.52842e-06
-1.7848e-07
9.5485e-06
3.71407e-08
9.54687e-06
2.0734e-07
9.54695e-06
1.69052e-07
9.56004e-06
1.34007e-07
9.54098e-06
2.53972e-08
9.53344e-06
1.26121e-08
9.5237e-06
2.98937e-08
9.50149e-06
1.03817e-08
9.49647e-06
8.79181e-08
9.49744e-06
1.94476e-07
9.4973e-06
2.18269e-07
9.50848e-06
2.66502e-07
9.52089e-06
3.02908e-07
9.52701e-06
3.03184e-07
9.5311e-06
2.80472e-07
9.53817e-06
2.67089e-07
9.54896e-06
2.55381e-07
2.32063e-07
9.55991e-06
1.00265e-05
1.69615e-07
9.98626e-06
-1.38258e-07
1.00034e-05
1.99776e-08
1.00071e-05
2.03633e-07
1.00042e-05
1.71963e-07
1.00144e-05
1.23828e-07
9.99922e-06
4.05789e-08
9.98977e-06
2.20623e-08
9.98061e-06
3.90475e-08
9.96059e-06
3.04052e-08
9.95492e-06
9.35915e-08
9.9568e-06
1.9259e-07
9.95721e-06
2.17865e-07
9.9682e-06
2.55514e-07
9.98673e-06
2.84374e-07
1.00036e-05
2.86345e-07
1.00191e-05
2.64953e-07
1.0034e-05
2.52221e-07
1.00437e-05
2.45607e-07
2.30483e-07
1.00453e-05
1.05048e-05
1.53488e-07
1.04668e-05
-1.00272e-07
1.04799e-05
6.89863e-09
1.0488e-05
1.95484e-07
1.04841e-05
1.759e-07
1.04909e-05
1.17021e-07
1.04787e-05
5.2765e-08
1.04683e-05
3.24445e-08
1.04594e-05
4.7994e-08
1.04418e-05
4.79918e-08
1.04356e-05
9.97687e-08
1.04385e-05
1.89684e-07
1.04395e-05
2.16832e-07
1.04464e-05
2.4865e-07
1.0457e-05
2.73746e-07
1.04654e-05
2.77959e-07
1.04716e-05
2.58808e-07
1.04788e-05
2.44979e-07
1.04883e-05
2.36086e-07
2.19469e-07
1.04993e-05
1.10056e-05
1.37925e-07
1.09707e-05
-6.53499e-08
1.09791e-05
-1.50442e-09
1.09907e-05
1.83872e-07
1.09875e-05
1.79054e-07
1.09905e-05
1.13998e-07
1.09807e-05
6.26339e-08
1.09702e-05
4.28712e-08
1.09611e-05
5.71649e-08
1.09454e-05
6.36774e-08
1.09384e-05
1.06717e-07
1.09412e-05
1.86882e-07
1.09428e-05
2.15309e-07
1.09481e-05
2.4334e-07
1.0958e-05
2.63782e-07
1.09679e-05
2.68078e-07
1.09757e-05
2.5102e-07
1.09849e-05
2.35831e-07
1.0995e-05
2.25989e-07
2.10815e-07
1.10036e-05
1.15301e-05
1.23218e-07
1.14988e-05
-3.41142e-08
1.1502e-05
-4.64929e-09
1.15162e-05
1.69626e-07
1.15154e-05
1.79914e-07
1.15149e-05
1.14466e-07
1.15064e-05
7.11737e-08
1.14961e-05
5.31678e-08
1.14869e-05
6.63755e-08
1.14728e-05
7.77629e-08
1.14653e-05
1.14177e-07
1.14677e-05
1.84458e-07
1.14699e-05
2.13133e-07
1.14749e-05
2.38348e-07
1.14847e-05
2.54019e-07
1.1495e-05
2.57706e-07
1.15035e-05
2.42546e-07
1.15125e-05
2.26861e-07
1.15221e-05
2.16381e-07
2.02181e-07
1.15307e-05
1.20793e-05
1.09712e-07
1.20522e-05
-7.02677e-09
1.205e-05
-2.36046e-09
1.20661e-05
1.53442e-07
1.20679e-05
1.78101e-07
1.20651e-05
1.17297e-07
1.2057e-05
7.92541e-08
1.20471e-05
6.31097e-08
1.2038e-05
7.5466e-08
1.20252e-05
9.06152e-08
1.20176e-05
1.21779e-07
1.20194e-05
1.82634e-07
1.20226e-05
2.09883e-07
1.20283e-05
2.32677e-07
1.20375e-05
2.44836e-07
1.20475e-05
2.47684e-07
1.20562e-05
2.33846e-07
1.20644e-05
2.18646e-07
1.20732e-05
2.07607e-07
1.93293e-07
1.20821e-05
1.26547e-05
9.76129e-08
1.2632e-05
1.56961e-08
1.26247e-05
4.87609e-09
1.26416e-05
1.3662e-07
1.26463e-05
1.73378e-07
1.26424e-05
1.21159e-07
1.26341e-05
8.75886e-08
1.26243e-05
7.28781e-08
1.26155e-05
8.42544e-08
1.26041e-05
1.0202e-07
1.25969e-05
1.29018e-07
1.25982e-05
1.81347e-07
1.2602e-05
2.0606e-07
1.2608e-05
2.26701e-07
1.26167e-05
2.36135e-07
1.26264e-05
2.37947e-07
1.26351e-05
2.25185e-07
1.26433e-05
2.10419e-07
1.26515e-05
1.994e-07
1.84354e-07
1.26604e-05
1.32575e-05
8.70576e-08
1.32391e-05
3.41176e-08
1.32287e-05
1.52806e-08
1.32442e-05
1.21131e-07
1.32513e-05
1.66193e-07
1.32477e-05
1.24811e-07
1.3239e-05
9.62652e-08
1.32293e-05
8.25889e-08
1.32209e-05
9.2658e-08
1.32108e-05
1.12115e-07
1.32041e-05
1.35672e-07
1.32052e-05
1.80336e-07
1.32093e-05
2.01951e-07
1.32157e-05
2.2031e-07
1.32242e-05
2.27604e-07
1.32335e-05
2.28672e-07
1.32418e-05
2.1683e-07
1.32503e-05
2.01933e-07
1.32579e-05
1.91843e-07
1.76086e-07
1.32661e-05
1.38892e-05
7.80213e-08
1.38747e-05
4.86044e-08
1.38629e-05
2.71256e-08
1.38752e-05
1.0878e-07
1.38843e-05
1.57134e-07
1.3882e-05
1.27046e-07
1.38733e-05
1.04997e-07
1.38633e-05
9.26373e-08
1.38551e-05
1.00777e-07
1.38467e-05
1.20599e-07
1.3841e-05
1.41359e-07
1.3842e-05
1.7934e-07
1.3846e-05
1.97882e-07
1.38523e-05
2.14009e-07
1.38606e-05
2.19373e-07
1.38696e-05
2.19627e-07
1.38777e-05
2.08754e-07
1.38863e-05
1.93297e-07
1.38939e-05
1.84301e-07
1.68966e-07
1.3901e-05
1.45513e-05
7.04128e-08
1.45401e-05
5.97366e-08
1.45281e-05
3.91765e-08
1.45363e-05
1.00617e-07
1.45466e-05
1.46746e-07
1.45462e-05
1.2748e-07
1.45381e-05
1.13119e-07
1.45279e-05
1.02858e-07
1.45201e-05
1.08581e-07
1.4513e-05
1.27628e-07
1.45084e-05
1.46002e-07
1.45093e-05
1.78398e-07
1.45133e-05
1.93875e-07
1.45197e-05
2.07671e-07
1.45277e-05
2.11357e-07
1.45368e-05
2.10482e-07
1.45445e-05
2.01065e-07
1.45526e-05
1.85226e-07
1.45606e-05
1.76335e-07
1.62958e-07
1.45666e-05
1.52452e-05
6.40933e-08
1.52368e-05
6.81059e-08
1.52254e-05
5.06144e-08
1.52299e-05
9.60829e-08
1.52398e-05
1.36843e-07
1.52413e-05
1.26045e-07
1.52346e-05
1.1977e-07
1.52247e-05
1.12802e-07
1.5217e-05
1.16284e-07
1.52111e-05
1.3354e-07
1.52077e-05
1.49383e-07
1.52089e-05
1.77154e-07
1.5213e-05
1.89793e-07
1.52193e-05
2.01389e-07
1.52268e-05
2.03861e-07
1.52357e-05
2.01609e-07
1.52432e-05
1.93483e-07
1.52505e-05
1.77992e-07
1.52591e-05
1.6772e-07
1.57145e-07
1.52649e-05
1.59725e-05
5.88917e-08
1.59664e-05
7.4277e-08
1.5956e-05
6.09755e-08
1.59578e-05
9.4254e-08
1.59657e-05
1.28972e-07
1.59684e-05
1.23321e-07
1.59639e-05
1.24309e-07
1.59549e-05
1.21765e-07
1.59475e-05
1.23719e-07
1.59425e-05
1.38554e-07
1.59403e-05
1.51573e-07
1.5942e-05
1.75428e-07
1.5946e-05
1.85769e-07
1.59523e-05
1.95172e-07
1.59594e-05
1.96705e-07
1.59679e-05
1.93132e-07
1.59759e-05
1.85452e-07
1.59824e-05
1.71514e-07
1.59907e-05
1.59366e-07
1.50843e-07
1.5997e-05
1.67349e-05
5.46385e-08
1.67304e-05
7.87673e-08
1.67213e-05
7.00609e-08
1.67213e-05
9.4244e-08
1.67266e-05
1.23628e-07
1.67292e-05
1.20721e-07
1.67272e-05
1.2635e-07
1.67201e-05
1.28823e-07
1.67133e-05
1.30543e-07
1.67089e-05
1.4297e-07
1.67076e-05
1.52895e-07
1.67099e-05
1.73095e-07
1.67142e-05
1.81513e-07
1.67204e-05
1.88911e-07
1.67275e-05
1.89652e-07
1.67353e-05
1.85346e-07
1.67434e-05
1.77309e-07
1.67495e-05
1.65401e-07
1.67568e-05
1.52062e-07
1.43562e-07
1.67641e-05
1.75338e-05
5.11745e-08
1.75306e-05
8.20303e-08
1.75227e-05
7.79219e-08
1.75217e-05
9.52788e-08
1.75248e-05
1.20484e-07
1.75265e-05
1.19027e-07
1.75264e-05
1.26424e-07
1.75218e-05
1.33469e-07
1.7516e-05
1.36323e-07
1.75121e-05
1.46908e-07
1.75114e-05
1.53549e-07
1.75143e-05
1.70191e-07
1.7519e-05
1.76867e-07
1.75252e-05
1.82673e-07
1.75322e-05
1.82606e-07
1.75394e-05
1.78186e-07
1.75473e-05
1.69437e-07
1.75539e-05
1.58818e-07
1.75601e-05
1.45785e-07
1.35972e-07
1.75677e-05
1.83711e-05
4.83896e-08
1.83688e-05
8.4359e-08
1.8362e-05
8.47303e-08
1.83606e-05
9.67021e-08
1.83623e-05
1.18734e-07
1.8363e-05
1.18341e-07
1.83638e-05
1.25622e-07
1.83615e-05
1.35775e-07
1.83573e-05
1.40504e-07
1.83539e-05
1.50293e-07
1.83537e-05
1.5378e-07
1.83569e-05
1.66966e-07
1.8362e-05
1.71806e-07
1.83683e-05
1.76388e-07
1.83754e-05
1.75483e-07
1.83824e-05
1.71139e-07
1.83897e-05
1.62149e-07
1.83967e-05
1.51842e-07
1.84023e-05
1.4016e-07
1.29044e-07
1.84093e-05
1.92486e-05
4.61879e-08
1.9247e-05
8.59484e-08
1.92411e-05
9.05956e-08
1.92397e-05
9.81683e-08
1.92409e-05
1.17531e-07
1.92408e-05
1.18438e-07
1.92416e-05
1.24781e-07
1.92412e-05
1.3616e-07
1.92389e-05
1.42833e-07
1.92363e-05
1.52859e-07
1.92364e-05
1.53735e-07
1.92397e-05