/*--------------------------------*- C++ -*----------------------------------*\
| =========                 |                                                 |
| \\      /  F ield         | OpenFOAM: The Open Source CFD Toolbox           |
|  \\    /   O peration     | Version:  v1912                                 |
|   \\  /    A nd           | Website:  www.openfoam.com                      |
|    \\/     M anipulation  |                                                 |
\*---------------------------------------------------------------------------*/
FoamFile
{
    version     2.0;
    format      ascii;
    class       volVectorField;
    location    "7.85";
    object      U;
}
// * * * * * * * * * * * * * * * * * * * * * * * * * * * * * * * * * * * * * //

dimensions      [0 1 -1 0 0 0 0];


internalField   nonuniform List<vector> 
9600
(
(0.993145 0.00436195 0)
(0.99929 -0.0149188 0)
(0.960468 0.0112722 0)
(1.04653 -0.011268 0)
(0.909096 0.022557 0)
(1.11835 -0.00388973 0)
(0.793048 -0.00687924 0)
(1.10367 0.00991146 0)
(0.926297 -0.0277439 0)
(1.01791 -0.0104837 0)
(0.999789 -0.00212678 0)
(1.04651 -0.00710513 0)
(0.966686 0.042103 0)
(1.08507 0.00989406 0)
(0.939443 0.0440087 0)
(1.13711 0.0128027 0)
(0.901752 0.0303727 0)
(1.13337 0.0104151 0)
(0.844282 0.0206627 0)
(1.1114 0.0120624 0)
(0.994595 0.00439477 0)
(0.997447 -0.0146109 0)
(0.962376 0.0108702 0)
(1.04248 -0.0106647 0)
(0.914849 0.0218251 0)
(1.10152 -0.00230112 0)
(0.813085 -0.00692491 0)
(1.08201 0.00832007 0)
(0.9452 -0.026627 0)
(1.01488 -0.0116843 0)
(1.00817 -0.00274592 0)
(1.04412 -0.00629835 0)
(0.973669 0.0415573 0)
(1.07029 0.011097 0)
(0.958278 0.042206 0)
(1.10094 0.0144156 0)
(0.949896 0.0299786 0)
(1.06434 0.012162 0)
(0.938365 0.0224251 0)
(0.994147 0.012074 0)
(0.997332 0.00444368 0)
(0.994486 -0.0143467 0)
(0.966647 0.0104066 0)
(1.03703 -0.0101815 0)
(0.926486 0.0211154 0)
(1.0796 -0.00131272 0)
(0.848445 -0.00686603 0)
(1.04743 0.00700273 0)
(0.963464 -0.0260691 0)
(1.00505 -0.01254 0)
(1.01717 -0.00318652 0)
(1.03803 -0.00556291 0)
(0.988914 0.0407614 0)
(1.05443 0.0117136 0)
(0.9867 0.0408797 0)
(1.0695 0.0147918 0)
(0.995451 0.030231 0)
(1.03217 0.0128829 0)
(0.988765 0.0232029 0)
(0.987806 0.0127228 0)
(1.00076 0.00449024 0)
(0.990924 -0.0141065 0)
(0.972881 0.01 0)
(1.03139 -0.00979106 0)
(0.942114 0.0206586 0)
(1.05713 -0.000551945 0)
(0.889476 -0.00652538 0)
(1.01148 0.0058428 0)
(0.977599 -0.0256608 0)
(0.992856 -0.0132524 0)
(1.01827 -0.00369633 0)
(1.02894 -0.00517271 0)
(1.00566 0.0401246 0)
(1.04586 0.0118634 0)
(1.01127 0.040476 0)
(1.0534 0.0147106 0)
(1.01974 0.0311151 0)
(1.02747 0.0131299 0)
(1.00704 0.0242556 0)
(1.00325 0.0136576 0)
(1.00415 0.00454007 0)
(0.987483 -0.0138802 0)
(0.98006 0.00961434 0)
(1.02598 -0.00947344 0)
(0.958331 0.0203987 0)
(1.03813 -2.90427e-05 0)
(0.926386 -0.00599137 0)
(0.984968 0.00490883 0)
(0.983898 -0.0254906 0)
(0.982102 -0.0138069 0)
(1.01101 -0.00427511 0)
(1.01828 -0.00504166 0)
(1.0163 0.0394353 0)
(1.04249 0.0121451 0)
(1.02421 0.0400329 0)
(1.04608 0.0150681 0)
(1.02709 0.0314137 0)
(1.02791 0.01391 0)
(1.01344 0.0247871 0)
(1.01161 0.0146742 0)
(1.00699 0.00459484 0)
(0.984675 -0.0136742 0)
(0.987036 0.00922562 0)
(1.02058 -0.00921951 0)
(0.971936 0.0202586 0)
(1.02457 0.000288884 0)
(0.954102 -0.00534824 0)
(0.972355 0.0042845 0)
(0.98427 -0.025438 0)
(0.97386 -0.0141958 0)
(1.00101 -0.00484104 0)
(1.00821 -0.00515028 0)
(1.01756 0.0386573 0)
(1.03919 0.0123834 0)
(1.02625 0.0395783 0)
(1.04071 0.0154621 0)
(1.02685 0.0313359 0)
(1.0272 0.0147615 0)
(1.01646 0.0246534 0)
(1.01581 0.0155947 0)
(1.0091 0.00465345 0)
(0.982632 -0.0134929 0)
(0.993057 0.0088444 0)
(1.01477 -0.00900745 0)
(0.981591 0.0201819 0)
(1.01585 0.00046917 0)
(0.972851 -0.00470514 0)
(0.971663 0.00395407 0)
(0.982527 -0.0253485 0)
(0.967398 -0.0144929 0)
(0.992562 -0.00539141 0)
(1.00062 -0.00538227 0)
(1.01167 0.0377613 0)
(1.03427 0.0125505 0)
(1.02289 0.0391303 0)
(1.03617 0.0158494 0)
(1.02569 0.031187 0)
(1.02683 0.0155223 0)
(1.01934 0.0243655 0)
(1.01953 0.0166128 0)
(1.01057 0.00471478 0)
(0.981275 -0.0133357 0)
(0.997938 0.00848973 0)
(1.00833 -0.00881416 0)
(0.988037 0.0201191 0)
(1.01012 0.000559627 0)
(0.985213 -0.00415499 0)
(0.978363 0.00384557 0)
(0.981655 -0.0250892 0)
(0.962152 -0.0147226 0)
(0.986172 -0.00596103 0)
(0.995684 -0.0056364 0)
(1.00388 0.0367467 0)
(1.02945 0.0126498 0)
(1.01988 0.0385765 0)
(1.0335 0.0162234 0)
(1.02647 0.0308848 0)
(1.02782 0.0162627 0)
(1.02265 0.0239951 0)
(1.02328 0.0176024 0)
(1.01153 0.00477802 0)
(0.980542 -0.0132003 0)
(1.00179 0.00817751 0)
(1.00155 -0.00862752 0)
(0.992925 0.0200317 0)
(1.00587 0.000589659 0)
(0.993454 -0.00376469 0)
(0.988383 0.00388901 0)
(0.982916 -0.0245799 0)
(0.95849 -0.0148607 0)
(0.980874 -0.00657543 0)
(0.992158 -0.00590095 0)
(0.998665 0.0356554 0)
(1.02676 0.0126502 0)
(1.02031 0.0378813 0)
(1.03314 0.016572 0)
(1.02906 0.0303991 0)
(1.02969 0.0170522 0)
(1.0257 0.0234723 0)
(1.02635 0.0185482 0)
(1.01201 0.00484187 0)
(0.980461 -0.013084 0)
(1.00467 0.00791762 0)
(0.995205 -0.00844983 0)
(0.997432 0.0198985 0)
(1.00258 0.000587797 0)
(0.998734 -0.00357002 0)
(0.998734 0.00401783 0)
(0.986156 -0.0238065 0)
(0.957203 -0.0148843 0)
(0.976354 -0.00721378 0)
(0.98859 -0.00624279 0)
(0.997537 0.0344655 0)
(1.02639 0.0125379 0)
(1.02395 0.0370674 0)
(1.0342 0.0169536 0)
(1.03192 0.0298001 0)
(1.03134 0.0179275 0)
(1.02768 0.0228826 0)
(1.0281 0.0194606 0)
(1.01203 0.00490399 0)
(0.981078 -0.0129826 0)
(1.00649 0.00771168 0)
(0.990124 -0.00829134 0)
(1.00171 0.0197141 0)
(1.00042 0.000591062 0)
(1.00159 -0.00356882 0)
(1.00729 0.00416515 0)
(0.990474 -0.0228209 0)
(0.958623 -0.0147728 0)
(0.973188 -0.00779712 0)
(0.984292 -0.00671519 0)
(0.999076 0.0331043 0)
(1.02678 0.0123237 0)
(1.02839 0.0361686 0)
(1.03506 0.017449 0)
(1.03336 0.0291538 0)
(1.03176 0.0189003 0)
(1.02823 0.0223032 0)
(1.02832 0.0203193 0)
(1.01164 0.00496114 0)
(0.982371 -0.0128895 0)
(1.00718 0.0075526 0)
(0.986819 -0.00815941 0)
(1.00524 0.0194807 0)
(0.999668 0.000628344 0)
(1.00258 -0.00371778 0)
(1.01286 0.00427986 0)
(0.994803 -0.0217151 0)
(0.962158 -0.0145155 0)
(0.972084 -0.00822759 0)
(0.979677 -0.00731319 0)
(1.00049 0.0315435 0)
(1.02578 0.012046 0)
(1.03078 0.0352092 0)
(1.03425 0.0180983 0)
(1.03246 0.0285012 0)
(1.03046 0.0199343 0)
(1.02739 0.0217544 0)
(1.02727 0.0210874 0)
(1.01094 0.00500973 0)
(0.98425 -0.012797 0)
(1.00685 0.00742895 0)
(0.985305 -0.00805424 0)
(1.0075 0.0191988 0)
(1.00032 0.000717643 0)
(1.00244 -0.00394953 0)
(1.01532 0.00432923 0)
(0.998343 -0.0205865 0)
(0.966566 -0.014153 0)
(0.973179 -0.00845818 0)
(0.975968 -0.00794921 0)
(0.999628 0.0298411 0)
(1.02224 0.0117574 0)
(1.02953 0.0341909 0)
(1.03125 0.0188836 0)
(1.02938 0.0278383 0)
(1.02768 0.0209598 0)
(1.02552 0.0212354 0)
(1.02538 0.0217109 0)
(1.01002 0.00504586 0)
(0.986584 -0.0126969 0)
(1.00576 0.00732887 0)
(0.985239 -0.00796894 0)
(1.00825 0.0188683 0)
(1.00199 0.000856143 0)
(1.0019 -0.00420515 0)
(1.0154 0.00432643 0)
(1.0008 -0.0194935 0)
(0.970692 -0.0137598 0)
(0.975817 -0.00851305 0)
(0.974265 -0.00849508 0)
(0.996405 0.0281156 0)
(1.01667 0.0114943 0)
(1.02512 0.0330898 0)
(1.02674 0.0197468 0)
(1.02521 0.0271296 0)
(1.02412 0.0219001 0)
(1.02308 0.0207602 0)
(1.02302 0.0221621 0)
(1.00897 0.00506545 0)
(0.989209 -0.0125815 0)
(1.00416 0.00724132 0)
(0.986159 -0.00788956 0)
(1.00754 0.0184902 0)
(1.00408 0.00102813 0)
(1.00142 -0.00443769 0)
(1.01403 0.0042872 0)
(1.00237 -0.0184554 0)
(0.974013 -0.0133701 0)
(0.97886 -0.00845504 0)
(0.974598 -0.00887713 0)
(0.99238 0.026474 0)
(1.01064 0.0112806 0)
(1.01939 0.0318795 0)
(1.02187 0.0206062 0)
(1.02107 0.0263746 0)
(1.0205 0.0227183 0)
(1.02038 0.0203655 0)
(1.02038 0.0224204 0)
(1.00789 0.0050657 0)
(0.991902 -0.0124462 0)
(1.00231 0.00715886 0)
(0.987643 -0.00779891 0)
(1.00557 0.0180678 0)
(1.00601 0.00120837 0)
(1.00115 -0.00461774 0)
(1.01193 0.00421525 0)
(1.00342 -0.0174698 0)
(0.97661 -0.0129948 0)
(0.981317 -0.00833818 0)
(0.975926 -0.00909346 0)
(0.98905 0.024958 0)
(1.00537 0.0111397 0)
(1.01383 0.0305646 0)
(1.01727 0.0214026 0)
(1.01739 0.0256023 0)
(1.01703 0.0234111 0)
(1.01746 0.0201034 0)
(1.01751 0.0224731 0)
(1.00685 0.00504518 0)
(0.994398 -0.012288 0)
(1.00042 0.00707708 0)
(0.989341 -0.00768137 0)
(1.00276 0.0176095 0)
(1.00741 0.00137048 0)
(1.00109 -0.00473996 0)
(1.00953 0.00413096 0)
(1.00424 -0.0165434 0)
(0.978762 -0.0126287 0)
(0.982811 -0.00818432 0)
(0.977073 -0.00917722 0)
(0.986625 0.0235618 0)
(1.00094 0.0110875 0)
(1.00874 0.0291842 0)
(1.01274 0.0221152 0)
(1.01384 0.0248441 0)
(1.01356 0.0239713 0)
(1.01427 0.0200074 0)
(1.01448 0.0223319 0)
(1.00593 0.00500519 0)
(0.996471 -0.0121065 0)
(0.998714 0.00699177 0)
(0.990976 -0.00752518 0)
(0.999688 0.0171247 0)
(1.00811 0.0014989 0)
(1.0012 -0.00480839 0)
(1.00713 0.00404062 0)
(1.00495 -0.0156886 0)
(0.98062 -0.0122498 0)
(0.983532 -0.00798268 0)
(0.977561 -0.00915312 0)
(0.984424 0.0222717 0)
(0.996848 0.0111361 0)
(1.0037 0.0277843 0)
(1.00785 0.0227404 0)
(1.01 0.0241118 0)
(1.00996 0.0243823 0)
(1.01093 0.0200707 0)
(1.01151 0.0220193 0)
(1.0052 0.00494922 0)
(0.998014 -0.0119033 0)
(0.997369 0.00689905 0)
(0.992367 -0.00732447 0)
(0.996892 0.0166228 0)
(1.00816 0.00158189 0)
(1.00142 -0.0048323 0)
(1.00503 0.00394078 0)
(1.00552 -0.0149047 0)
(0.98218 -0.0118393 0)
(0.98387 -0.00771503 0)
(0.977618 -0.00902395 0)
(0.981971 0.0210771 0)
(0.992822 0.0112963 0)
(0.998608 0.0264038 0)
(1.00267 0.0232601 0)
(1.00592 0.0233989 0)
(1.00643 0.0246119 0)
(1.00772 0.0202414 0)
(1.00888 0.0215605 0)
(1.00464 0.00488118 0)
(0.999054 -0.0116811 0)
(0.996445 0.00679553 0)
(0.993451 -0.00707869 0)
(0.994709 0.0161103 0)
(1.00776 0.00162336 0)
(1.00166 -0.00483063 0)
(1.00339 0.00383662 0)
(1.00597 -0.0141821 0)
(0.983421 -0.0114016 0)
(0.984116 -0.00737966 0)
(0.977665 -0.00879059 0)
(0.979471 0.0199831 0)
(0.989135 0.0115507 0)
(0.993938 0.0250661 0)
(0.997869 0.0236645 0)
(1.00209 0.0227011 0)
(1.00337 0.0246258 0)
(1.00498 0.0204542 0)
(1.0068 0.0209991 0)
(1.00424 0.00480487 0)
(0.999704 -0.0114434 0)
(0.995891 0.00667968 0)
(0.994263 -0.00679077 0)
(0.993199 0.0155918 0)
(1.00709 0.00163275 0)
(1.00185 -0.00482171 0)
(1.00222 0.00373497 0)
(1.0063 -0.0135098 0)
(0.984403 -0.010938 0)
(0.984393 -0.00699184 0)
(0.977932 -0.00845239 0)
(0.977438 0.0189791 0)
(0.986242 0.01187 0)
(0.990296 0.0237814 0)
(0.994118 0.0239474 0)
(0.999027 0.02204 0)
(1.00108 0.0244108 0)
(1.00287 0.0206697 0)
(1.00532 0.0203988 0)
(1.00394 0.00472322 0)
(1.00009 -0.0111939 0)
(0.995599 0.00655133 0)
(0.994877 -0.00646481 0)
(0.992253 0.0150685 0)
(1.00632 0.00162271 0)
(1.00195 -0.00481831 0)
(1.00135 0.0036354 0)
(1.00653 -0.0128718 0)
(0.985247 -0.0104535 0)
(0.98472 -0.00656492 0)
(0.978417 -0.0080284 0)
(0.976179 0.0180495 0)
(0.984369 0.0122351 0)
(0.987929 0.0225401 0)
(0.991708 0.0240981 0)
(0.9969 0.0214439 0)
(0.99962 0.0239854 0)
(1.00136 0.0208634 0)
(1.00431 0.0198256 0)
(1.00372 0.0046377 0)
(1.00032 -0.010934 0)
(0.995462 0.00640961 0)
(0.995355 -0.00610573 0)
(0.99172 0.0145425 0)
(1.00553 0.00160417 0)
(1.00195 -0.00482497 0)
(1.00061 0.00353413 0)
(1.00668 -0.0122509 0)
(0.986069 -0.00996588 0)
(0.985091 -0.00609539 0)
(0.979038 -0.0075462 0)
(0.975645 0.017174 0)
(0.983414 0.0126164 0)
(0.986666 0.0213374 0)
(0.990474 0.0241362 0)
(0.99558 0.0209314 0)
(0.998825 0.0233897 0)
(1.00031 0.0210141 0)
(1.0036 0.0193283 0)
(1.00354 0.00454919 0)
(1.00045 -0.0106644 0)
(0.995407 0.00625348 0)
(0.995732 -0.00571674 0)
(0.991499 0.0140113 0)
(1.00478 0.00158781 0)
(1.00185 -0.00484278 0)
(0.999887 0.00342803 0)
(1.00671 -0.0116523 0)
(0.986934 -0.00946925 0)
(0.985492 -0.00558469 0)
(0.979741 -0.00701317 0)
(0.975597 0.0163208 0)
(0.983093 0.013003 0)
(0.986152 0.0201838 0)
(0.990024 0.0240538 0)
(0.994801 0.0205204 0)
(0.998452 0.0226778 0)
(0.999574 0.0210997 0)
(1.00304 0.0189434 0)
(1.00341 0.00445847 0)
(1.00051 -0.0103857 0)
(0.995391 0.00608311 0)
(0.996013 -0.00530285 0)
(0.991542 0.0134753 0)
(1.00412 0.00157757 0)
(1.00167 -0.00486863 0)
(0.999136 0.00331845 0)
(1.0066 -0.011082 0)
(0.987843 -0.00897209 0)
(0.985902 -0.00503745 0)
(0.98052 -0.00644021 0)
(0.975811 0.0154791 0)
(0.983117 0.0133929 0)
(0.986062 0.0190758 0)
(0.989977 0.0238403 0)
(0.994331 0.0202275 0)
(0.998288 0.0218948 0)
(0.999058 0.0210887 0)
(1.0025 0.0186922 0)
(1.0033 0.0043661 0)
(1.00052 -0.0100985 0)
(0.995397 0.00589976 0)
(0.996192 -0.00486849 0)
(0.99183 0.0129301 0)
(1.00357 0.00158524 0)
(1.00144 -0.00489541 0)
(0.998394 0.00319673 0)
(1.0063 -0.0105334 0)
(0.988754 -0.00849091 0)
(0.986283 -0.00445532 0)
(0.98138 -0.00583732 0)
(0.97617 0.0146426 0)
(0.983278 0.0137589 0)
(0.986201 0.0180324 0)
(0.990077 0.0235035 0)
(0.994026 0.0200517 0)
(0.998194 0.0210841 0)
(0.998723 0.0209626 0)
(1.00196 0.0185688 0)
(1.00319 0.00427188 0)
(1.0005 -0.00980086 0)
(0.995416 0.00570282 0)
(0.996265 -0.00441994 0)
(0.992342 0.0123728 0)
(1.00316 0.00161761 0)
(1.00119 -0.00491629 0)
(0.997722 0.00306685 0)
(1.00581 -0.0100058 0)
(0.989605 -0.00802865 0)
(0.986595 -0.00383234 0)
(0.982311 -0.00520183 0)
(0.976653 0.0138149 0)
(0.983466 0.014092 0)
(0.986491 0.0170706 0)
(0.990211 0.0230311 0)
(0.993834 0.0199625 0)
(0.998117 0.020291 0)
(0.998569 0.0206974 0)
(1.00144 0.0185317 0)
(1.00309 0.00417673 0)
(1.00047 -0.00949305 0)
(0.995442 0.00549366 0)
(0.996241 -0.00396354 0)
(0.993039 0.0118007 0)
(1.00289 0.00167682 0)
(1.00096 -0.00492534 0)
(0.997181 0.00293607 0)
(1.00513 -0.00949368 0)
(0.990343 -0.00759405 0)
(0.986805 -0.00318578 0)
(0.983274 -0.0045309 0)
(0.977289 0.0129925 0)
(0.983642 0.0143951 0)
(0.986916 0.0161952 0)
(0.990367 0.0224183 0)
(0.993757 0.0199344 0)
(0.998052 0.0195577 0)
(0.998608 0.0202777 0)
(1.00098 0.0185215 0)
(1.00298 0.00408067 0)
(1.00045 -0.00917549 0)
(0.995475 0.0052774 0)
(0.996139 -0.00350621 0)
(0.993861 0.0112067 0)
(1.00274 0.00177315 0)
(1.00076 -0.00492246 0)
(0.996805 0.0028012 0)
(1.0043 -0.00898521 0)
(0.990934 -0.00719989 0)
(0.986901 -0.00253611 0)
(0.984214 -0.00383281 0)
(0.978101 0.0121819 0)
(0.983817 0.0146453 0)
(0.98748 0.015439 0)
(0.990594 0.0216709 0)
(0.99381 0.0199223 0)
(0.99802 0.0189195 0)
(0.998839 0.0197066 0)
(1.00063 0.0184815 0)
(1.00286 0.00398276 0)
(1.00043 -0.00884607 0)
(0.995514 0.00505332 0)
(0.995989 -0.00304986 0)
(0.99473 0.0105856 0)
(1.00267 0.00190595 0)
(1.00064 -0.00489997 0)
(0.996598 0.00266579 0)
(1.00339 -0.00846077 0)
(0.991377 -0.0068444 0)
(0.986899 -0.00189231 0)
(0.985078 -0.00311918 0)
(0.979087 0.0113891 0)
(0.984014 0.0148424 0)
(0.988165 0.0148206 0)
(0.990935 0.0207936 0)
(0.993999 0.0198664 0)
(0.998034 0.0184041 0)
(0.999232 0.019018 0)
(1.00045 0.0183598 0)
(1.00272 0.00388449 0)
(1.00043 -0.00850642 0)
(0.995564 0.00482181 0)
(0.995826 -0.00259913 0)
(0.995574 0.00993503 0)
(1.00266 0.00207032 0)
(1.00058 -0.00485181 0)
(0.996536 0.00252699 0)
(1.00247 -0.00789745 0)
(0.9917 -0.00652881 0)
(0.986837 -0.0012703 0)
(0.985831 -0.00239883 0)
(0.980214 0.0106061 0)
(0.984254 0.0149639 0)
(0.988918 0.0143342 0)
(0.99141 0.0198258 0)
(0.994309 0.0197438 0)
(0.998091 0.0180201 0)
(0.999726 0.0182731 0)
(1.00044 0.0181062 0)
(1.00258 0.00378456 0)
(1.00043 -0.00815587 0)
(0.995631 0.00458423 0)
(0.995678 -0.00215459 0)
(0.996334 0.00925965 0)
(1.00265 0.00225664 0)
(1.00059 -0.00477922 0)
(0.99658 0.00238297 0)
(1.00161 -0.00728893 0)
(0.991947 -0.00625226 0)
(0.986769 -0.000677417 0)
(0.986466 -0.00166939 0)
(0.981425 0.00982805 0)
(0.984549 0.0149836 0)
(0.989675 0.0139785 0)
(0.991999 0.0188011 0)
(0.994699 0.0195118 0)
(0.998162 0.0177487 0)
(1.00024 0.0175437 0)
(1.0006 0.0176879 0)
(1.00244 0.00368178 0)
(1.00045 -0.00779219 0)
(0.995722 0.00433836 0)
(0.995569 -0.00171309 0)
(0.996976 0.00856163 0)
(1.0026 0.00245691 0)
(1.00064 -0.00467332 0)
(0.99669 0.00222957 0)
(1.00084 -0.00662583 0)
(0.99217 -0.00599204 0)
(0.986752 -0.000121053 0)
(0.986998 -0.000937307 0)
(0.982669 0.00907576 0)
(0.984901 0.0148945 0)
(0.990361 0.0137382 0)
(0.992655 0.0177699 0)
(0.99513 0.0191416 0)
(0.998217 0.0175519 0)
(1.00069 0.0169039 0)
(1.00087 0.0171033 0)
(1.0023 0.00357775 0)
(1.00047 -0.00741808 0)
(0.995842 0.00408449 0)
(0.995511 -0.00127632 0)
(0.99749 0.00784723 0)
(1.0025 0.00266108 0)
(1.00071 -0.00452672 0)
(0.99683 0.00205248 0)
(1.0002 -0.00589429 0)
(0.992411 -0.00573781 0)
(0.98683 0.000374082 0)
(0.987461 -0.000197938 0)
(0.983907 0.0083697 0)
(0.985311 0.0146811 0)
(0.990935 0.0135846 0)
(0.993325 0.0167878 0)
(0.995562 0.018643 0)
(0.998235 0.0173735 0)
(1.00101 0.0163806 0)
(1.0012 0.0163989 0)
(1.00217 0.00346986 0)
(1.0005 -0.00703213 0)
(0.995996 0.00382338 0)
(0.995504 -0.000843999 0)
(0.99789 0.00713057 0)
(1.00233 0.00285064 0)
(1.00078 -0.00433085 0)
(0.996979 0.00184724 0)
(0.999676 -0.00512924 0)
(0.992694 -0.00547071 0)
(0.987032 0.000783039 0)
(0.987889 0.000559049 0)
(0.985116 0.00772387 0)
(0.985787 0.0143436 0)
(0.991381 0.0134999 0)
(0.993966 0.015878 0)
(0.99598 0.0180135 0)
(0.998213 0.0171703 0)
(1.00116 0.0159933 0)
(1.00152 0.0156753 0)
(1.00204 0.00335751 0)
(1.00053 -0.0066312 0)
(0.996181 0.00354854 0)
(0.995546 -0.000413358 0)
(0.998197 0.00641814 0)
(1.0021 0.00301898 0)
(1.00084 -0.00407753 0)
(0.997122 0.00161568 0)
(0.999248 -0.00434728 0)
(0.993025 -0.00517147 0)
(0.987369 0.00109885 0)
(0.988312 0.00129765 0)
(0.986281 0.00715807 0)
(0.986339 0.0138898 0)
(0.991715 0.0134504 0)
(0.994544 0.0150923 0)
(0.996383 0.0172775 0)
(0.998177 0.0168965 0)
(1.00115 0.0157099 0)
(1.00178 0.0150109 0)
(1.00191 0.00324289 0)
(1.00055 -0.00622425 0)
(0.996396 0.00326163 0)
(0.995626 2.17972e-05 0)
(0.998439 0.00572754 0)
(1.00182 0.00315938 0)
(1.00086 -0.00376677 0)
(0.997258 0.00134378 0)
(0.998897 -0.00356533 0)
(0.993393 -0.00482129 0)
(0.987829 0.0013262 0)
(0.988747 0.00200647 0)
(0.987398 0.00669173 0)
(0.986975 0.0133416 0)
(0.991975 0.0133812 0)
(0.995049 0.0144409 0)
(0.996774 0.0165061 0)
(0.998152 0.0165453 0)
(1.00103 0.0154688 0)
(1.00195 0.0144715 0)
(1.00178 0.00312125 0)
(1.00058 -0.00579963 0)
(0.996636 0.00296294 0)
(0.995736 0.000449067 0)
(0.998641 0.00506812 0)
(1.00152 0.00324996 0)
(1.00086 -0.00337813 0)
(0.997391 0.00105608 0)
(0.998607 -0.00282362 0)
(0.993782 -0.00441275 0)
(0.988394 0.00147445 0)
(0.989204 0.00267412 0)
(0.988459 0.00633806 0)
(0.98769 0.0127323 0)
(0.992203 0.0132853 0)
(0.995484 0.0138838 0)
(0.997161 0.0157262 0)
(0.998163 0.0161322 0)
(1.00083 0.0152242 0)
(1.002 0.0140837 0)
(1.00166 0.00299418 0)
(1.00061 -0.00536925 0)
(0.996897 0.00265282 0)
(0.995864 0.000872475 0)
(0.998819 0.0044562 0)
(1.00121 0.00327764 0)
(1.00083 -0.00292848 0)
(0.997528 0.00076011 0)
(0.998367 -0.00213823 0)
(0.994172 -0.00393793 0)
(0.989038 0.00156743 0)
(0.989683 0.0032721 0)
(0.989458 0.00609051 0)
(0.98848 0.0120755 0)
(0.992428 0.0131557 0)
(0.995847 0.0134489 0)
(0.997556 0.0149622 0)
(0.998227 0.015646 0)
(1.00062 0.0149218 0)
(1.00197 0.0137418 0)
(1.00154 0.00286436 0)
(1.00063 -0.0049245 0)
(0.997175 0.00232175 0)
(0.996002 0.00127258 0)
(0.998982 0.0039112 0)
(1.00092 0.00325091 0)
(1.00078 -0.00243934 0)
(0.997674 0.00047743 0)
(0.998178 -0.00153129 0)
(0.994552 -0.00339949 0)
(0.989735 0.00162053 0)
(0.990179 0.00378684 0)
(0.990384 0.00594082 0)
(0.989325 0.0114061 0)
(0.99269 0.0129319 0)
(0.996146 0.0131244 0)
(0.997938 0.0142961 0)
(0.998343 0.0151366 0)
(1.00042 0.0146014 0)
(1.00188 0.0133906 0)
(1.00142 0.00272178 0)
(1.00064 -0.00447255 0)
(0.997464 0.00200352 0)
(0.996146 0.00165007 0)
(0.999136 0.00342844 0)
(1.00066 0.00315799 0)
(1.0007 -0.00192252 0)
(0.99783 0.000246755 0)
(0.998038 -0.00101405 0)
(0.994914 -0.00282924 0)
(0.990465 0.00165276 0)
(0.990694 0.00421573 0)
(0.991238 0.00588108 0)
(0.990199 0.010759 0)
(0.993006 0.0126412 0)
(0.996412 0.0128158 0)
(0.998311 0.0137091 0)
(0.998509 0.0146232 0)
(1.00023 0.0142987 0)
(1.00171 0.0130944 0)
(1.00131 0.0025825 0)
(1.00065 -0.00401724 0)
(0.997766 0.00167438 0)
(0.99629 0.00199124 0)
(0.999276 0.00304098 0)
(1.00044 0.00300853 0)
(1.00062 -0.00141846 0)
(0.997993 7.62324e-05 0)
(0.997951 -0.000574088 0)
(0.995259 -0.0022284 0)
(0.991213 0.00167629 0)
(0.991227 0.00453511 0)
(0.992015 0.00588618 0)
(0.991085 0.0101285 0)
(0.993378 0.0122612 0)
(0.996644 0.0125245 0)
(0.998669 0.0131859 0)
(0.998728 0.0140998 0)
(1.00009 0.0140318 0)
(1.00153 0.0128706 0)
(1.00121 0.00242683 0)
(1.00065 -0.00355077 0)
(0.998075 0.00136781 0)
(0.99644 0.00227488 0)
(0.999401 0.00273054 0)
(1.00027 0.00281719 0)
(1.00053 -0.000915858 0)
(0.998163 -1.48738e-05 0)
(0.997914 -0.000228775 0)
(0.995583 -0.00163166 0)
(0.99196 0.00172807 0)
(0.991781 0.00477478 0)
(0.992726 0.00593748 0)
(0.991949 0.00955938 0)
(0.993818 0.011773 0)
(0.996884 0.0121782 0)
(0.999006 0.0125948 0)
(0.999002 0.0134389 0)
(0.999995 0.0136377 0)
(1.00127 0.0127065 0)
(1.00111 0.00227648 0)
(1.00064 -0.00309663 0)
(0.998392 0.00106999 0)
(0.996592 0.0025017 0)
(0.999505 0.0025329 0)
(1.00014 0.00258443 0)
(1.00044 -0.00046606 0)
(0.998326 -2.65316e-05 0)
(0.997926 7.02958e-05 0)
(0.995902 -0.00104737 0)
(0.992707 0.00178941 0)
(0.992353 0.00490181 0)
(0.993373 0.00600027 0)
(0.992777 0.00905277 0)
(0.994294 0.0112704 0)
(0.9971 0.0118112 0)
(0.999297 0.0119796 0)
(0.999319 0.0126388 0)
(1.00003 0.0130119 0)
(1.00113 0.0123807 0)
(1.00102 0.00211354 0)
(1.00061 -0.00262939 0)
(0.99871 0.000789787 0)
(0.996763 0.00264671 0)
(0.999588 0.0024121 0)
(1.00003 0.00235818 0)
(1.00037 -6.17485e-05 0)
(0.998492 4.07196e-05 0)
(0.997982 0.00029384 0)
(0.996201 -0.000498202 0)
(0.993425 0.0018742 0)
(0.992949 0.00498131 0)
(0.993982 0.00606827 0)
(0.99357 0.00859545 0)
(0.99482 0.0106817 0)
(0.997323 0.0114061 0)
(0.99952 0.0114264 0)
(0.999622 0.0119116 0)
(1.00014 0.0124276 0)
(1.00104 0.0120836 0)
(1.00094 0.0019522 0)
(1.00058 -0.00217621 0)
(0.999026 0.000541101 0)
(0.996941 0.00270354 0)
(0.999652 0.00238697 0)
(0.999967 0.00213488 0)
(1.00031 0.000283683 0)
(0.998634 0.000148786 0)
(0.998072 0.000502337 0)
(0.996508 -1.56373e-06 0)
(0.994136 0.00199077 0)
(0.993563 0.00497741 0)
(0.994538 0.00608943 0)
(0.994285 0.00821315 0)
(0.995358 0.010155 0)
(0.99757 0.0109554 0)
(0.999729 0.010989 0)
(0.999968 0.0114392 0)
(1.00037 0.012006 0)
(1.00107 0.0119846 0)
(1.00087 0.00178624 0)
(1.00053 -0.00171861 0)
(0.99933 0.000319179 0)
(0.997146 0.00267244 0)
(0.999694 0.00241361 0)
(0.999908 0.00195972 0)
(1.00027 0.000564989 0)
(0.998782 0.000319039 0)
(0.998194 0.000680941 0)
(0.996795 0.000445311 0)
(0.994797 0.00211102 0)
(0.99418 0.00493747 0)
(0.995092 0.00610643 0)
(0.994988 0.0078977 0)
(0.995908 0.00961927 0)
(0.997838 0.0105132 0)
(0.999957 0.0106194 0)
(1.0003 0.0109938 0)
(1.00065 0.0115442 0)
(1.00114 0.0116944 0)
(1.0008 0.00161469 0)
(1.00046 -0.00127872 0)
(0.999611 0.000143261 0)
(0.99736 0.00258388 0)
(0.999728 0.0024633 0)
(0.99987 0.00183654 0)
(1.00024 0.000786304 0)
(0.9989 0.000499845 0)
(0.998332 0.000853781 0)
(0.997098 0.000866155 0)
(0.995447 0.00225625 0)
(0.994814 0.00487931 0)
(0.995605 0.00606878 0)
(0.995586 0.00762507 0)
(0.996447 0.00916729 0)
(0.998164 0.010132 0)
(1.00018 0.0102114 0)
(1.00064 0.0105156 0)
(1.00098 0.0110345 0)
(1.00131 0.0111843 0)
(1.00074 0.00146241 0)
(1.00038 -0.000886612 0)
(0.999868 1.29849e-05 0)
(0.997603 0.00244733 0)
(0.99975 0.00252519 0)
(0.99982 0.001758 0)
(1.00023 0.000965923 0)
(0.999032 0.000693661 0)
(0.998498 0.00105851 0)
(0.997379 0.00121484 0)
(0.996031 0.00240929 0)
(0.995423 0.00477847 0)
(0.996127 0.00600632 0)
(0.996211 0.0074488 0)
(0.997008 0.00883402 0)
(0.998466 0.0097404 0)
(1.00039 0.00988126 0)
(1.00095 0.0101594 0)
(1.00127 0.0106249 0)
(1.00152 0.010814 0)
(1.00068 0.00130174 0)
(1.0003 -0.000519425 0)
(1.0001 -4.84905e-05 0)
(0.997846 0.00227174 0)
(0.999772 0.00254543 0)
(0.999785 0.0017582 0)
(1.00023 0.00111656 0)
(0.999143 0.00087675 0)
(0.998658 0.00122633 0)
(0.997669 0.00153968 0)
(0.996604 0.00259691 0)
(0.996039 0.00472349 0)
(0.996644 0.00593938 0)
(0.996755 0.00726805 0)
(0.997502 0.00847225 0)
(0.998805 0.00938288 0)
(1.00062 0.00962329 0)
(1.00127 0.00982582 0)
(1.00161 0.0102598 0)
(1.00179 0.0104628 0)
(1.00063 0.00116493 0)
(1.00021 -0.000204099 0)
(1.00029 -6.27807e-05 0)
(0.998109 0.00207561 0)
(0.999804 0.00254747 0)
(0.999736 0.00178052 0)
(1.00023 0.001248 0)
(0.999265 0.00105723 0)
(0.998849 0.00141366 0)
(0.997952 0.00183635 0)
(0.997113 0.00276428 0)
(0.996612 0.00464914 0)
(0.99715 0.00584144 0)
(0.997312 0.00710537 0)
(0.998033 0.00821556 0)
(0.999165 0.00907571 0)
(1.00083 0.00932026 0)
(1.00154 0.00946523 0)
(1.0019 0.0098031 0)
(1.002 0.00994939 0)
(1.00059 0.00103193 0)
(1.00011 6.34901e-05 0)
(1.00045 9.43736e-06 0)
(0.998363 0.00185905 0)
(0.999845 0.00247782 0)
(0.999702 0.00184128 0)
(1.00024 0.00140613 0)
(0.999373 0.00123271 0)
(0.999027 0.00157116 0)
(0.998234 0.00208334 0)
(0.997606 0.00295283 0)
(0.997183 0.00463255 0)
(0.997664 0.00576433 0)
(0.997824 0.00694168 0)
(0.998495 0.00790834 0)
(0.999498 0.0086989 0)
(1.00104 0.00896506 0)
(1.00178 0.0091033 0)
(1.00216 0.00936165 0)
(1.00227 0.00948725 0)
(1.00055 0.000921381 0)
(1.00002 0.00028649 0)
(1.00058 0.000115327 0)
(0.998614 0.00164634 0)
(0.999911 0.00239471 0)
(0.999673 0.00190478 0)
(1.00024 0.00153633 0)
(0.999481 0.00140174 0)
(0.99923 0.00174966 0)
(0.998524 0.00232451 0)
(0.998056 0.00311595 0)
(0.9977 0.0046028 0)
(0.998143 0.00564398 0)
(0.998319 0.00674238 0)
(0.998965 0.00763494 0)
(0.999853 0.00836788 0)
(1.00126 0.00863482 0)
(1.00201 0.00875628 0)
(1.0024 0.00899987 0)
(1.00256 0.00904739 0)
(1.00052 0.000822018 0)
(0.999937 0.000461525 0)
(1.00067 0.000260653 0)
(0.998847 0.00147002 0)
(0.999991 0.00226532 0)
(0.99966 0.00194149 0)
(1.00026 0.00169937 0)
(0.999586 0.00160256 0)
(0.999419 0.00190363 0)
(0.998801 0.00249673 0)
(0.998484 0.00325087 0)
(0.998206 0.00459609 0)
(0.998622 0.00555936 0)
(0.998796 0.00656584 0)
(0.99939 0.00735092 0)
(1.00017 0.00801735 0)
(1.00146 0.0082854 0)
(1.00223 0.00839327 0)
(1.00261 0.00868406 0)
(1.00283 0.0086461 0)
(1.00049 0.000740024 0)
(0.999862 0.000600498 0)
(1.00074 0.000403819 0)
(0.999059 0.00133801 0)
(1.00009 0.00212392 0)
(0.999674 0.00196503 0)
(1.00027 0.0018436 0)
(0.999676 0.00177984 0)
(0.999607 0.00205946 0)
(0.999087 0.00267264 0)
(0.998893 0.00338382 0)
(0.99867 0.00457536 0)
(0.999058 0.00544347 0)
(0.999231 0.00636072 0)
(0.999801 0.00706963 0)
(1.00051 0.00770575 0)
(1.00168 0.0079948 0)
(1.00248 0.00804957 0)
(1.00281 0.00835441 0)
(1.00302 0.00830953 0)
(1.00047 0.000670937 0)
(0.999797 0.000702927 0)
(1.00078 0.000545783 0)
(0.999249 0.00126877 0)
(1.0002 0.00198317 0)
(0.999708 0.00193865 0)
(1.0003 0.00195754 0)
(0.999771 0.00198039 0)
(0.99979 0.00223059 0)
(0.999357 0.00280725 0)
(0.999269 0.00345901 0)
(0.999108 0.00453532 0)
(0.999487 0.00533622 0)
(0.99966 0.00619486 0)
(1.00019 0.00683444 0)
(1.00083 0.00738247 0)
(1.00186 0.00769133 0)
(1.00269 0.00768881 0)
(1.00302 0.007953 0)
(1.00316 0.00803371 0)
(1.00044 0.00061374 0)
(0.999742 0.000781573 0)
(1.00082 0.000674546 0)
(0.999413 0.00123499 0)
(1.0003 0.00185555 0)
(0.999769 0.0018995 0)
(1.00036 0.00204968 0)
(0.999865 0.00215703 0)
(0.999954 0.00238359 0)
(0.999615 0.00292274 0)
(0.999632 0.00352415 0)
(0.999525 0.00450137 0)
(0.999892 0.00522227 0)
(1.00006 0.00600723 0)
(1.00055 0.00658884 0)
(1.00114 0.00705333 0)
(1.00205 0.00739306 0)
(1.00288 0.00740798 0)
(1.00329 0.00756177 0)
(1.00331 0.00777003 0)
(1.00043 0.000567957 0)
(0.999696 0.000836913 0)
(1.00084 0.000788805 0)
(0.999557 0.00122624 0)
(1.00041 0.00177012 0)
(0.999848 0.00185617 0)
(1.00043 0.00208941 0)
(0.999968 0.0022972 0)
(1.00011 0.0025358 0)
(0.99986 0.0030389 0)
(0.999966 0.00356526 0)
(0.999913 0.00443994 0)
(1.00027 0.00509532 0)
(1.00045 0.0058121 0)
(1.00089 0.00637184 0)
(1.00145 0.00678253 0)
(1.00225 0.00708567 0)
(1.00301 0.00715148 0)
(1.00353 0.00716708 0)
(1.00349 0.00740966 0)
(1.00041 0.000529465 0)
(0.99966 0.000879241 0)
(1.00086 0.000887239 0)
(0.999683 0.0012327 0)
(1.0005 0.00171842 0)
(0.999936 0.00182368 0)
(1.00053 0.00209909 0)
(1.00009 0.00240441 0)
(1.00027 0.00266804 0)
(1.00008 0.00313233 0)
(1.00027 0.00358743 0)
(1.00028 0.00437129 0)
(1.00064 0.00496909 0)
(1.00083 0.00561704 0)
(1.00122 0.00614225 0)
(1.00172 0.00652247 0)
(1.00246 0.00675726 0)
(1.00314 0.00688291 0)
(1.00373 0.00685394 0)
(1.00373 0.0070227 0)
(1.0004 0.000498525 0)
(0.999632 0.000910346 0)
(1.00087 0.000970476 0)
(0.999797 0.0012473 0)
(1.0006 0.00168987 0)
(1.00003 0.0018125 0)
(1.00064 0.00209119 0)
(1.00022 0.00245315 0)
(1.00042 0.00276353 0)
(1.00029 0.00321824 0)
(1.00056 0.00360417 0)
(1.00062 0.0042974 0)
(1.00098 0.00483409 0)
(1.00118 0.0054171 0)
(1.00154 0.00589521 0)
(1.00198 0.00627224 0)
(1.00267 0.00647195 0)
(1.00328 0.00660886 0)
(1.00387 0.00660347 0)
(1.00398 0.00663955 0)
(1.00039 0.000473588 0)
(0.999611 0.000931064 0)
(1.00088 0.0010459 0)
(0.999899 0.00126287 0)
(1.00069 0.00167124 0)
(1.00012 0.00181649 0)
(1.00076 0.00207829 0)
(1.00038 0.00246345 0)
(1.00059 0.00282292 0)
(1.00049 0.0032892 0)
(1.00081 0.00361164 0)
(1.00094 0.00421294 0)
(1.0013 0.00469162 0)
(1.00152 0.00522078 0)
(1.00186 0.00564791 0)
(1.00224 0.00601453 0)
(1.00286 0.00620721 0)
(1.00343 0.00631135 0)
(1.00397 0.00634749 0)
(1.00419 0.0063086 0)
(1.00038 0.00045414 0)
(0.999597 0.000945012 0)
(1.00088 0.00111014 0)
(0.999991 0.00128025 0)
(1.00077 0.00165176 0)
(1.00021 0.00182886 0)
(1.00087 0.00207169 0)
(1.00054 0.00245502 0)
(1.00076 0.00283755 0)
(1.00067 0.00333061 0)
(1.00103 0.0036172 0)
(1.00122 0.00413085 0)
(1.0016 0.00454406 0)
(1.00183 0.00502512 0)
(1.00216 0.00540596 0)
(1.0025 0.00574434 0)
(1.00305 0.00594327 0)
(1.00358 0.00602737 0)
(1.00408 0.00608576 0)
(1.00435 0.00604027 0)
(1.00037 0.00043904 0)
(0.999589 0.000951475 0)
(1.00089 0.00116428 0)
(1.00007 0.00129921 0)
(1.00086 0.0016313 0)
(1.00029 0.00183776 0)
(1.00097 0.002072 0)
(1.0007 0.00243522 0)
(1.00095 0.00281775 0)
(1.00087 0.003338 0)
(1.00123 0.00360668 0)
(1.00147 0.00405414 0)
(1.00188 0.00439906 0)