/*--------------------------------*- C++ -*----------------------------------*\
| =========                 |                                                 |
| \\      /  F ield         | OpenFOAM: The Open Source CFD Toolbox           |
|  \\    /   O peration     | Version:  v1912                                 |
|   \\  /    A nd           | Website:  www.openfoam.com                      |
|    \\/     M anipulation  |                                                 |
\*---------------------------------------------------------------------------*/
FoamFile
{
    version     2.0;
    format      ascii;
    class       volScalarField;
    location    "4.45";
    object      p;
}
// * * * * * * * * * * * * * * * * * * * * * * * * * * * * * * * * * * * * * //

dimensions      [0 2 -2 0 0 0 0];


internalField   nonuniform List<scalar> 
9600
(
-1.08005e-10
0.00255761
0.00305585
0.000443186
0.000269779
0.00481326
0.00179278
0.00618833
0.00767995
0.0103736
0.0128088
0.0121005
0.0121666
0.0137989
0.0135779
0.0152343
0.0158878
0.0183697
0.0180369
0.0219113
-1.47352e-07
0.00258994
0.00304192
0.000422404
0.000280479
0.00482364
0.0017948
0.00617923
0.007689
0.0103743
0.0127999
0.0121029
0.0121814
0.0137984
0.0135786
0.0152025
0.0158993
0.0182382
0.0181497
0.0215708
2.9914e-06
0.00261511
0.00301318
0.000425683
0.000303468
0.00482376
0.00180807
0.00616948
0.00769928
0.0103809
0.0127928
0.0121199
0.0121992
0.0137856
0.0135844
0.0151626
0.0159139
0.018138
0.0182095
0.0211931
1.08368e-05
0.00263037
0.00298343
0.000464209
0.000341346
0.00481807
0.00184797
0.00616169
0.00770517
0.0103977
0.0127781
0.012144
0.0122192
0.0137682
0.0135998
0.0151162
0.0159295
0.0180309
0.018235
0.0208383
2.46975e-05
0.00263625
0.00295715
0.000535128
0.000394038
0.00480634
0.00191934
0.0061529
0.00770603
0.0104178
0.012757
0.0121702
0.0122417
0.0137505
0.0136227
0.0150663
0.0159453
0.0179182
0.0182357
0.0205064
4.49303e-05
0.00263399
0.00293637
0.000633265
0.000458603
0.00479267
0.0020193
0.00614319
0.00770287
0.0104379
0.0127332
0.0121946
0.0122668
0.0137348
0.0136526
0.0150171
0.0159604
0.017803
0.0182153
0.0201939
7.065e-05
0.00262658
0.00292387
0.000752478
0.000530709
0.00477835
0.00213815
0.00613415
0.00769813
0.010457
0.0127085
0.0122149
0.0122944
0.0137216
0.0136886
0.0149701
0.0159734
0.0176897
0.0181742
0.019896
0.000100402
0.00261857
0.00292114
0.000886672
0.000607148
0.00476395
0.00226558
0.00612658
0.00769348
0.0104743
0.0126835
0.0122301
0.0123238
0.0137105
0.0137292
0.0149259
0.0159832
0.0175805
0.0181117
0.0196101
0.000132917
0.00261396
0.00292764
0.00103122
0.000685179
0.00474941
0.00239495
0.00611962
0.00768923
0.0104894
0.012658
0.0122389
0.0123534
0.0137009
0.0137726
0.014885
0.0159886
0.0174767
0.0180286
0.0193352
0.000167349
0.00261516
0.00294195
0.00118259
0.000762661
0.00473493
0.00252502
0.00611227
0.00768509
0.010502
0.0126312
0.0122399
0.0123812
0.0136923
0.0138172
0.0148477
0.0159881
0.0173777
0.0179272
0.0190697
0.000203271
0.00262268
0.00296241
0.00133791
0.000837959
0.00472052
0.00265815
0.00610491
0.0076813
0.0105126
0.0126025
0.0122318
0.0124059
0.0136847
0.0138609
0.0148141
0.0159807
0.0172831
0.0178102
0.0188112
0.000240583
0.00263577
0.00298747
0.00149476
0.000910377
0.00470603
0.00279797
0.00609922
0.00767886
0.0105218
0.0125715
0.012214
0.0124265
0.0136783
0.013902
0.0147841
0.0159657
0.017192
0.0176802
0.018558
0.000279327
0.00265317
0.00301594
0.00165121
0.000980203
0.00469143
0.00294711
0.00609734
0.00767921
0.0105303
0.0125388
0.0121867
0.0124427
0.0136736
0.0139391
0.0147576
0.0159426
0.0171023
0.0175403
0.018309
0.000319582
0.0026738
0.00304713
0.00180596
0.00104847
0.00467694
0.00310636
0.00610075
0.00768361
0.0105385
0.0125049
0.0121501
0.0124545
0.0136712
0.0139715
0.014734
0.0159113
0.0170118
0.017394
0.0180634
0.000361438
0.00269694
0.00308071
0.00195841
0.00111665
0.00466294
0.00327495
0.00610987
0.00769268
0.0105465
0.0124707
0.0120816
0.0124623
0.0136717
0.0139985
0.0147127
0.0158724
0.0169179
0.0172445
0.0178207
0.000405016
0.00272221
0.00311658
0.00210839
0.00118643
0.00464983
0.00345107
0.00612448
0.00770642
0.0105538
0.0124372
0.0120172
0.0124659
0.0136756
0.01402
0.0146927
0.015827
0.0168187
0.0170933
0.0175815
0.000450456
0.00274944
0.00315477
0.002256
0.00125944
0.00463799
0.00363257
0.00614402
0.00772452
0.0105601
0.0124053
0.0119668
0.0124655
0.013683
0.0140365
0.0146723
0.0157767
0.016713
0.0169415
0.0173468
0.000497908
0.00277851
0.00319535
0.00240138
0.00133711
0.00462774
0.00381739
0.00616786
0.00774653
0.0105653
0.0123749
0.0119207
0.012461
0.0136937
0.0140485
0.0146502
0.0157226
0.0166009
0.0167898
0.0171177
0.000547524
0.00280939
0.00323846
0.00254464
0.00142059
0.00461934
0.00400383
0.00619542
0.007772
0.0105692
0.012346
0.0118762
0.0124522
0.0137069
0.0140571
0.0146248
0.0156653
0.0164834
0.0166374
0.0168957
0.000599459
0.00284208
0.00328425
0.0026857
0.00151073
0.00461304
0.00419052
0.00622629
0.00780042
0.010572
0.0123181
0.0118341
0.0124389
0.0137216
0.0140634
0.0145948
0.0156051
0.0163619
0.016483
0.0166821
0.000653891
0.00287661
0.00333291
0.0028243
0.00160787
0.00460912
0.00437635
0.00626025
0.00783132
0.0105742
0.0122909
0.0117948
0.0124211
0.0137365
0.0140684
0.0145596
0.0155415
0.016238
0.0163254
0.0164777
0.00071102
0.00291299
0.00338466
0.00296009
0.00171193
0.00460787
0.00456044
0.00629718
0.00786423
0.0105761
0.012264
0.0117585
0.0123989
0.0137503
0.0140727
0.0145187
0.0154741
0.0161138
0.0161649
0.0162819
0.000771043
0.00295124
0.0034397
0.0030926
0.00182268
0.00460957
0.00474201
0.00633713
0.00789865
0.0105783
0.012237
0.011725
0.0123724
0.0137617
0.0140768
0.0144724
0.0154019
0.0159905
0.0160027
0.016093
0.000834174
0.00299137
0.00349819
0.00322148
0.00193979
0.00461458
0.00492037
0.00638025
0.00793406
0.0105811
0.0122097
0.0116943
0.012342
0.0137698
0.0140809
0.0144212
0.0153238
0.0158686
0.015841
0.0159095
0.000900653
0.00303335
0.00356028
0.00334652
0.00206295
0.00462333
0.00509496
0.0064259
0.00796998
0.010585
0.0121822
0.0116662
0.0123083
0.0137734
0.0140853
0.0143659
0.015239
0.015748
0.0156818
0.0157312
0.000970742
0.00307713
0.0036261
0.00346765
0.00219181
0.00463634
0.00526527
0.0064761
0.00800595
0.0105902
0.0121546
0.0116403
0.0122717
0.013772
0.0140897
0.0143074
0.0151475
0.0156281
0.015527
0.0155594
0.00104473
0.00312265
0.00369578
0.00358497
0.00232606
0.00465413
0.00543091
0.00653018
0.00804167
0.0105967
0.0121272
0.0116163
0.0122327
0.0137647
0.0140937
0.0142464
0.0150494
0.0155087
0.0153775
0.0153945
0.00112293
0.00316989
0.00376945
0.00369873
0.00246543
0.00467728
0.00559149
0.00658834
0.00807687
0.0106045
0.0121006
0.0115938
0.0121917
0.0137512
0.0140969
0.0141836
0.0149453
0.0153907
0.0152322
0.0152343
0.00120561
0.00321885
0.00384717
0.00380929
0.00260965
0.00470629
0.00574667
0.00665085
0.00811134
0.0106137
0.0120754
0.011572
0.0121488
0.0137315
0.0140989
0.0141198
0.0148354
0.0152745
0.0150914
0.0150752
0.00129307
0.0032696
0.00392898
0.00391709
0.00275841
0.00474167
0.00589619
0.00671793
0.00814493
0.0106238
0.0120523
0.0115503
0.0121036
0.0137058
0.0140997
0.0140558
0.0147198
0.0151597
0.0149585
0.0149148
0.00138556
0.00332222
0.00401485
0.00402256
0.00291135
0.00478392
0.00603988
0.00678975
0.00817767
0.0106343
0.0120321
0.0115287
0.0120555
0.0136743
0.0140994
0.0139923
0.0145991
0.0150451
0.0148368
0.0147547
0.00148339
0.00337688
0.00410459
0.00412616
0.00306798
0.00483333
0.00617758
0.00686651
0.00820978
0.0106442
0.0120155
0.0115075
0.0120035
0.0136374
0.0140983
0.0139303
0.0144743
0.0149294
0.0147277
0.014601
0.00158682
0.00343374
0.00419797
0.00422838
0.0032278
0.00489022
0.00630917
0.00694819
0.00824159
0.0106529
0.012003
0.0114874
0.0119465
0.013595
0.0140973
0.0138699
0.0143465
0.0148117
0.0146305
0.0144615
0.00169603
0.00349302
0.00429468
0.00432966
0.00339029
0.00495486
0.00643472
0.0070346
0.00827348
0.0106595
0.0119951
0.011469
0.0118833
0.0135463
0.0140981
0.0138123
0.0142156
0.0146921
0.014542
0.0143405
0.00181123
0.00355495
0.00439439
0.00443051
0.00355492
0.00502719
0.00655431
0.00712574
0.00830609
0.0106631
0.0119916
0.011454
0.0118132
0.0134895
0.014102
0.01376
0.0140815
0.0145713
0.0144618
0.0142393
0.0019326
0.00361969
0.00449674
0.00453144
0.0037212
0.00510745
0.00666799
0.00722125
0.00834045
0.0106625
0.0119922
0.0114445
0.0117363
0.0134216
0.0141091
0.013717
0.0139437
0.0144467
0.0143916
0.0141602
0.00206031
0.00368744
0.00460144
0.00463311
0.00388852
0.00519565
0.00677631
0.00732048
0.00837718
0.0106572
0.0119959
0.0114421
0.0116534
0.0133401
0.0141185
0.0136885
0.013804
0.0143132
0.0143314
0.014106
0.00219451
0.00375844
0.00470822
0.0047362
0.00405652
0.00529157
0.00687946
0.00742297
0.00841724
0.0106471
0.0120015
0.0114477
0.011566
0.0132426
0.0141276
0.0136782
0.0136661
0.0142043
0.0142802
0.0140785
0.00233538
0.00383281
0.0048169
0.00484134
0.00422436
0.00539542
0.00697842
0.0075277
0.00846148
0.0106322
0.0120076
0.0114632
0.0114764
0.0131267
0.0141327
0.0136884
0.0135321
0.0140545
0.0142318
0.0140781
0.00248302
0.00391058
0.00492737
0.0049497
0.00439136
0.00550622
0.00707444
0.00763414
0.00851041
0.0106134
0.0120115
0.0114894
0.0113884
0.0129897
0.0141285
0.0137221
0.01341
0.0138857
0.0141803
0.0141001
0.0026376
0.00399191
0.00503928
0.0050622
0.00455736
0.00562362
0.00716787
0.00774119
0.0085652
0.0105921
0.0120111
0.0115246
0.0113077
0.0128326
0.0141042
0.0137764
0.0133121
0.0137076
0.0141226
0.0141407
0.00279917
0.00407698
0.00515252
0.00517926
0.00472152
0.00574687
0.00726075
0.00784772
0.00862546
0.0105697
0.0120063
0.0115674
0.0112375
0.0126579
0.014053
0.0138417
0.0132412
0.0135704
0.0140674
0.0142103
0.00296789
0.00416599
0.00526661
0.00530261
0.00488424
0.00587387
0.00735426
0.00795403
0.00869051
0.0105473
0.0119958
0.0116174
0.0111829
0.0124693
0.0139681
0.0139019
0.0132016
0.0132968
0.0139827
0.0143195
0.00314381
0.00425957
0.00538066
0.00543304
0.0050462
0.00600347
0.00744906
0.00806017
0.0087604
0.0105262
0.0119791
0.0116709
0.011149
0.0122812
0.0138467
0.0139514
0.0132091
0.0131719
0.0138949
0.0144056
0.00332676
0.00435801
0.00549406
0.00557164
0.00520835
0.00613339
0.00754588
0.00816704
0.00883444
0.0105075
0.0119567
0.011726
0.0111361
0.0121062
0.0137209
0.0140185
0.0132544
0.0129813
0.0136584
0.0143411
0.0035167
0.00446209
0.00560584
0.00571848
0.00537313
0.00626211
0.00764396
0.00827564
0.00891256
0.0104925
0.0119284
0.0117814
0.0111484
0.0119488
0.0135798
0.0141132
0.0133844
0.0128935
0.0134039
0.0141125
0.00371333
0.00457283
0.00571374
0.0058733
0.00554298
0.0063886
0.00774206
0.00838692
0.00899546
0.0104822
0.0118958
0.0118332
0.0111855
0.0118152
0.0133779
0.014064
0.0134019
0.0127739
0.013188
0.0141073
0.00391623
0.00469083
0.00581814
0.00603499
0.00572053
0.0065128
0.00783778
0.00850057
0.00908526
0.0104768
0.0118582
0.0118832
0.0112381
0.0117009
0.0132041
0.0140853
0.0135818
0.012797
0.012937
0.0137376
0.00412486
0.00481774
0.00591846
0.00620091
0.0059087
0.00663583
0.00792869
0.00861613
0.00918181
0.0104798
0.0118185
0.0119242
0.0113017
0.0116173
0.0130156
0.0139872
0.0136172
0.0127753
0.0126934
0.0134583
0.00433854
0.00495425
0.00601544
0.00636797
0.00610884
0.00676046
0.008013
0.00873092
0.00928591
0.0104926
0.0117765
0.0119535
0.0113756
0.0115566
0.0128125
0.0138623
0.0137206
0.0129127
0.0126413
0.0132432
0.00455626
0.00510152
0.00611041
0.00653158
0.00632064
0.00689112
0.00809013
0.00884148
0.00939667
0.0105159
0.0117363
0.011971
0.0114483
0.0115146
0.0126244
0.0137206
0.0137402
0.0129695
0.0125925
0.0130566
0.0047774
0.00526021
0.00620469
0.00668984
0.00654273
0.00703136
0.00816136
0.00894371
0.00951151
0.0105516
0.0116999
0.011976
0.0115163
0.011498
0.0124572
0.0135538
0.0137326
0.0130604
0.0125997
0.0129327
0.00500106
0.00543014
0.00630198
0.00684047
0.00677083
0.00718493
0.00822982
0.00903379
0.00962673
0.0105989
0.0116723
0.0119737
0.0115764
0.0115003
0.0123146
0.0133787
0.0136978
0.0131489
0.0126319
0.0128501
0.00522636
0.00561163
0.00640494
0.00698181
0.00700028
0.00735372
0.00830017
0.00911094
0.00973583
0.0106566
0.0116585
0.0119661
0.0116249
0.0115186
0.0122024
0.0132066
0.013633
0.0132271
0.0126931
0.0127993
0.00545268
0.00580383
0.00651711
0.00711395
0.007225
0.00753726
0.00837855
0.00917577
0.00983345
0.0107216
0.0116588
0.0119606
0.0116661
0.0115463
0.0121178
0.0130456
0.0135446
0.0132901
0.0127855
0.0127767
0.00567917
0.00600602
0.00664158
0.00723707
0.00743969
0.00773375
0.00847031
0.00923196
0.00991486
0.0107866
0.0116729
0.0119641
0.0117028
0.0115764
0.0120565
0.0129081
0.0134475
0.0133201
0.0128892
0.012791
0.00590546
0.0062166
0.00678021
0.00735398
0.00764059
0.00793911
0.00857915
0.0092854
0.00997769
0.0108441
0.0116989
0.0119803
0.0117404
0.0116112
0.0120153
0.0127915
0.0133478
0.0133203
0.0129833
0.0128514
0.00613138
0.00643303
0.00693399
0.00746983
0.00782466
0.00814695
0.00870708
0.00934371
0.0100234
0.0108852
0.0117297
0.0120127
0.0117851
0.011651
0.0119915
0.0126903
0.0132621
0.013313
0.0130549
0.0129424
0.0063573
0.00665265
0.00710215
0.00759049
0.00799164
0.0083493
0.00885286
0.00941549
0.0100579
0.0109044
0.0117526
0.0120598
0.0118467
0.0116978
0.0119842
0.0126059
0.0131798
0.0133124
0.0131081
0.0130241
0.0065834
0.00687346
0.00728304
0.00771959
0.00814307
0.0085399
0.0090125
0.00950667
0.0100923
0.0109028
0.0117556
0.0121132
0.0119307
0.0117583
0.0119903
0.0125412
0.0131079
0.0133179
0.0131677
0.0130889
0.00680982
0.00709398
0.00747356
0.00785887
0.00828296
0.00871598
0.00917846
0.00961663
0.0101386
0.0108894
0.0117358
0.0121578
0.0120327
0.0118392
0.0120084
0.0124948
0.0130236
0.0133133
0.0132469
0.0131573
0.00703675
0.00731303
0.00766971
0.00800956
0.00841642
0.00887631
0.00934369
0.00974162
0.0102027
0.0108803
0.0116976
0.012183
0.012139
0.0119417
0.0120423
0.0124668
0.0129538
0.0132835
0.0133231
0.0132483
0.00726396
0.00752999
0.00786774
0.0081709
0.00854947
0.00902151
0.00950256
0.00987552
0.0102835
0.0108872
0.0116541
0.0121858
0.0122363
0.0120608
0.0120951
0.0124531
0.0129043
0.0132434
0.0133746
0.0133608
0.00749089
0.00774458
0.0080647
0.00834079
0.0086866
0.00915462
0.00965087
0.0100132
0.0103788
0.0109136
0.011618
0.0121695
0.0123136
0.0121882
0.012169
0.0124516
0.0128709
0.0131879
0.013389
0.0134668
0.00771671
0.00795659
0.00825889
0.00851681
0.00882998
0.00927958
0.00978693
0.01015
0.0104854
0.0109587
0.0115968
0.0121445
0.0123662
0.0123122
0.0122663
0.0124665
0.0128538
0.0131755
0.0133924
0.0135411
0.00794032
0.00816598
0.00844951
0.00869546
0.00898024
0.00940096
0.00991065
0.0102816
0.0105993
0.0110205
0.0115932
0.012122
0.0123982
0.0124187
0.0123815
0.0125062
0.0128426
0.0131731
0.0134004
0.0135901
0.00816061
0.00837255
0.00863633
0.00887329
0.00913593
0.00952241
0.0100236
0.0104052
0.0107167
0.0110959
0.0116073
0.0121081
0.0124199
0.0125037
0.0124973
0.0125755
0.0128445
0.0131718
0.0134185
0.0136312
0.00837639
0.00857581
0.0088193
0.0090479
0.00929496
0.00964565
0.010128
0.0105193
0.0108344
0.011181
0.0116384
0.0121059
0.012438
0.0125732
0.0126004
0.0126647
0.0128734
0.013173
0.0134383
0.0136701
0.00858652
0.00877501
0.00899809
0.00921712
0.00945472
0.00977249
0.0102264
0.0106221
0.0109492
0.0112728
0.0116837
0.0121181
0.0124555
0.0126339
0.0126935
0.0127569
0.0129292
0.0131884
0.0134556
0.013706
0.00878996
0.00896902
0.00917262
0.00937999
0.00961116
0.00990172
0.0103229
0.0107149
0.0110565
0.011368
0.0117412
0.0121451
0.0124755
0.0126861
0.0127826
0.0128476
0.013
0.0132263
0.0134808
0.0137413
0.00898542
0.00915663
0.00934222
0.00953642
0.00976188
0.01003
0.0104177
0.0108007
0.0111546
0.0114605
0.0118081
0.0121898
0.0125062
0.0127312
0.0128687
0.0129399
0.0130713
0.0132768
0.0135141
0.0137779
0.00917197
0.00933677
0.00950574
0.00968459
0.00990508
0.010157
0.0105102
0.0108782
0.0112439
0.0115475
0.0118737
0.0122431
0.0125521
0.0127819
0.012958
0.0130538
0.0131624
0.0133431
0.0135571
0.0138117
0.00934796
0.00950843
0.00966267
0.00982393
0.0100371
0.0102779
0.0106016
0.0109486
0.0113221
0.0116337
0.0119429
0.0122957
0.0125977
0.012817
0.0130184
0.0131616
0.0132775
0.0134552
0.0136867
0.0139509
0.00951217
0.00966949
0.00981219
0.0099556
0.0101583
0.0103867
0.0106858
0.0110102
0.0113794
0.0117083
0.0120305
0.0123842
0.0127011
0.0129203
0.013109
0.0132623
0.0133597
0.0134795
0.0136731
0.0139079
0.00966296
0.00981758
0.00995149
0.0100784
0.0102699
0.0104858
0.0107625
0.0110655
0.0114122
0.0117228
0.0120393
0.0123888
0.0127314
0.0130075
0.0132542
0.0134888
0.0136539
0.0137931
0.0139794
0.0142293
0.00980178
0.00995063
0.0100761
0.0101875
0.0103673
0.0105709
0.0108325
0.0111245
0.011488
0.011837
0.0121876
0.012534
0.0128426
0.0130872
0.0132707
0.0134505
0.0136093
0.0137087
0.0138287
0.0140091
0.00992794
0.0100712
0.0101831
0.0102774
0.0104377
0.0106226
0.0108535
0.011083
0.0113487
0.0116264
0.0119826
0.0124436
0.0129361
0.0134096
0.013799
0.0141127
0.0144141
0.0147261
0.0150406
0.0153186
0.0100314
0.0101829
0.0103058
0.0103943
0.0105399
0.0107051
0.0109346
0.0111975
0.0115377
0.0119029
0.0122898
0.012679
0.0129984
0.0132373
0.0134561
0.0136109
0.0137643
0.0138582
0.0139402
0.014069
0.0101003
0.0102152
0.0103259
0.0104154
0.0105604
0.0107224
0.0109549
0.0112023
0.0114874
0.0118338
0.0122033
0.0126164
0.0130578
0.0134398
0.0138235
0.0141998
0.0145623
0.0149069
0.0152083
0.0154494
0.0102459
0.0103988
0.0104854
0.0105228
0.0106194
0.0107301
0.0109132
0.0111226
0.0113936
0.0118123
0.0123302
0.0127868
0.0132079
0.0135093
0.0137355
0.0139652
0.0142027
0.0144662
0.0147067
0.0148955
0.0252539
0.0205428
0.013388
0.00772653
0.00646992
0.00798932
0.00965482
0.0107985
0.0116232
0.0122898
0.0128852
0.0134794
0.0140654
0.0145663
0.0149748
0.0154653
0.0160532
0.0165377
0.0169313
0.0173678
0.01779
0.0182195
0.0187386
0.0192399
0.019691
0.0201889
0.020722
0.0212811
0.0218911
0.0225085
0.0230848
0.0236781
0.0242972
0.0248923
0.0254948
0.0260869
0.0266407
0.0272179
0.0278593
0.0284989
0.0291161
0.0297783
0.0304713
0.0311324
0.0317798
0.0324586
0.033211
0.0339977
0.0347612
0.0354064
0.0359863
0.0367168
0.0375105
0.0382428
0.0390258
0.0399023
0.0407456
0.0416121
0.0425009
0.0434696
0.0445272
0.0453417
0.0457872
0.0462877
0.0473742
0.0487748
0.04994
0.0508768
0.0518974
0.0529626
0.0540073
0.0550526
0.0560728
0.0571315
0.0582513
0.0593422
0.0605119
0.0618066
0.0630124
0.0642025
0.0655075
0.0669039
0.0682483
0.069617
0.0709816
0.0723216
0.0737253
0.0752121
0.0767435
0.0782963
0.0798613
0.0814475
0.0829795
0.0845672
0.0861818
0.0878378
0.0894612
0.0910224
0.0925071
0.0938315
0.0245984
0.0204118
0.0134732
0.00787938
0.00656746
0.00803836
0.00968491
0.0108183
0.0116375
0.012301
0.0128945
0.0134874
0.0140725
0.0145725
0.0149799
0.0154696
0.0160573
0.0165416
0.0169346
0.0173708
0.0177926
0.0182217
0.0187407
0.0192419
0.0196928
0.0201905
0.0207235
0.0212823
0.0218922
0.0225097
0.0230858
0.023679
0.0242981
0.0248931
0.0254956
0.0260877
0.0266415
0.0272186
0.02786
0.0284997
0.0291168
0.029779
0.0304719
0.0311331
0.0317804
0.0324591
0.0332115
0.0339982
0.0347618
0.0354071
0.0359868
0.0367173
0.037511
0.0382433
0.0390262
0.0399027
0.040746
0.0416125
0.0425013
0.0434699
0.0445276
0.0453423
0.0457877
0.0462879
0.0473743
0.0487751
0.0499404
0.0508771
0.0518976
0.0529629
0.0540076
0.0550528
0.056073
0.0571316
0.0582515
0.0593424
0.060512
0.0618067
0.0630126
0.0642026
0.0655076
0.0669041
0.0682485
0.0696171
0.0709817
0.0723218
0.0737254
0.0752122
0.0767436
0.0782964
0.0798614
0.0814476
0.0829796
0.0845672
0.0861819
0.0878379
0.0894613
0.0910224
0.0925071
0.0938315
0.0239812
0.0202592
0.0136357
0.00816099
0.00673174
0.00809643
0.00971174
0.010839
0.0116543
0.0123145
0.0129053
0.0134961
0.0140798
0.0145789
0.0149851
0.0154739
0.0160614
0.0165452
0.0169377
0.0173736
0.0177951
0.0182237
0.0187425
0.0192437
0.0196942
0.0201918
0.0207247
0.0212834
0.0218932
0.0225107
0.0230866
0.0236798
0.0242989
0.0248938
0.0254962
0.0260884
0.0266421
0.0272191
0.0278606
0.0285003
0.0291173
0.0297795
0.0304725
0.0311337
0.0317809
0.0324596
0.0332119
0.0339987
0.0347623
0.0354076
0.0359872
0.0367176
0.0375115
0.0382437
0.0390265
0.0399031
0.0407464
0.0416128
0.0425016
0.0434701
0.044528
0.0453429
0.0457881
0.0462879
0.0473743
0.0487754
0.0499408
0.0508773
0.0518978
0.0529631
0.0540078
0.055053
0.0560732
0.0571318
0.0582516
0.0593425
0.0605121
0.0618069
0.0630128
0.0642027
0.0655077
0.0669042
0.0682486
0.0696172
0.0709819
0.0723218
0.0737255
0.0752123
0.0767437
0.0782965
0.0798615
0.0814477
0.0829797
0.0845673
0.086182
0.087838
0.0894613
0.0910225
0.0925072
0.0938316
0.0233917
0.0201027
0.0138442
0.00851508
0.00695764
0.00818009
0.00975264
0.0108713
0.0116802
0.0123346
0.012921
0.0135083
0.0140897
0.0145876
0.0149928
0.0154802
0.0160665
0.0165498
0.016942
0.0173778
0.0177988
0.0182267
0.0187451
0.0192459
0.0196962
0.0201936
0.0207264
0.0212848
0.0218946
0.022512
0.0230877
0.0236807
0.0242999
0.0248946
0.025497
0.0260891
0.0266427
0.0272196
0.0278611
0.0285009
0.0291179
0.02978
0.0304731
0.0311342
0.0317814
0.03246
0.0332124
0.0339992
0.0347629
0.0354082
0.0359875
0.0367179
0.0375119
0.0382441
0.0390268
0.0399035
0.0407468
0.0416131
0.0425018
0.0434703
0.0445285
0.0453437
0.0457885
0.0462876
0.0473742
0.0487758
0.0499412
0.0508776
0.051898
0.0529633
0.054008
0.0550533
0.0560734
0.0571319
0.0582518
0.0593427
0.0605122
0.0618071
0.063013
0.0642028
0.0655078
0.0669044
0.0682487
0.0696173
0.070982
0.0723219
0.0737255
0.0752124
0.0767438
0.0782966
0.0798616
0.0814478
0.0829798
0.0845674
0.0861821
0.0878381
0.0894614
0.0910226
0.0925074
0.0938317
0.0228146
0.0199348
0.0140607
0.00888933
0.0072087
0.00827678
0.00979988
0.010911
0.0117141
0.0123619
0.012943
0.0135255
0.014103
0.0145995
0.015004
0.0154893
0.0160731
0.0165553
0.0169477
0.0173839
0.0178048
0.0182317
0.0187491
0.0192492
0.019699
0.0201962
0.0207288
0.021287
0.0218965
0.0225138
0.0230893
0.0236821
0.0243012
0.0248957
0.025498
0.02609
0.0266434
0.0272202
0.0278617
0.0285015
0.0291184
0.0297806
0.0304737
0.0311347
0.031782
0.0324606
0.033213
0.0339998
0.0347635
0.0354089
0.0359879
0.0367181
0.0375124
0.0382445
0.0390271
0.0399039
0.0407472
0.0416134
0.0425021
0.0434706
0.044529
0.0453446
0.0457888
0.0462872
0.0473741
0.0487763
0.0499418
0.0508778
0.0518982
0.0529636
0.0540082
0.0550535
0.0560736
0.0571321
0.058252
0.0593428
0.0605123
0.0618073
0.0630132
0.0642029
0.0655079
0.0669045
0.0682489
0.0696175
0.0709822
0.072322
0.0737256
0.0752125
0.0767439
0.0782967
0.0798617
0.0814479
0.0829799
0.0845675
0.0861822
0.0878382
0.0894616
0.0910228
0.0925077
0.093832
0.0222483
0.0197462
0.014268
0.00926776
0.00747458
0.00838113
0.00984789
0.0109523
0.0117519
0.0123939
0.0129698
0.0135466
0.0141194
0.0146144
0.0150188
0.0155014
0.0160813
0.0165621
0.0169549
0.0173918
0.0178129
0.0182393
0.0187552
0.0192541
0.0197034
0.0202002
0.0207323
0.02129
0.0218991
0.0225161
0.0230913
0.0236839
0.0243029
0.0248972
0.0254993
0.0260911
0.0266443
0.027221
0.0278624
0.0285021
0.0291189
0.0297811
0.0304742
0.0311351
0.0317825
0.0324613
0.0332137
0.0340004
0.0347642
0.0354097
0.0359883
0.0367184
0.0375129
0.0382449
0.0390274
0.0399043
0.0407476
0.0416138
0.0425025
0.0434708
0.0445297
0.0453456
0.0457893
0.0462867
0.0473739
0.0487769
0.0499424
0.0508781
0.0518984
0.0529639
0.0540085
0.0550538
0.0560738
0.0571322
0.0582522
0.059343
0.0605124
0.0618075
0.0630134
0.0642029
0.065508
0.0669047
0.068249
0.0696176
0.0709824
0.0723221
0.0737257
0.0752126
0.076744
0.0782969
0.0798619
0.081448
0.08298
0.0845676
0.0861823
0.0878383
0.0894618
0.091023
0.0925081
0.0938324
0.0216955
0.0195364
0.0144622
0.00964736
0.00775459
0.00849372
0.00989622
0.0109938
0.0117921
0.0124292
0.0129998
0.0135706
0.014138
0.0146314
0.015036
0.0155155
0.0160907
0.0165698
0.0169634
0.017401
0.0178228
0.0182489
0.0187631
0.0192608
0.0197096
0.0202058
0.0207372
0.0212942
0.0219026
0.022519
0.0230938
0.0236861
0.024305
0.0248992
0.025501
0.0260926
0.0266456
0.0272222
0.0278633
0.0285028
0.0291196
0.0297818
0.0304746
0.0311352
0.031783
0.0324621
0.0332145
0.034001
0.0347648
0.0354106
0.0359889
0.0367188
0.0375134
0.0382453
0.0390277
0.0399047
0.0407479
0.0416141
0.0425028
0.0434712
0.0445304
0.0453468
0.0457897
0.0462861
0.0473737
0.0487776
0.049943
0.0508784
0.0518987
0.0529642
0.0540089
0.0550542
0.0560741
0.0571325
0.0582525
0.0593431
0.0605125
0.0618078
0.0630136
0.064203
0.065508
0.0669049
0.0682492
0.0696177
0.0709826
0.0723222
0.0737258
0.0752127
0.0767441
0.078297
0.079862
0.0814482
0.0829802
0.0845677
0.0861824
0.0878384
0.089462
0.0910234
0.0925088
0.0938329
0.0211624
0.0193091
0.0146402
0.0100255
0.00804899
0.00861661
0.00994586
0.0110353
0.0118341
0.0124671
0.0130322
0.0135966
0.0141583
0.0146498
0.0150547
0.0155309
0.0161011
0.0165786
0.0169728
0.017411
0.0178337
0.0182596
0.0187723
0.019269
0.0197177
0.0202132
0.0207435
0.0212996
0.0219069
0.0225226
0.0230969
0.0236887
0.0243074
0.0249013
0.025503
0.0260944
0.0266474
0.0272238
0.0278645
0.0285037
0.0291206
0.0297827
0.030475
0.0311352
0.0317833
0.0324628
0.0332153
0.0340014
0.0347655
0.0354118
0.0359898
0.0367194
0.0375141
0.038246
0.0390281
0.0399051
0.0407481
0.0416142
0.0425031
0.0434716
0.0445312
0.0453482
0.0457903
0.0462856
0.0473736
0.0487784
0.0499437
0.0508788
0.051899
0.0529646
0.0540093
0.0550546
0.0560744
0.0571327
0.0582528
0.0593434
0.0605127
0.0618081
0.0630139
0.0642031
0.0655082
0.0669052
0.0682494
0.0696179
0.0709828
0.0723223
0.0737259
0.0752128
0.0767442
0.0782972
0.0798622
0.0814483
0.0829803
0.0845678
0.0861826
0.0878386
0.0894623
0.0910239
0.0925097
0.0938336
0.0206547
0.0190668
0.0147985
0.0103997
0.00835792
0.00875163
0.00999758
0.0110764
0.0118775
0.0125074
0.0130668
0.0136244
0.01418
0.0146694
0.0150743
0.0155472
0.0161122
0.0165881
0.0169831
0.0174218
0.017845
0.0182709
0.018782
0.0192781
0.0197271
0.020222
0.0207512
0.0213059
0.0219119
0.0225268
0.0231005
0.0236916
0.0243098
0.0249035
0.0255049
0.0260964
0.0266497
0.0272261
0.0278662
0.028505
0.0291218
0.0297839
0.0304757
0.0311352
0.0317835
0.0324635
0.0332159
0.0340015
0.0347658
0.035413
0.0359911
0.0367202
0.037515
0.0382469
0.0390287
0.0399055
0.0407482
0.041614
0.0425031
0.0434719
0.0445321
0.0453497
0.0457911
0.0462852
0.0473735
0.0487792
0.0499443
0.0508791
0.0518993
0.052965
0.0540098
0.0550552
0.0560749
0.0571331
0.0582532
0.0593437
0.060513
0.0618086
0.0630142
0.0642031
0.0655083
0.0669055
0.0682496
0.0696181
0.070983
0.0723224
0.073726
0.075213
0.0767443
0.0782974
0.0798624
0.0814485
0.0829805
0.0845679
0.0861828
0.0878388
0.0894626
0.0910246
0.0925109
0.0938345
0.0201755
0.0188131
0.0149352
0.0107675
0.00867962
0.00889949
0.0100518
0.0111163
0.0119214
0.0125497
0.0131033
0.0136535
0.0142026
0.0146897
0.0150946
0.0155642
0.016124
0.0165983
0.016994
0.0174331
0.0178569
0.0182826
0.0187921
0.0192877
0.0197373
0.0202318
0.0207599
0.0213132
0.0219175
0.0225314
0.0231046
0.0236948
0.0243123
0.0249056
0.0255066
0.0260983
0.0266522
0.0272289
0.0278682
0.0285066
0.0291235
0.0297855
0.0304767
0.0311356
0.0317839
0.0324641
0.0332164
0.0340011
0.0347655
0.0354141
0.0359925
0.0367212
0.0375162
0.0382483
0.0390298
0.0399062
0.0407484
0.0416136
0.0425025
0.0434716
0.0445327
0.0453514
0.0457922
0.0462851
0.0473738
0.04878
0.0499449
0.0508794
0.0518995
0.0529653
0.0540104
0.0550557
0.0560754
0.0571336
0.0582537
0.059344
0.0605134
0.0618092
0.0630146
0.0642033
0.0655084
0.0669059
0.0682499
0.0696183
0.0709832
0.0723225
0.0737261
0.0752131
0.0767444
0.0782976
0.0798626
0.0814487
0.0829806
0.0845681
0.086183
0.0878391
0.0894631
0.0910256
0.0925125
0.0938355
0.0197274
0.0185535
0.0150494
0.0111246
0.00901077
0.00906073
0.0101094
0.0111548
0.0119653
0.0125937
0.0131416
0.0136838
0.014226
0.0147104
0.0151154
0.0155817
0.0161363
0.016609
0.0170054
0.0174449
0.0178692
0.0182947
0.0188025
0.0192975
0.0197479
0.0202422
0.0207693
0.0213211
0.0219235
0.0225365
0.0231092
0.0236983
0.0243149
0.0249077
0.0255081
0.0260999
0.0266549
0.0272321
0.0278706
0.0285085
0.0291254
0.0297872
0.0304778
0.0311362
0.0317848
0.0324649
0.0332166
0.0340003
0.0347645
0.0354147
0.0359937
0.0367222
0.0375176
0.03825
0.0390314
0.0399075
0.0407491
0.0416133
0.0425014
0.0434705
0.0445323
0.0453527
0.0457935
0.0462855
0.0473745
0.0487812
0.0499455
0.0508797
0.0518996
0.0529655
0.0540108
0.0550563
0.0560759
0.0571342
0.0582543
0.0593445
0.060514
0.0618099
0.0630151
0.0642035
0.0655087
0.0669063
0.0682502
0.0696186
0.0709836
0.0723227
0.0737263
0.0752133
0.0767445
0.0782978
0.0798628
0.0814488
0.0829808
0.0845683
0.0861834
0.0878394
0.0894636
0.0910269
0.0925145
0.0938368
0.0193127
0.0182931
0.0151398
0.0114665
0.00934825
0.00923608
0.0101714
0.0111917
0.0120086
0.0126396
0.0131819
0.0137152
0.0142497
0.0147314
0.0151364
0.0155996
0.0161492
0.0166201
0.0170173
0.0174572
0.0178822
0.0183075
0.0188135
0.0193077
0.0197588
0.020253
0.0207793
0.0213295
0.0219298
0.0225418
0.023114
0.0237021
0.0243177
0.0249098
0.0255094
0.0261012
0.0266574
0.0272357
0.0278732
0.0285106
0.0291277
0.0297891
0.030479
0.0311371
0.0317861
0.032466
0.0332168
0.033999
0.0347629
0.0354145
0.0359945
0.0367232
0.037519
0.0382519
0.0390332
0.0399093
0.0407504
0.0416133
0.0425001
0.0434681
0.0445306
0.0453531
0.0457946
0.0462863
0.047376
0.0487828
0.0499463
0.0508799
0.0518997
0.0529656
0.0540111
0.0550567
0.0560764
0.0571349
0.0582549
0.0593451
0.0605147
0.0618109
0.0630159
0.0642039
0.065509
0.0669068
0.0682506
0.069619
0.070984
0.0723229
0.0737264
0.0752134
0.0767446
0.0782981
0.079863
0.081449
0.0829811
0.0845685
0.0861837
0.0878398
0.0894642
0.0910285
0.0925169
0.0938384
0.0189312
0.018036
0.0152063
0.0117898
0.00968907
0.00942589
0.0102394
0.0112275
0.0120512
0.0126872
0.0132244
0.0137478
0.0142738
0.0147523
0.0151573
0.0156178
0.0161625
0.0166317
0.0170296
0.01747
0.0178956
0.0183209
0.018825
0.0193183
0.01977
0.0202642
0.0207898
0.0213385
0.0219366
0.0225474
0.0231192
0.0237062
0.0243206
0.0249121
0.0255108
0.0261023
0.0266599
0.0272394
0.0278762
0.0285128
0.0291301
0.0297912
0.0304801
0.031138
0.0317878
0.0324674
0.033217
0.0339975
0.0347606
0.0354137
0.0359948
0.0367238
0.0375204
0.0382537
0.0390349
0.0399113
0.0407522
0.0416139
0.0424986
0.0434647
0.0445269
0.0453519
0.0457947
0.0462869
0.0473781
0.0487852
0.0499474
0.0508803
0.0518997
0.0529654