/*--------------------------------*- C++ -*----------------------------------*\
| =========                 |                                                 |
| \\      /  F ield         | OpenFOAM: The Open Source CFD Toolbox           |
|  \\    /   O peration     | Version:  v1912                                 |
|   \\  /    A nd           | Website:  www.openfoam.com                      |
|    \\/     M anipulation  |                                                 |
\*---------------------------------------------------------------------------*/
FoamFile
{
    version     2.0;
    format      ascii;
    class       surfaceScalarField;
    location    "4.45";
    object      phi;
}
// * * * * * * * * * * * * * * * * * * * * * * * * * * * * * * * * * * * * * //

dimensions      [0 3 -1 0 0 0 0];
oriented        oriented;


internalField   nonuniform List<scalar> 
19000
(
1.17918e-06
-1.10289e-06
1.26015e-06
2.15586e-07
1.19156e-06
1.12238e-06
1.0906e-06
1.05013e-06
1.18115e-06
-2.55875e-06
1.24713e-06
-2.00913e-06
1.23007e-06
-8.97569e-07
1.21745e-06
9.8609e-07
1.24083e-06
3.7962e-07
1.2185e-06
3.44413e-07
1.20373e-06
-5.59457e-08
1.21396e-06
-2.59396e-07
1.24123e-06
-6.62507e-07
1.2344e-06
-4.0462e-07
1.2214e-06
-3.05297e-07
1.20448e-06
-8.95966e-08
1.20443e-06
-8.89767e-08
1.19363e-06
2.22852e-08
1.19038e-06
2.82629e-08
1.10641e-07
1.17225e-06
1.24153e-06
-1.12016e-06
1.32714e-06
1.29977e-07
1.24998e-06
1.19955e-06
1.17355e-06
1.12656e-06
1.24883e-06
-2.63403e-06
1.29554e-06
-2.05584e-06
1.28881e-06
-8.90848e-07
1.29112e-06
9.83785e-07
1.30604e-06
3.64696e-07
1.29862e-06
3.51833e-07
1.27069e-06
-2.80122e-08
1.28119e-06
-2.69898e-07
1.30123e-06
-6.82543e-07
1.30389e-06
-4.07286e-07
1.28354e-06
-2.84948e-07
1.27944e-06
-8.54897e-08
1.26142e-06
-7.09641e-08
1.27157e-06
1.21434e-08
1.23915e-06
6.06823e-08
9.19785e-08
1.25781e-06
1.30215e-06
-1.13952e-06
1.39828e-06
3.38421e-08
1.32332e-06
1.27451e-06
1.25767e-06
1.19221e-06
1.3051e-06
-2.68146e-06
1.34403e-06
-2.09477e-06
1.34715e-06
-8.93968e-07
1.36777e-06
9.63166e-07
1.37486e-06
3.57602e-07
1.38011e-06
3.46588e-07
1.3404e-06
1.16923e-08
1.34335e-06
-2.72843e-07
1.35024e-06
-6.89432e-07
1.36437e-06
-4.21422e-07
1.34457e-06
-2.6514e-07
1.34582e-06
-8.67382e-08
1.32738e-06
-5.25268e-08
1.33287e-06
6.65038e-09
1.31249e-06
8.10602e-08
9.74621e-08
1.30701e-06
1.36006e-06
-1.15548e-06
1.46792e-06
-7.40209e-08
1.4072e-06
1.33522e-06
1.34721e-06
1.25221e-06
1.35601e-06
-2.69026e-06
1.38987e-06
-2.12863e-06
1.40419e-06
-9.0829e-07
1.43987e-06
9.27479e-07
1.44541e-06
3.52069e-07
1.45328e-06
3.38716e-07
1.40993e-06
5.50438e-08
1.39959e-06
-2.62501e-07
1.39482e-06
-6.84666e-07
1.4121e-06
-4.38702e-07
1.40303e-06
-2.56073e-07
1.4049e-06
-8.86026e-08
1.39411e-06
-4.17378e-08
1.3951e-06
5.6582e-09
1.38408e-06
9.20845e-08
1.08823e-07
1.37272e-06
1.41635e-06
-1.16347e-06
1.53077e-06
-1.88442e-07
1.49495e-06
1.37104e-06
1.43652e-06
1.31064e-06
1.40429e-06
-2.65803e-06
1.43307e-06
-2.15741e-06
1.46179e-06
-9.37004e-07
1.50937e-06
8.799e-07
1.51863e-06
3.42803e-07
1.52159e-06
3.35761e-07
1.47998e-06
9.66543e-08
1.45687e-06
-2.39392e-07
1.44191e-06
-6.69706e-07
1.45699e-06
-4.53782e-07
1.45808e-06
-2.57163e-07
1.46338e-06
-9.39064e-08
1.45819e-06
-3.65474e-08
1.4596e-06
4.2447e-09
1.45342e-06
9.82679e-08
1.197e-07
1.44254e-06
1.47365e-06
-1.16145e-06
1.58566e-06
-3.00451e-07
1.58024e-06
1.37646e-06
1.5242e-06
1.36668e-06
1.4578e-06
-2.59162e-06
1.47829e-06
-2.1779e-06
1.52289e-06
-9.81611e-07
1.5818e-06
8.20995e-07
1.59555e-06
3.2905e-07
1.59095e-06
3.40362e-07
1.55145e-06
1.36148e-07
1.5197e-06
-2.07638e-07
1.49518e-06
-6.45182e-07
1.50543e-06
-4.64039e-07
1.51188e-06
-2.63606e-07
1.52208e-06
-1.04109e-07
1.52145e-06
-3.59184e-08
1.52435e-06
1.34165e-09
1.52255e-06
1.00069e-07
1.28789e-07
1.51346e-06
1.5349e-06
-1.15013e-06
1.6349e-06
-4.00453e-07
1.65878e-06
1.35258e-06
1.6099e-06
1.41556e-06
1.52154e-06
-2.50326e-06
1.5311e-06
-2.18746e-06
1.58934e-06
-1.03985e-06
1.65977e-06
7.5056e-07
1.6753e-06
3.13527e-07
1.66366e-06
3.51998e-07
1.62458e-06
1.75228e-07
1.58806e-06
-1.7112e-07
1.55534e-06
-6.12465e-07
1.55955e-06
-4.68243e-07
1.56736e-06
-2.71417e-07
1.58139e-06
-1.18138e-07
1.58532e-06
-3.98525e-08
1.58984e-06
-3.17938e-09
1.59219e-06
9.77244e-08
1.35222e-07
1.58576e-06
1.6021e-06
-1.1321e-06
1.68252e-06
-4.80872e-07
1.72915e-06
1.30595e-06
1.69376e-06
1.45095e-06
1.59604e-06
-2.40555e-06
1.59445e-06
-2.18586e-06
1.66112e-06
-1.10652e-06
1.74138e-06
6.70293e-07
1.7552e-06
2.99709e-07
1.73822e-06
3.68973e-07
1.69859e-06
2.14862e-07
1.66008e-06
-1.32611e-07
1.62164e-06
-5.74022e-07
1.61992e-06
-4.6652e-07
1.62673e-06
-2.78228e-07
1.64256e-06
-1.33973e-07
1.65057e-06
-4.78575e-08
1.65684e-06
-9.45058e-09
1.66298e-06
9.15795e-08
1.38437e-07
1.65977e-06
1.6758e-06
-1.11032e-06
1.73289e-06
-5.37965e-07
1.7933e-06
1.24554e-06
1.77615e-06
1.4681e-06
1.67883e-06
-2.30822e-06
1.66781e-06
-2.17485e-06
1.7365e-06
-1.17521e-06
1.82223e-06
5.84569e-07
1.83186e-06
2.90073e-07
1.81173e-06
3.89107e-07
1.77228e-06
2.54311e-07
1.73425e-06
-9.45849e-08
1.69314e-06
-5.32908e-07
1.68674e-06
-4.60122e-07
1.69152e-06
-2.83011e-07
1.70715e-06
-1.49604e-07
1.71804e-06
-5.8744e-08
1.72579e-06
-1.71977e-08
1.73522e-06
8.21479e-08
1.38189e-07
1.73547e-06
1.75553e-06
-1.08713e-06
1.78991e-06
-5.72341e-07
1.85568e-06
1.17977e-06
1.85783e-06
1.46595e-06
1.76705e-06
-2.21744e-06
1.74891e-06
-2.15671e-06
1.81286e-06
-1.23916e-06
1.8981e-06
4.99325e-07
1.90277e-06
2.85407e-07
1.88212e-06
4.09755e-07
1.84502e-06
2.91417e-07
1.81012e-06
-5.96899e-08
1.76939e-06
-4.92173e-07
1.76005e-06
-4.50789e-07
1.76274e-06
-2.85701e-07
1.77662e-06
-1.63487e-07
1.78889e-06
-7.10079e-08
1.79733e-06
-2.56365e-08
1.80905e-06
7.04226e-08
1.34692e-07
1.81255e-06
1.84057e-06
-1.06395e-06
1.85618e-06
-5.87953e-07
1.92115e-06
1.1148e-06
1.94004e-06
1.44706e-06
1.85877e-06
-2.13617e-06
1.83556e-06
-2.13349e-06
1.88843e-06
-1.29204e-06
1.96736e-06
4.20393e-07
1.96787e-06
2.84898e-07
1.94958e-06
4.28048e-07
1.91747e-06
3.23518e-07
1.8882e-06
-3.04189e-08
1.85038e-06
-4.54352e-07
1.83974e-06
-4.40146e-07
1.84082e-06
-2.86782e-07
1.85207e-06
-1.7474e-07
1.86434e-06
-8.32729e-08
1.87248e-06
-3.37764e-08
1.88504e-06
5.78647e-08
1.28697e-07
1.89103e-06
1.93043e-06
-1.04154e-06
1.93259e-06
-5.90118e-07
1.99312e-06
1.05427e-06
2.02425e-06
1.41593e-06
1.95304e-06
-2.06497e-06
1.92647e-06
-2.10692e-06
1.96364e-06
-1.32921e-06
2.03197e-06
3.52064e-07
2.03003e-06
2.86837e-07
2.01656e-06
4.41525e-07
1.99162e-06
3.48457e-07
1.96968e-06
-8.4772e-09
1.9364e-06
-4.21072e-07
1.92557e-06
-4.29316e-07
1.92571e-06
-2.86929e-07
1.9341e-06
-1.83131e-07
1.9454e-06
-9.45729e-08
1.95244e-06
-4.08171e-08
1.96428e-06
4.60311e-08
1.21302e-07
1.97167e-06
2.02488e-06
-1.02024e-06
2.01848e-06
-5.83709e-07
2.07294e-06
9.99803e-07
2.1119e-06
1.37697e-06
2.04965e-06
-2.00272e-06
2.02107e-06
-2.07833e-06
2.04078e-06
-1.34892e-06
2.09662e-06
2.96221e-07
2.09397e-06
2.89493e-07
2.08678e-06
4.48707e-07
2.07003e-06
3.65214e-07
2.05594e-06
5.60532e-09
2.02779e-06
-3.92921e-07
2.01724e-06
-4.1876e-07
2.01702e-06
-2.86707e-07
2.02278e-06
-1.88899e-07
2.03261e-06
-1.04394e-07
2.03821e-06
-4.64203e-08
2.04814e-06
3.60946e-08
1.13601e-07
2.05585e-06
2.12384e-06
-1.00008e-06
2.11243e-06
-5.72303e-07
2.16065e-06
9.51588e-07
2.20421e-06
1.33341e-06
2.1489e-06
-1.94741e-06
2.11914e-06
-2.04858e-06
2.12251e-06
-1.35229e-06
2.16646e-06
2.5227e-07
2.16435e-06
2.91602e-07
2.16382e-06
4.49237e-07
2.15506e-06
3.73976e-07
2.14824e-06
1.24266e-08
2.12494e-06
-3.69627e-07
2.11452e-06
-4.08331e-07
2.11419e-06
-2.8638e-07
2.11779e-06
-1.92497e-07
2.12595e-06
-1.12553e-07
2.13026e-06
-5.07388e-08
2.13782e-06
2.85399e-08
1.06395e-07
2.14502e-06
2.22726e-06
-9.80849e-07
2.21317e-06
-5.58214e-07
2.25586e-06
9.08898e-07
2.30212e-06
1.28716e-06
2.25143e-06
-1.89672e-06
2.22077e-06
-2.01791e-06
2.21079e-06
-1.34231e-06
2.24522e-06
2.17839e-07
2.24443e-06
2.92391e-07
2.25007e-06
4.43598e-07
2.24826e-06
3.75789e-07
2.24732e-06
1.33643e-08
2.22811e-06
-3.50414e-07
2.21728e-06
-3.97503e-07
2.21675e-06
-2.85846e-07
2.21863e-06
-1.94374e-07
2.22506e-06
-1.18987e-07
2.22856e-06
-5.42378e-08
2.23389e-06
2.32048e-08
1.00054e-07
2.24024e-06
2.33522e-06
-9.62197e-07
2.31991e-06
-5.42902e-07
2.35834e-06
8.70472e-07
2.40629e-06
1.2392e-06
2.35801e-06
-1.84844e-06
2.32627e-06
-1.98617e-06
2.30657e-06
-1.3226e-06
2.3346e-06
1.89804e-07
2.33562e-06
2.91375e-07
2.34652e-06
4.32696e-07
2.35019e-06
3.72115e-07
2.35342e-06
1.01376e-08
2.33736e-06
-3.34352e-07
2.32552e-06
-3.85662e-07
2.3244e-06
-2.84724e-07
2.32488e-06
-1.94855e-07
2.32951e-06
-1.23623e-07
2.33267e-06
-5.73986e-08
2.33634e-06
1.95362e-08
9.46045e-08
2.34179e-06
2.44789e-06
-9.43689e-07
2.43232e-06
-5.27332e-07
2.46793e-06
8.34858e-07
2.5171e-06
1.19003e-06
2.46935e-06
-1.80069e-06
2.43618e-06
-1.953e-06
2.41003e-06
-1.29646e-06
2.43464e-06
1.65197e-07
2.43782e-06
2.88195e-07
2.45297e-06
4.17536e-07
2.46063e-06
3.64457e-07
2.46633e-06
4.44287e-09
2.45254e-06
-3.20567e-07
2.43923e-06
-3.72351e-07
2.43704e-06
-2.82527e-07
2.43632e-06
-1.94143e-07
2.43904e-06
-1.26336e-07
2.44212e-06
-6.04801e-08
2.44476e-06
1.68968e-08
8.99159e-08
2.44945e-06
2.56554e-06
-9.2493e-07
2.55035e-06
-5.12143e-07
2.58451e-06
8.00697e-07
2.63464e-06
1.1399e-06
2.58603e-06
-1.75208e-06
2.55107e-06
-1.91804e-06
2.52102e-06
-1.26641e-06
2.54448e-06
1.41743e-07
2.55008e-06
2.82587e-07
2.56857e-06
3.99051e-07
2.5789e-06
3.54124e-07
2.58562e-06
-2.27642e-09
2.57339e-06
-3.08336e-07
2.55844e-06
-3.57401e-07
2.55476e-06
-2.7885e-07
2.55302e-06
-1.92397e-07
2.55373e-06
-1.27048e-07
2.55663e-06
-6.33861e-08
2.55877e-06
1.476e-08
8.58639e-08
2.56282e-06
2.68853e-06
-9.05632e-07
2.6741e-06
-4.97713e-07
2.70785e-06
7.66944e-07
2.75881e-06
1.08894e-06
2.70848e-06
-1.70174e-06
2.67153e-06
-1.88109e-06
2.63934e-06
-1.23422e-06
2.66306e-06
1.18015e-07
2.67123e-06
2.7442e-07
2.69222e-06
3.78061e-07
2.70421e-06
3.42131e-07
2.71087e-06
-8.9337e-09
2.69962e-06
-2.97081e-07
2.68316e-06
-3.40945e-07
2.67782e-06
-2.73514e-07
2.67521e-06
-1.89785e-07
2.674e-06
-1.25833e-07
2.67634e-06
-6.57276e-08
2.67828e-06
1.28138e-08
8.23836e-08
2.68177e-06
2.8173e-06
-8.85666e-07
2.80378e-06
-4.84187e-07
2.83771e-06
7.3301e-07
2.8894e-06
1.03725e-06
2.837e-06
-1.64935e-06
2.79804e-06
-1.84212e-06
2.76484e-06
-1.20102e-06
2.78953e-06
9.33311e-08
2.80022e-06
2.6373e-07
2.823e-06
3.5528e-07
2.83594e-06
3.29185e-07
2.84183e-06
-1.48218e-08
2.83109e-06
-2.86337e-07
2.81348e-06
-3.2334e-07
2.80657e-06
-2.66598e-07
2.80329e-06
-1.8651e-07
2.80041e-06
-1.22952e-07
2.80171e-06
-6.70306e-08
2.80355e-06
1.09805e-08
7.94448e-08
2.80649e-06
2.9523e-06
-8.65074e-07
2.93966e-06
-4.71545e-07
2.97386e-06
6.9881e-07
3.02619e-06
9.8492e-07
2.97183e-06
-1.59499e-06
2.93099e-06
-1.80128e-06
2.89751e-06
-1.16754e-06
2.92331e-06
6.75275e-08
2.93632e-06
2.50725e-07
2.96027e-06
3.31328e-07
2.97373e-06
3.15721e-07
2.97849e-06
-1.95804e-08
2.96789e-06
-2.7574e-07
2.94961e-06
-3.05056e-07
2.94138e-06
-2.58371e-07
2.93763e-06
-1.8276e-07
2.93352e-06
-1.1884e-07
2.93342e-06
-6.69305e-08
2.93504e-06
9.36313e-09
7.70005e-08
2.93748e-06
3.09396e-06
-8.44025e-07
3.08212e-06
-4.59707e-07
3.11625e-06
6.64683e-07
3.16911e-06
9.32057e-07
3.1132e-06
-1.53908e-06
3.07071e-06
-1.75878e-06
3.03739e-06
-1.13422e-06
3.06418e-06
4.07442e-08
3.07918e-06
2.3572e-07
3.10379e-06
3.06722e-07
3.11756e-06
3.01952e-07
3.1211e-06
-2.3128e-08
3.11039e-06
-2.65022e-07
3.09189e-06
-2.86565e-07
3.08267e-06
-2.4915e-07
3.07857e-06
-1.78654e-07
3.07373e-06
-1.14002e-07
3.07211e-06
-6.53108e-08
3.07332e-06
8.15193e-09
7.49504e-08
3.07537e-06
3.2426e-06
-8.22719e-07
3.23153e-06
-4.48635e-07
3.265e-06
6.31212e-07
3.31826e-06
8.78801e-07
3.26139e-06
-1.48221e-06
3.2175e-06
-1.71489e-06
3.18463e-06
-1.10135e-06
3.21212e-06
1.32526e-08
3.22877e-06
2.1907e-07
3.25362e-06
2.81874e-07
3.26764e-06
2.87926e-07
3.27008e-06
-2.55685e-08
3.25908e-06
-2.54021e-07
3.24078e-06
-2.68257e-07
3.23082e-06
-2.39194e-07
3.22638e-06
-1.74212e-07
3.22127e-06
-1.08892e-07
3.21826e-06
-6.23042e-08
3.2189e-06
7.50751e-09
7.3147e-08
3.22071e-06
3.39851e-06
-8.01302e-07
3.38829e-06
-4.38415e-07
3.42051e-06
5.98999e-07
3.47397e-06
8.25333e-07
3.41675e-06
-1.42499e-06
3.37168e-06
-1.66982e-06
3.33941e-06
-1.06908e-06
3.36731e-06
-1.46451e-08
3.38526e-06
2.01111e-07
3.41006e-06
2.57081e-07
3.4244e-06
2.73581e-07
3.42594e-06
-2.71073e-08
3.41458e-06
-2.42659e-07
3.39674e-06
-2.50421e-07
3.38619e-06
-2.28644e-07
3.38136e-06
-1.69375e-07
3.37625e-06
-1.03785e-07
3.37218e-06
-5.82344e-08
3.37222e-06
7.46746e-09
7.14347e-08
3.37393e-06
3.5619e-06
-7.79787e-07
3.55274e-06
-4.29258e-07
3.58327e-06
5.68468e-07
3.63673e-06
7.71869e-07
3.57971e-06
-1.36796e-06
3.53361e-06
-1.62372e-06
3.50198e-06
-1.03745e-06
3.52997e-06
-4.26402e-08
3.54896e-06
1.82122e-07
3.57349e-06
2.32552e-07
3.58828e-06
2.58787e-07
3.58915e-06
-2.79788e-08
3.57743e-06
-2.30939e-07
3.56025e-06
-2.33233e-07
3.54917e-06
-2.17571e-07
3.54384e-06
-1.64039e-07
3.53882e-06
-9.87688e-08
3.53407e-06
-5.34786e-08
3.53361e-06
7.92049e-09
6.96758e-08
3.53537e-06
3.73295e-06
-7.58035e-07
3.72513e-06
-4.21436e-07
3.75387e-06
5.39729e-07
3.80711e-06
7.1863e-07
3.75071e-06
-1.31156e-06
3.70368e-06
-1.5767e-06
3.67262e-06
-1.00638e-06
3.70036e-06
-7.03838e-08
3.72017e-06
1.62316e-07
3.7443e-06
2.08425e-07
3.75969e-06
2.43396e-07
3.76013e-06
-2.84245e-08
3.74812e-06
-2.18925e-07
3.73168e-06
-2.16797e-07
3.72013e-06
-2.06017e-07
3.71422e-06
-1.58131e-07
3.70927e-06
-9.38172e-08
3.70413e-06
-4.83413e-08
3.70338e-06
8.67133e-09
6.77407e-08
3.70531e-06
3.91194e-06
-7.35792e-07
3.90568e-06
-4.15175e-07
3.93287e-06
5.12543e-07
3.98569e-06
6.65809e-07
3.9302e-06
-1.25607e-06
3.88233e-06
-1.52883e-06
3.85166e-06
-9.75705e-07
3.87872e-06
-9.74437e-08
3.8992e-06
1.41828e-07
3.92282e-06
1.84811e-07
3.93893e-06
2.27288e-07
3.9392e-06
-2.86949e-08
3.92702e-06
-2.06745e-07
3.91139e-06
-2.01168e-07
3.89942e-06
-1.94049e-07
3.89292e-06
-1.51627e-07
3.88798e-06
-8.88817e-08
3.88266e-06
-4.3019e-08
3.88178e-06
9.55187e-09
6.55091e-08
3.88401e-06
4.09921e-06
-7.12753e-07
4.09456e-06
-4.10525e-07
4.12074e-06
4.86361e-07
4.17303e-06
6.13528e-07
4.11861e-06
-1.20166e-06
4.06997e-06
-1.48019e-06
4.03945e-06
-9.45186e-07
4.06532e-06
-1.23312e-07
4.08638e-06
1.20763e-07
4.10939e-06
1.618e-07
4.12625e-06
2.10431e-07
4.12661e-06
-2.90518e-08
4.11446e-06
-1.94592e-07
4.09966e-06
-1.86373e-07
4.0874e-06
-1.81791e-07
4.08035e-06
-1.44572e-07
4.07542e-06
-8.39513e-08
4.07004e-06
-3.76383e-08
4.06908e-06
1.05046e-08
6.29006e-08
4.07169e-06
4.29521e-06
-6.88658e-07
4.29198e-06
-4.07299e-07
4.31789e-06
4.60453e-07
4.3696e-06
5.61815e-07
4.31631e-06
-1.14836e-06
4.26698e-06
-1.43086e-06
4.2364e-06
-9.14608e-07
4.26054e-06
-1.47455e-07
4.28208e-06
9.9223e-08
4.3044e-06
1.39477e-07
4.32194e-06
1.92898e-07
4.32263e-06
-2.97482e-08
4.31074e-06
-1.82702e-07
4.29679e-06
-1.72419e-07
4.28439e-06
-1.69387e-07
4.27692e-06
-1.37102e-07
4.27202e-06
-7.90528e-08
4.2667e-06
-3.23188e-08
4.26561e-06
1.15898e-08
5.99143e-08
4.2686e-06
4.50048e-06
-6.63361e-07
4.49825e-06
-4.05076e-07
4.52462e-06
4.34088e-07
4.57581e-06
5.10625e-07
4.52364e-06
-1.09619e-06
4.47371e-06
-1.38093e-06
4.44294e-06
-8.83841e-07
4.46488e-06
-1.69392e-07
4.48676e-06
7.73415e-08
4.50833e-06
1.17906e-07
4.52635e-06
1.7488e-07
4.52759e-06
-3.09887e-08
4.51623e-06
-1.71343e-07
4.5031e-06
-1.59287e-07
4.49071e-06
-1.57002e-07
4.483e-06
-1.2939e-07
4.47818e-06
-7.42346e-08
4.47306e-06
-2.71948e-08
4.47178e-06
1.28679e-08
5.67179e-08
4.47498e-06
4.71563e-06
-6.36873e-07
4.71384e-06
-4.03288e-07
4.74122e-06
4.06705e-07
4.79196e-06
4.59885e-07
4.74092e-06
-1.04515e-06
4.69051e-06
-1.33052e-06
4.65954e-06
-8.52879e-07
4.67893e-06
-1.88779e-07
4.70098e-06
5.52901e-08
4.72176e-06
9.71288e-08
4.73998e-06
1.56656e-07
4.74188e-06
-3.28891e-08
4.73131e-06
-1.60768e-07
4.71896e-06
-1.46941e-07
4.70678e-06
-1.44815e-07
4.69897e-06
-1.21584e-07
4.69428e-06
-6.95409e-08
4.68948e-06
-2.23986e-08
4.68802e-06
1.43308e-08
5.35953e-08
4.69114e-06
4.94127e-06
-6.09345e-07
4.93935e-06
-4.01368e-07
4.96802e-06
3.78032e-07
5.01833e-06
4.09573e-07
4.96849e-06
-9.95302e-07
4.91772e-06
-1.27975e-06
4.88669e-06
-8.2185e-07
4.90336e-06
-2.05452e-07
4.92539e-06
3.32681e-08
4.94536e-06
7.71519e-08
4.96348e-06
1.38542e-07
4.96604e-06
-3.54504e-08
4.95644e-06
-1.51168e-07
4.94488e-06
-1.3538e-07
4.93297e-06
-1.32909e-07
4.9252e-06
-1.13815e-07
4.92068e-06
-6.50189e-08
4.91628e-06
-1.8001e-08
4.91475e-06
1.58616e-08
5.08418e-08
4.9175e-06
5.178e-06
-5.81027e-07
5.1755e-06
-3.98865e-07
5.20542e-06
3.48112e-07
5.25522e-06
3.59772e-07
5.20672e-06
-9.46804e-07
5.15575e-06
-1.22878e-06
5.12487e-06
-7.90977e-07
5.13885e-06
-2.19431e-07
5.16063e-06
1.14901e-08
5.17984e-06
5.79463e-08
5.19755e-06
1.20827e-07
5.20064e-06
-3.85359e-08
5.19216e-06
-1.42687e-07
5.18138e-06
-1.24606e-07
5.16977e-06
-1.21298e-07
5.16213e-06
-1.06176e-07
5.15785e-06
-6.07352e-08
5.15382e-06
-1.39722e-08
5.15232e-06
1.73643e-08
4.85672e-08
5.15459e-06
5.42637e-06
-5.52205e-07
5.42304e-06
-3.95533e-07
5.4539e-06
3.17244e-07
5.50298e-06
3.10699e-07
5.45606e-06
-8.99889e-07
5.40503e-06
-1.17775e-06
5.37459e-06
-7.60541e-07
5.38604e-06
-2.30879e-07
5.40735e-06
-9.81677e-09
5.42587e-06
3.94259e-08
5.44294e-06
1.03754e-07
5.44633e-06
-4.19277e-08
5.43904e-06
-1.35394e-07
5.42909e-06
-1.14659e-07
5.4177e-06
-1.09903e-07
5.41028e-06
-9.87521e-08
5.40633e-06
-5.67888e-08
5.40257e-06
-1.02181e-08
5.40112e-06
1.88226e-08
4.67098e-08
5.40297e-06
5.6869e-06
-5.23149e-07
5.6827e-06
-3.91333e-07
5.71407e-06
2.85878e-07
5.7621e-06
2.62669e-07
5.71702e-06
-8.54808e-07
5.66608e-06
-1.12681e-06
5.63636e-06
-7.3082e-07
5.64554e-06
-2.40057e-07
5.66614e-06
-3.04202e-08
5.68408e-06
2.14819e-08
5.70037e-06
8.74673e-08
5.70381e-06
-4.53655e-08
5.69768e-06
-1.29263e-07
5.68863e-06
-1.05611e-07
5.67738e-06
-9.86574e-08
5.67013e-06
-9.14945e-08
5.66665e-06
-5.331e-08
5.66315e-06
-6.72053e-09
5.66166e-06
2.03111e-08
4.51394e-08
5.66323e-06
5.96013e-06
-4.94083e-07
5.95517e-06
-3.8638e-07
5.98655e-06
2.54502e-07
6.03318e-06
2.16039e-07
5.99016e-06
-8.11787e-07
5.93946e-06
-1.0761e-06
5.91069e-06
-7.02052e-07
5.9179e-06
-2.47271e-07
5.93758e-06
-5.0102e-08
5.95504e-06
4.02229e-09
5.97051e-06
7.20034e-08
5.97374e-06
-4.85965e-08
5.96866e-06
-1.24181e-07
5.96065e-06
-9.7606e-08
5.94951e-06
-8.75195e-08
5.94221e-06
-8.41896e-08
5.93931e-06
-5.04086e-08
5.93616e-06
-3.57075e-09
5.93453e-06
2.19365e-08
4.37465e-08
5.93592e-06
6.24658e-06
-4.65177e-07
6.24108e-06
-3.80878e-07
6.27203e-06
2.23554e-07
6.31693e-06
1.71139e-07
6.27612e-06
-7.70976e-07
6.22576e-06
-1.02575e-06
6.19814e-06
-6.74427e-07
6.20369e-06
-2.52827e-07
6.22225e-06
-6.86602e-08
6.23927e-06
-1.30003e-08
6.25399e-06
5.72891e-08
6.2568e-06
-5.14106e-08
6.25258e-06
-1.19955e-07
6.24577e-06
-9.08025e-08
6.23478e-06
-7.65257e-08
6.22721e-06
-7.66147e-08
6.22479e-06
-4.79983e-08
6.22223e-06
-1.00163e-09
6.22037e-06
2.37951e-08
4.24829e-08
6.22163e-06
6.54686e-06
-4.36565e-07
6.541e-06
-3.75026e-07
6.5712e-06
1.93355e-07
6.61404e-06
1.28303e-07
6.57558e-06
-7.32513e-07
6.52566e-06
-9.75833e-07
6.49927e-06
-6.48039e-07
6.50349e-06
-2.57042e-07
6.52074e-06
-8.59178e-08
6.53732e-06
-2.95739e-08
6.55143e-06
4.31788e-08
6.55368e-06
-5.36653e-08
6.55009e-06
-1.16361e-07
6.5446e-06
-8.53161e-08
6.53388e-06
-6.58081e-08
6.52585e-06
-6.85783e-08
6.52365e-06
-4.57999e-08
6.52188e-06
7.67655e-10
6.51987e-06
2.58084e-08
4.13801e-08
6.52097e-06
6.86158e-06
-4.08357e-07
6.85554e-06
-3.68984e-07
6.88481e-06
1.64088e-07
6.92523e-06
8.78824e-08
6.88922e-06
-6.96505e-07
6.83986e-06
-9.26468e-07
6.81468e-06
-6.22866e-07
6.81787e-06
-2.60226e-07
6.83369e-06
-1.01742e-07
6.84973e-06
-4.56064e-08
6.86341e-06
2.9491e-08
6.86505e-06
-5.53068e-08
6.86184e-06
-1.13149e-07
6.85775e-06
-8.12205e-08
6.84754e-06
-5.56019e-08
6.83893e-06
-5.99678e-08
6.83655e-06
-4.34199e-08
6.83569e-06
1.62916e-09
6.83369e-06
2.78079e-08
4.05107e-08
6.83456e-06
7.19145e-06
-3.80666e-07
7.1853e-06
-3.62834e-07
7.21359e-06
1.35796e-07
7.25123e-06
5.02395e-08
7.21779e-06
-6.63064e-07
7.16909e-06
-8.77771e-07
7.14502e-06
-5.98792e-07
7.14746e-06
-2.62665e-07
7.16178e-06
-1.16067e-07
7.17715e-06
-6.09746e-08
7.19053e-06
1.61136e-08
7.19168e-06
-5.6462e-08
7.1885e-06
-1.09963e-07
7.18584e-06
-7.85596e-08
7.17646e-06
-4.62291e-08
7.1672e-06
-5.07084e-08
7.16421e-06
-4.04257e-08
7.16424e-06
1.60377e-09
7.16257e-06
2.94706e-08
3.99105e-08
7.16317e-06
7.53717e-06
-3.53613e-07
7.53093e-06
-3.56595e-07
7.5583e-06
1.08433e-07
7.59279e-06
1.57406e-08
7.56199e-06
-6.32256e-07
7.51418e-06
-8.29967e-07
7.49099e-06
-5.75604e-07
7.49289e-06
-2.6456e-07
7.50571e-06
-1.28885e-07
7.52026e-06
-7.55299e-08
7.53338e-06
2.99497e-09
7.53426e-06
-5.73372e-08
7.53092e-06
-1.06626e-07
7.52958e-06
-7.72244e-08
7.5216e-06
-3.82406e-08
7.5116e-06
-4.07114e-08
7.5073e-06
-3.61301e-08
7.50777e-06
1.13334e-09
7.50679e-06
3.04547e-08
3.93222e-08
7.50738e-06
7.89953e-06
-3.27333e-07
7.89315e-06
-3.50209e-07
7.91969e-06
8.18876e-08
7.95072e-06
-1.52909e-08
7.92254e-06
-6.04077e-07
7.8759e-06
-7.83328e-07
7.85337e-06
-5.53072e-07
7.85488e-06
-2.6607e-07
7.86623e-06
-1.40237e-07
7.87983e-06
-8.91237e-08
7.89269e-06
-9.86386e-09
7.89345e-06
-5.80992e-08
7.88986e-06
-1.03032e-07
7.88978e-06
-7.71506e-08
7.88386e-06
-3.23209e-08
7.87352e-06
-3.03717e-08
7.86699e-06
-2.95935e-08
7.86653e-06
1.59038e-09
7.86571e-06
3.12723e-08
3.78005e-08
7.86723e-06
8.27933e-06
-3.01978e-07
8.27267e-06
-3.43548e-07
8.29854e-06
5.60158e-08
8.32583e-06
-4.25826e-08
8.3002e-06
-5.78451e-07
8.25514e-06
-7.38269e-07
8.23297e-06
-5.309e-07
8.23413e-06
-2.67233e-07
8.24416e-06
-1.50261e-07
8.25662e-06
-1.01581e-07
8.26912e-06
-2.2372e-08
8.26999e-06
-5.89691e-08
8.26621e-06
-9.92508e-08
8.2672e-06
-7.81391e-08
8.26414e-06
-2.92563e-08
8.25572e-06
-2.19577e-08
8.2519e-06
-2.57703e-08
8.25611e-06
-2.6232e-09
8.25906e-06
2.83209e-08
3.878e-08
8.25808e-06
8.67739e-06
-2.77708e-07
8.67026e-06
-3.36418e-07
8.69566e-06
3.06142e-08
8.71905e-06
-6.59736e-08
8.6957e-06
-5.55092e-07
8.65264e-06
-6.95215e-07
8.63074e-06
-5.08996e-07
8.63142e-06
-2.67918e-07
8.64028e-06
-1.59118e-07
8.65154e-06
-1.12844e-07
8.66361e-06
-3.4444e-08
8.66456e-06
-5.99195e-08
8.66053e-06
-9.52196e-08
8.66258e-06
-8.01839e-08
8.66388e-06
-3.05578e-08
8.66114e-06
-1.92133e-08
8.66064e-06
-2.52767e-08
8.66619e-06
-8.17244e-09
8.66872e-06
2.57947e-08
4.18902e-08
8.66561e-06
9.0946e-06
-2.54685e-07
9.08676e-06
-3.28585e-07
9.11188e-06
5.49455e-09
9.1314e-06
-8.54923e-08
9.10981e-06
-5.33502e-07
9.0693e-06
-6.54706e-07
9.04752e-06
-4.87211e-07
9.0476e-06
-2.68005e-07
9.05541e-06
-1.66923e-07
9.06539e-06
-1.22826e-07
9.07697e-06
-4.60271e-08
9.07835e-06
-6.12963e-08
9.07437e-06
-9.12393e-08
9.07629e-06
-8.2101e-08
9.07928e-06
-3.35511e-08
9.07788e-06
-1.78076e-08
9.0766e-06
-2.39993e-08
9.0806e-06
-1.21719e-08
9.08496e-06
2.14338e-08
4.46381e-08
9.08221e-06
9.53185e-06
-2.33071e-07
9.5231e-06
-3.19836e-07
9.54808e-06
-1.94917e-08
9.5639e-06
-1.01309e-07
9.5434e-06
-5.13003e-07
9.50585e-06
-6.17156e-07
9.48433e-06
-4.65691e-07
9.48363e-06
-2.67304e-07
9.49035e-06
-1.73645e-07
9.49927e-06
-1.3174e-07
9.51014e-06
-5.69035e-08
9.51195e-06
-6.31069e-08
9.50863e-06
-8.79118e-08
9.50988e-06
-8.33512e-08
9.50993e-06
-3.36043e-08
9.50219e-06
-1.00634e-08
9.48979e-06
-1.16007e-08
9.4835e-06
-5.88885e-09
9.48553e-06
1.94112e-08
3.71298e-08
9.49303e-06
9.99008e-06
-2.13019e-07
9.98021e-06
-3.09962e-07
1.00052e-05
-4.44429e-08
1.00177e-05
-1.13807e-07
9.99749e-06
-4.92835e-07
9.96317e-06
-5.82836e-07
9.94215e-06
-4.44669e-07
9.94048e-06
-2.65636e-07
9.94605e-06
-1.79211e-07
9.95386e-06
-1.39554e-07
9.96409e-06
-6.71314e-08
9.96631e-06
-6.53278e-08
9.96175e-06
-8.33555e-08
9.96143e-06
-8.30275e-08
9.96659e-06
-3.87656e-08
9.96964e-06
-1.31145e-08
9.96903e-06
-1.09868e-08
9.97286e-06
-9.71695e-09
9.97841e-06
1.38547e-08
4.08915e-08
9.97465e-06
1.04703e-05
-1.94672e-07
1.04592e-05
-2.98866e-07
1.0484e-05
-6.92399e-08
1.04938e-05
-1.23637e-07
1.04731e-05
-4.72142e-07
1.04421e-05
-5.51823e-07
1.0422e-05
-4.24575e-07
1.04192e-05
-2.6281e-07
1.04235e-05
-1.8348e-07
1.04303e-05
-1.46349e-07
1.04396e-05
-7.64634e-08
1.04419e-05
-6.76025e-08
1.04377e-05
-7.91866e-08
1.04371e-05
-8.24369e-08
1.04383e-05
-3.99424e-08
1.04354e-05
-1.02043e-08
1.04261e-05
-1.69473e-09
1.04199e-05
-3.48953e-09
1.042e-05
1.37321e-08
3.35195e-08
1.04274e-05
1.09735e-05
-1.78119e-07
1.0961e-05
-2.86446e-07
1.09856e-05
-9.37575e-08
1.09934e-05
-1.31508e-07
1.09718e-05
-4.50488e-07
1.09436e-05
-5.23635e-07
1.09248e-05
-4.05806e-07
1.09209e-05
-2.58916e-07
1.09237e-05
-1.86219e-07
1.0929e-05
-1.51673e-07
1.09373e-05
-8.47568e-08
1.09398e-05
-7.01489e-08
1.09352e-05
-7.45341e-08
1.09321e-05
-7.93636e-08
1.09333e-05
-4.11023e-08
1.09321e-05
-9.03312e-09
1.09266e-05
3.75049e-09
1.09214e-05
1.75229e-09
1.09225e-05
1.26289e-08
2.86628e-08
1.09274e-05
1.15007e-05
-1.6343e-07
1.1487e-05
-2.72755e-07
1.15107e-05
-1.17479e-07
1.15174e-05
-1.38228e-07
1.14948e-05
-4.27904e-07
1.14685e-05
-4.97317e-07
1.14516e-05
-3.88905e-07
1.14469e-05
-2.54191e-07
1.14478e-05
-1.87154e-07
1.14516e-05
-1.55404e-07
1.14585e-05
-9.16784e-08
1.14607e-05
-7.24096e-08
1.1456e-05
-6.978e-08
1.14522e-05
-7.55907e-08
1.14529e-05
-4.17868e-08
1.14535e-05
-9.58358e-09
1.14501e-05
7.09753e-09
1.14468e-05
5.07999e-09
1.14465e-05
1.29279e-08
2.5216e-08
1.14499e-05
1.2053e-05
-1.5059e-07
1.20381e-05
-2.57918e-07
1.20604e-05
-1.39763e-07
1.2067e-05
-1.44758e-07
1.20436e-05
-4.04561e-07
1.20182e-05
-4.71916e-07
1.20033e-05
-3.74001e-07
1.19982e-05
-2.4906e-07
1.19975e-05
-1.86431e-07
1.19994e-05
-1.57304e-07
1.20048e-05
-9.71461e-08
1.20073e-05
-7.48469e-08
1.20033e-05
-6.58023e-08
1.19988e-05
-7.10943e-08
1.19989e-05
-4.19416e-08
1.20005e-05
-1.11573e-08
1.19987e-05
8.86361e-09
1.1996e-05
7.86546e-09
1.19953e-05
1.35743e-08
2.26959e-08
1.19978e-05
1.26315e-05
-1.39533e-07
1.26159e-05
-2.42251e-07
1.2636e-05
-1.5994e-07
1.2643e-05
-1.51675e-07
1.26193e-05
-3.80914e-07
1.25941e-05
-4.46734e-07
1.25809e-05
-3.60795e-07
1.25759e-05
-2.44081e-07
1.25738e-05
-1.84281e-07
1.2574e-05
-1.57537e-07
1.25781e-05
-1.01191e-07
1.25803e-05
-7.70758e-08
1.25769e-05
-6.24421e-08
1.25723e-05
-6.64437e-08
1.2572e-05
-4.16013e-08
1.25741e-05
-1.32724e-08
1.25736e-05
9.37953e-09
1.25713e-05
1.0076e-08
1.25707e-05
1.41827e-08
2.07082e-08
1.25727e-05
1.32376e-05
-1.30151e-07
1.32213e-05
-2.26012e-07
1.32389e-05
-1.77542e-07
1.32466e-05
-1.5939e-07
1.32232e-05
-3.57502e-07
1.31978e-05
-4.21344e-07
1.31857e-05
-3.48651e-07
1.31813e-05
-2.39716e-07
1.31782e-05
-1.81133e-07
1.31767e-05
-1.56098e-07
1.31792e-05
-1.03637e-07
1.31811e-05
-7.8994e-08
1.31786e-05
-5.99203e-08
1.31741e-05
-6.19319e-08
1.3173e-05
-4.05259e-08
1.31751e-05
-1.54002e-08
1.31756e-05
8.85844e-09
1.31741e-05
1.16078e-08
1.31734e-05
1.49235e-08
1.8777e-08
1.31753e-05
1.38723e-05
-1.22247e-07
1.38558e-05
-2.096e-07
1.38705e-05
-1.92152e-07
1.38789e-05
-1.67834e-07
1.38565e-05
-3.3506e-07
1.38308e-05
-3.95721e-07
1.38189e-05
-3.36735e-07
1.38154e-05
-2.36213e-07
1.38118e-05
-1.77547e-07
1.38089e-05
-1.53154e-07
1.38097e-05
-1.04423e-07
1.3811e-05
-8.03264e-08
1.38091e-05
-5.80472e-08
1.38049e-05
-5.76953e-08
1.38031e-05
-3.87684e-08
1.3805e-05
-1.7287e-08
1.38065e-05
7.40649e-09
1.3806e-05
1.20986e-08
1.3805e-05
1.59006e-08
1.70368e-08
1.38068e-05
1.4537e-05
-1.15595e-07
1.45208e-05
-1.93364e-07
1.4532e-05
-2.03404e-07
1.45409e-05
-1.76671e-07
1.45203e-05
-3.14482e-07
1.44946e-05
-3.70003e-07
1.44822e-05
-3.24338e-07
1.44794e-05
-2.33478e-07
1.4476e-05
-1.74096e-07
1.44719e-05
-1.49044e-07
1.4471e-05
-1.03545e-07
1.44714e-05
-8.07181e-08
1.447e-05
-5.66136e-08
1.44664e-05
-5.411e-08
1.44643e-05
-3.66724e-08
1.44657e-05
-1.86922e-08
1.44674e-05
5.65481e-09
1.4468e-05
1.15236e-08
1.4467e-05
1.6913e-08
1.5899e-08
1.44681e-05
1.52332e-05
-1.09894e-07
1.52176e-05
-1.77824e-07
1.52252e-05
-2.10942e-07
1.52339e-05
-1.85384e-07
1.52159e-05
-2.96449e-07
1.51904e-05
-3.44559e-07
1.51771e-05
-3.11017e-07
1.51746e-05
-2.30973e-07
1.51718e-05
-1.71285e-07
1.51672e-05
-1.44419e-07
1.51647e-05
-1.01047e-07
1.51639e-05
-7.99388e-08
1.51626e-05
-5.53649e-08
1.51597e-05
-5.11382e-08
1.51574e-05
-3.44003e-08
1.51583e-05
-1.95763e-08
1.51599e-05
3.97425e-09
1.51613e-05
1.01854e-08
1.51611e-05
1.71394e-08
1.54538e-08
1.51615e-05
1.59623e-05
-1.04825e-07
1.5948e-05
-1.63552e-07
1.59515e-05
-2.14421e-07
1.59596e-05
-1.93473e-07
1.59444e-05
-2.81298e-07
1.59197e-05
-3.19817e-07
1.59052e-05
-2.96599e-07
1.59023e-05
-2.28044e-07
1.59003e-05
-1.69261e-07
1.58959e-05
-1.40001e-07
1.58921e-05
-9.7262e-08
1.589e-05
-7.78458e-08
1.58886e-05
-5.39378e-08
1.58862e-05
-4.87856e-08
1.5884e-05
-3.22337e-08
1.58847e-05
-2.02074e-08
1.58861e-05
2.58502e-09
1.58876e-05
8.65441e-09
1.58885e-05
1.62784e-08
1.55083e-08
1.58884e-05
1.67259e-05
-1.00095e-07
1.67133e-05
-1.50947e-07
1.67129e-05
-2.14027e-07
1.67195e-05
-2.00059e-07
1.6707e-05
-2.6887e-07
1.66836e-05
-2.96387e-07
1.66681e-05
-2.81102e-07
1.66641e-05
-2.24054e-07
1.66627e-05
-1.67895e-07
1.66591e-05
-1.36387e-07
1.66547e-05
-9.28747e-08
1.66514e-05
-7.44853e-08
1.66495e-05
-5.20535e-08
1.66477e-05
-4.69664e-08
1.66456e-05
-3.01912e-08
1.6646e-05
-2.05954e-08
1.66474e-05
1.16439e-09
1.66485e-05
7.65004e-09
1.66499e-05
1.47969e-08
1.51472e-08
1.66503e-05
1.75258e-05
-9.54895e-08
1.75149e-05
-1.40096e-07
1.75114e-05
-2.10538e-07
1.75153e-05
-2.03967e-07
1.75052e-05
-2.58748e-07
1.74837e-05
-2.74856e-07
1.74673e-05
-2.64717e-07
1.74617e-05
-2.18465e-07
1.74604e-05
-1.66588e-07
1.7458e-05
-1.33981e-07
1.7454e-05
-8.88459e-08
1.74497e-05
-7.02192e-08
1.74471e-05
-4.94848e-08
1.74456e-05
-4.5417e-08
1.74439e-05
-2.84892e-08
1.74438e-05
-2.04995e-08
1.74455e-05
-5.91963e-10
1.74463e-05
6.89948e-09
1.74476e-05
1.34747e-08
1.38363e-08
1.74489e-05
1.83637e-05
-9.08703e-08
1.83545e-05
-1.3083e-07
1.83487e-05
-2.04792e-07
1.83493e-05
-2.04505e-07
1.83408e-05
-2.5028e-07
1.83216e-05
-2.5562e-07
1.83046e-05
-2.47742e-07
1.8297e-05
-2.10912e-07
1.82948e-05
-1.64315e-07
1.82935e-05