/*--------------------------------*- C++ -*----------------------------------*\
| =========                 |                                                 |
| \\      /  F ield         | OpenFOAM: The Open Source CFD Toolbox           |
|  \\    /   O peration     | Version:  v1912                                 |
|   \\  /    A nd           | Website:  www.openfoam.com                      |
|    \\/     M anipulation  |                                                 |
\*---------------------------------------------------------------------------*/
FoamFile
{
    version     2.0;
    format      ascii;
    class       volScalarField;
    location    "2.4";
    object      p;
}
// * * * * * * * * * * * * * * * * * * * * * * * * * * * * * * * * * * * * * //

dimensions      [0 2 -2 0 0 0 0];


internalField   nonuniform List<scalar> 
9600
(
-5.93992e-10
-0.00108863
3.7772e-05
-0.000339319
0.00217943
0.00662288
0.00314683
0.00355212
-0.00107289
-8.57643e-06
0.000416326
0.00148737
0.00326932
0.00276539
0.00242466
0.00335412
0.00564284
0.0074526
0.0130331
0.0188298
5.00986e-06
-0.00109243
3.16459e-05
-0.000331262
0.00217904
0.00659202
0.00319159
0.00345222
-0.00104944
7.23305e-06
0.000397784
0.00150543
0.0032027
0.00277066
0.00242664
0.00334939
0.00571604
0.00740148
0.0132076
0.0182691
9.80902e-06
-0.00109784
2.66497e-05
-0.000320815
0.00217324
0.00655549
0.00325055
0.00335611
-0.00100944
3.25293e-05
0.000379434
0.00153255
0.00314368
0.0027802
0.00241958
0.00335201
0.00573109
0.00735383
0.013234
0.0175826
1.1957e-05
-0.00110428
2.3771e-05
-0.0003118
0.00216464
0.00650327
0.00329049
0.00325272
-0.000957935
7.07874e-05
0.000357244
0.00155495
0.00307479
0.00277597
0.00240151
0.00334725
0.00574013
0.00730509
0.0131501
0.0170004
1.16776e-05
-0.00111203
2.19691e-05
-0.000303972
0.00215335
0.0064305
0.00331026
0.00314658
-0.000890349
0.000113992
0.000320915
0.00156774
0.00299614
0.00275995
0.00237852
0.00333569
0.00575263
0.00724088
0.013066
0.0164339
9.34809e-06
-0.00112143
2.09081e-05
-0.000296737
0.00213967
0.00633529
0.0033162
0.00303986
-0.000809425
0.000151011
0.000269862
0.00157322
0.00291232
0.00273862
0.00235619
0.00332018
0.0057623
0.0071727
0.0129467
0.0158855
5.22238e-06
-0.00113246
2.05366e-05
-0.000289845
0.00212384
0.0062198
0.00331199
0.00293195
-0.000721602
0.000179813
0.000209096
0.00157505
0.00282744
0.00271389
0.00233676
0.00330016
0.00577001
0.00710084
0.0127872
0.0153539
-3.66698e-07
-0.00114488
2.06963e-05
-0.000283145
0.00210594
0.00608792
0.00330021
0.00282235
-0.000631506
0.000203142
0.000143213
0.00157517
0.00274323
0.0026849
0.0023209
0.00327534
0.00577489
0.00702549
0.012585
0.0148365
-7.05298e-06
-0.00115841
2.11788e-05
-0.000276546
0.00208582
0.0059437
0.00328366
0.00271113
-0.000541541
0.000223792
7.47314e-05
0.00157364
0.00266032
0.00265085
0.00230803
0.00324625
0.00577466
0.00694598
0.0123399
0.014331
-1.45384e-05
-0.00117288
2.17634e-05
-0.00027004
0.00206325
0.0057905
0.00326458
0.00259844
-0.000452879
0.000243697
4.75482e-06
0.00156955
0.00257911
0.002611
0.00229696
0.00321372
0.00576623
0.00686123
0.0120543
0.0138345
-2.26232e-05
-0.00118819
2.22127e-05
-0.000263683
0.00203809
0.0056308
0.00324411
0.00248437
-0.000366252
0.000263955
-6.63086e-05
0.00156205
0.00249992
0.0025645
0.00228663
0.00317769
0.00574686
0.00677047
0.0117308
0.0133435
-3.11915e-05
-0.0012043
2.22952e-05
-0.000257539
0.00201035
0.00546635
0.00322256
0.00236898
-0.000282372
0.000285035
-0.000138188
0.00155053
0.00242298
0.00251106
0.00227583
0.00313802
0.00571432
0.00667324
0.0113717
0.0128542
-4.01863e-05
-0.00122127
2.18024e-05
-0.000251669
0.00198015
0.00529843
0.00319965
0.00225227
-0.000202008
0.000307187
-0.000210563
0.00153456
0.00234847
0.0024509
0.00226317
0.00309461
0.00566714
0.00656845
0.0109799
0.0123624
-4.95825e-05
-0.00123913
2.05377e-05
-0.000246117
0.00194763
0.00512794
0.00317489
0.00213432
-0.000125902
0.000330654
-0.000283214
0.00151373
0.0022765
0.00238413
0.00224756
0.00304764
0.00560387
0.00645394
0.0105588
0.0118653
-5.93702e-05
-0.00125794
1.83002e-05
-0.000240926
0.00191287
0.00495543
0.00314773
0.00201527
-5.47017e-05
0.000355588
-0.000356072
0.00148778
0.0022069
0.00231088
0.00222809
0.00299682
0.00552334
0.00632764
0.0101117
0.0113616
-6.95501e-05
-0.00127774
1.48779e-05
-0.000236138
0.00187583
0.00478113
0.00311759
0.00189542
1.09908e-05
0.000382025
-0.000429168
0.00145644
0.00213932
0.00223136
0.00220396
0.00294102
0.00542623
0.00618835
0.00964101
0.0108502
-8.01348e-05
-0.00129856
1.00569e-05
-0.000231792
0.00183633
0.00460493
0.00308394
0.00177512
7.05168e-05
0.000409962
-0.00050259
0.00141947
0.00207335
0.00214575
0.00217478
0.00287829
0.00531403
0.00603556
0.00914844
0.0103298
-9.11516e-05
-0.00132041
3.62868e-06
-0.000227923
0.00179411
0.00442668
0.00304625
0.00165479
0.000123156
0.000439299
-0.000576435
0.00137654
0.00200862
0.00205382
0.00214041
0.00280667
0.00518767
0.00587006
0.00863563
0.00979843
-0.000102645
-0.00134328
-4.61396e-06
-0.000224555
0.00174889
0.00424636
0.00300404
0.00153483
0.000168139
0.000469815
-0.000650829
0.00132731
0.00194482
0.00195498
0.00210106
0.00272468
0.00504564
0.00569377
0.00810423
0.00925406
-0.000114678
-0.00136713
-1.48855e-05
-0.000221702
0.00170032
0.00406406
0.00295693
0.00141564
0.00020463
0.000501241
-0.000725936
0.00127141
0.00188202
0.00184857
0.00205711
0.00263178
0.0049014
0.0055084
0.00755718
0.00869424
-0.000127322
-0.00139194
-2.74155e-05
-0.000219373
0.00164798
0.00387998
0.00290462
0.00129757
0.000231761
0.00053324
-0.000801778
0.00120827
0.0018207
0.00173352
0.00200841
0.00252833
0.00472181
0.00531563
0.00699893
0.0081134
-0.000140657
-0.00141766
-4.24615e-05
-0.000217557
0.00159147
0.00369443
0.00284678
0.00118091
0.000248665
0.000565408
-0.000878159
0.00113711
0.00176141
0.00160853
0.00195377
0.00241443
0.00450994
0.00511654
0.00643613
0.00750637
-0.000154774
-0.00144424
-6.03216e-05
-0.000216239
0.00153036
0.00350775
0.00278308
0.00106591
0.000254486
0.000597185
-0.000954592
0.00105684
0.00170474
0.00147279
0.00189092
0.00229319
0.00426628
0.00490891
0.00587876
0.00686806
-0.000169779
-0.00147163
-8.1312e-05
-0.000215406
0.00146425
0.00332026
0.00271312
0.000952828
0.000248447
0.000627764
-0.00103038
0.000966186
0.0016513
0.00132604
0.00181655
0.00216847
0.0039901
0.00468904
0.00533813
0.00619607
-0.000185793
-0.00149976
-0.000105762
-0.000215039
0.00139272
0.0031323
0.0026365
0.000841916
0.000229997
0.000656228
-0.00110469
0.000863703
0.0016017
0.00116885
0.00172601
0.00203615
0.00368331
0.00445028
0.00482435
0.00549982
-0.000202951
-0.00152856
-0.000134053
-0.000215133
0.00131538
0.00294418
0.00255282
0.000733223
0.000198912
0.000681549
-0.00117652
0.000747498
0.00155629
0.00100266
0.00161381
0.00192558
0.00335112
0.00418311
0.00434341
0.00479186
-0.000221397
-0.00155795
-0.000166611
-0.000215686
0.00123193
0.00275612
0.00246174
0.000626741
0.000155123
0.000702374
-0.00124477
0.0006157
0.00151444
0.00083012
0.00147469
0.00182337
0.00300095
0.00386381
0.00389446
0.00409107
-0.000241307
-0.00158784
-0.000203862
-0.000216719
0.0011421
0.0025683
0.00236298
0.00052236
9.86684e-05
0.000717048
-0.00130815
0.000466937
0.00147439
0.000655175
0.00130379
0.00172624
0.00264239
0.00348901
0.00347609
0.00341651
-0.000262886
-0.00161808
-0.000246258
-0.000218316
0.00104575
0.00238083
0.00225641
0.000419607
2.99149e-05
0.000724086
-0.00136558
0.000300167
0.00143349
0.000482579
0.0010969
0.0016288
0.00228901
0.00306389
0.00306601
0.002785
-0.000286362
-0.0016485
-0.000294293
-0.000220568
0.00094282
0.00219355
0.00214226
0.000317817
-5.05359e-05
0.000722016
-0.0014162
0.000114863
0.00138792
0.000317608
0.000852289
0.00152186
0.00195324
0.00259246
0.00263969
0.00220854
-0.000311995
-0.0016789
-0.000348457
-0.000223659
0.000833378
0.00200627
0.00202091
0.000216204
-0.000142137
0.000709045
-0.00145915
-8.87803e-05
0.00133272
0.000165555
0.000570717
0.00139288
0.00164577
0.00208602
0.00218222
0.00168821
-0.000340083
-0.00170905
-0.000409215
-0.000227975
0.000717803
0.00181865
0.00189298
0.000113849
-0.000244606
0.000683277
-0.00149389
-0.000309624
0.00126245
3.06e-05
0.000255476
0.00122885
0.00137163
0.00156202
0.00167874
0.00120882
-0.000370941
-0.00173869
-0.000476998
-0.000233961
0.000596513
0.00162983
0.00175966
1.02898e-05
-0.000357774
0.000642784
-0.00152048
-0.000545273
0.00117148
-8.53126e-05
-8.73529e-05
0.00101808
0.00112931
0.00104195
0.00112362
0.000741967
-0.000404933
-0.00176755
-0.000552145
-0.000242233
0.000470192
0.00143857
0.00162218
-9.45586e-05
-0.000481479
0.000585844
-0.00153925
-0.000792959
0.00105371
-0.000182056
-0.000448989
0.000751579
0.000909588
0.000548399
0.000523314
0.000254219
-0.000442471
-0.00179536
-0.000634932
-0.000253686
0.000340028
0.00124353
0.00148126
-0.000200725
-0.000615591
0.000510868
-0.00155125
-0.00104936
0.00090335
-0.000261798
-0.000818452
0.0004248
0.000697491
9.70661e-05
-0.000105338
-0.000278322
-0.000483951
-0.00182189
-0.00072556
-0.000269338
0.00020747
0.0010433
0.00133701
-0.000307602
-0.00075984
0.000415987
-0.00155817
-0.0013102
0.000715463
-0.000329398
-0.00118371
3.69702e-05
0.000475262
-0.000303045
-0.000738344
-0.000863756
-0.000529806
-0.00184698
-0.000824019
-0.000290563
7.42327e-05
0.000837067
0.001189
-0.000414308
-0.000914103
0.000299411
-0.0015619
-0.00157132
0.000486165
-0.000391892
-0.00153257
-0.000408397
0.00022415
-0.000650318
-0.0013502
-0.00149531
-0.000580508
-0.00187053
-0.000930055
-0.000319068
-5.80493e-05
0.000624619
0.00103636
-0.000519898
-0.00107805
0.000159341
-0.00156513
-0.00182822
0.000213429
-0.000458854
-0.00185348
-0.000902898
-7.29705e-05
-0.000951348
-0.00192085
-0.0021565
-0.000636486
-0.00189248
-0.00104317
-0.000356728
-0.000188183
0.00040618
0.000877705
-0.000623526
-0.00125067
-5.82291e-06
-0.00157125
-0.00207692
-0.000102227
-0.000541503
-0.00213799
-0.00143347
-0.000429675
-0.00121929
-0.00243694
-0.00282604
-0.000698202
-0.00191288
-0.00116244
-0.000405665
-0.000315293
0.000182685
0.000711114
-0.000724852
-0.00143074
-0.000197264
-0.0015839
-0.00231442
-0.000458036
-0.000651171
-0.00238235
-0.00198354
-0.000854869
-0.00147158
-0.00288851
-0.00348442
-0.000766123
-0.00193181
-0.00128662
-0.000467916
-0.000439172
-4.45942e-05
0.000535008
-0.000824291
-0.00161671
-0.000415342
-0.00160743
-0.00253794
-0.000848933
-0.000799196
-0.00258743
-0.00253532
-0.00135301
-0.00173014
-0.0032688
-0.00411139
-0.000840575
-0.0019495
-0.00141441
-0.000545339
-0.000560381
-0.000274026
0.000348075
-0.000922755
-0.00180683
-0.000659616
-0.00164669
-0.00274519
-0.00126782
-0.000994768
-0.00276058
-0.00306868
-0.00192013
-0.00202459
-0.0035815
-0.00468158
-0.000921826
-0.00196707
-0.00154396
-0.000639746
-0.000680095
-0.000503607
0.000148856
-0.0010213
-0.00199908
-0.000929715
-0.00170618
-0.00293436
-0.00170664
-0.00124376
-0.00291411
-0.00356457
-0.00254197
-0.0023826
-0.0038489
-0.00517839
-0.00101013
-0.00198516
-0.00167353
-0.000752432
-0.000800354
-0.000731132
-6.34628e-05
-0.00112189
-0.00219095
-0.00122424
-0.00179086
-0.00310485
-0.00215577
-0.00155015
-0.00306102
-0.00400783
-0.00319204
-0.00281507
-0.00410501
-0.00559992
-0.00110563
-0.00200487
-0.00180145
-0.000883837
-0.000923472
-0.000955164
-0.000289075
-0.00122681
-0.00238
-0.00154081
-0.00190604
-0.00325723
-0.00260489
-0.0019148
-0.00321636
-0.00438906
-0.00384303
-0.00333335
-0.00438863
-0.00596032
-0.00120833
-0.0020277
-0.00192615
-0.00103332
-0.00105245
-0.0011749
-0.000527599
-0.00133889
-0.00256372
-0.00187614
-0.00205717
-0.00339333
-0.00304376
-0.00233645
-0.00339757
-0.00470908
-0.00447313
-0.00393257
-0.00473046
-0.00628052
-0.00131804
-0.00205552
-0.00204687
-0.00119874
-0.00119043
-0.00139036
-0.000778127
-0.00146142
-0.0027398
-0.00222593
-0.00224967
-0.00351797
-0.00346166
-0.00280804
-0.00362515
-0.00498087
-0.0050637
-0.004591
-0.00514176
-0.00657702
-0.00143443
-0.00209042
-0.00216286
-0.00137717
-0.00134018
-0.00160162
-0.00103935
-0.00159746
-0.00290753
-0.0025847
-0.00248666
-0.00364072
-0.00385114
-0.00331533
-0.003915
-0.00522844
-0.00559561
-0.00527169
-0.00562337
-0.00687071
-0.00155704
-0.00213421
-0.00227452
-0.00156534
-0.00150388
-0.00181298
-0.00130985
-0.00175013
-0.0030673
-0.00294629
-0.00276812
-0.00377447
-0.00420851
-0.00384031
-0.00427043
-0.00547742
-0.00606223
-0.00593387
-0.00616878
-0.00719339
-0.00168526
-0.00218847
-0.0023829
-0.00175994
-0.0016823
-0.00202657
-0.00158909
-0.00192142
-0.00322099
-0.00330539
-0.00309063
-0.00393132
-0.00453403
-0.00436479
-0.00468416
-0.00574985
-0.00647359
-0.0065469
-0.00675501
-0.00757541
-0.00181849
-0.00225428
-0.0024899
-0.0019583
-0.00187461
-0.00224494
-0.00187724
-0.00211306
-0.00337201
-0.00365617
-0.00344815
-0.00412185
-0.00483263
-0.00487329
-0.00514359
-0.00606048
-0.0068499
-0.00710157
-0.0073475
-0.00801949
-0.00195619
-0.00233223
-0.00259825
-0.00215863
-0.00207871
-0.00246932
-0.00217507
-0.0023271
-0.0035241
-0.00399354
-0.00383299
-0.00435333
-0.00511294
-0.0053549
-0.00563388
-0.00641547
-0.00721219
-0.00760682
-0.00791654
-0.00849958
-0.00209799
-0.00242251
-0.00271047
-0.00236005
-0.0022924
-0.00270053
-0.00248315
-0.00256523
-0.00368142
-0.00431429
-0.00423673
-0.0046283
-0.00538625
-0.00580407
-0.00613837
-0.00681506
-0.00757631
-0.00807248
-0.00845549
-0.00898904
-0.0022437
-0.00252481
-0.00282866
-0.00256239
-0.00251364
-0.0029379
-0.00280139
-0.00282953
-0.00384943
-0.00461629
-0.00464989
-0.00494588
-0.00566477
-0.00622141
-0.00663988
-0.00725289
-0.00795643
-0.00850634
-0.00896669
-0.00947708
-0.00239335
-0.00263844
-0.00295439
-0.00276677
-0.00274085
-0.00317993
-0.00312913
-0.00312204
-0.00403411
-0.00489954
-0.00506297
-0.00530163
-0.00595945
-0.00661264
-0.0071245
-0.00771529
-0.00836495
-0.00892039
-0.00944482
-0.00996521
-0.00254722
-0.0027625
-0.00308845
-0.00297491
-0.00297341
-0.00342479
-0.00346458
-0.00344375
-0.00424156
-0.00516707
-0.0054677
-0.00568783
-0.00627707
-0.00698593
-0.00758633
-0.00818484
-0.00880334
-0.00933538
-0.00988452
-0.0104442
-0.00270561
-0.00289643
-0.0032312
-0.00318817
-0.00321135
-0.00367079
-0.00380431
-0.00379342
-0.0044782
-0.00542388
-0.00585805
-0.00609584
-0.00662029
-0.00734925
-0.00802682
-0.00864803
-0.00925737
-0.00977018
-0.0102973
-0.0108927
-0.00286881
-0.00303999
-0.0033828
-0.00340721
-0.00345617
-0.00391745
-0.00414263
-0.00416736
-0.00474913
-0.00567748
-0.00623065
-0.00651692
-0.00699033
-0.00770964
-0.00844803
-0.00910139
-0.00971108
-0.0102253
-0.0107085
-0.0112989
-0.0030371
-0.003193
-0.00354338
-0.00363213
-0.00370998
-0.00416627
-0.00447451
-0.00455664
-0.00505482
-0.00593776
-0.00658558
-0.00694142
-0.00738607
-0.00807602
-0.00885139
-0.00954427
-0.0101573
-0.0106852
-0.0111379
-0.0116788
-0.00321079
-0.00335546
-0.00371296
-0.00386266
-0.00397333
-0.00442012
-0.00479805
-0.00495061
-0.00539122
-0.00621404
-0.00692707
-0.00736075
-0.00780075
-0.00845657
-0.00924245
-0.00997372
-0.0105961
-0.011136
-0.0115845
-0.01206
-0.00339018
-0.00352729
-0.00389154
-0.00409854
-0.00424547
-0.00468138
-0.00511399
-0.00534231
-0.00575195
-0.00651152
-0.00726158
-0.00777051
-0.00822522
-0.00885217
-0.00962927
-0.0103887
-0.011028
-0.0115738
-0.0120335
-0.0124595
-0.00357542
-0.00370834
-0.0040791
-0.00433901
-0.00452533
-0.00495143
-0.00542404
-0.00572773
-0.00612988
-0.00683105
-0.00759465
-0.00817001
-0.00865279
-0.00925874
-0.0100163
-0.0107914
-0.0114526
-0.0120011
-0.0124719
-0.0128749
-0.00376652
-0.0038984
-0.00427558
-0.00458303
-0.00481124
-0.00523113
-0.00573095
-0.00610444
-0.00651792
-0.0071717
-0.00793079
-0.0085586
-0.00907839
-0.00967367
-0.0104048
-0.0111829
-0.0118684
-0.0124217
-0.0128961
-0.0132928
-0.00396346
-0.00409699
-0.00448083
-0.00482995
-0.00510133
-0.00552007
-0.00603794
-0.00647232
-0.00690852
-0.00752962
-0.00827538
-0.00893779
-0.00949502
-0.0100933
-0.0107977
-0.0115636
-0.0122719
-0.0128378
-0.0133093
-0.0137032
-0.00416612
-0.00430336
-0.00469433
-0.00507949
-0.00539407
-0.00581707
-0.00634687
-0.00683279
-0.00729687
-0.00789796
-0.00862925
-0.00931293
-0.00989944
-0.0105087
-0.0111971
-0.0119383
-0.012659
-0.0132466
-0.013715
-0.0141035
-0.00437411
-0.00451663
-0.00491558
-0.00533152
-0.0056875
-0.00612044
-0.00665909
-0.00718659
-0.00768109
-0.0082715
-0.00898757
-0.00968672
-0.0102959
-0.0109126
-0.0115965
-0.0123135
-0.0130286
-0.0136423
-0.0141144
-0.0144955
-0.00458698
-0.0047355
-0.00514362
-0.0055863
-0.00598018
-0.00642774
-0.00697475
-0.00753451
-0.00805904
-0.00864812
-0.00934777
-0.0100541
-0.0106879
-0.0113077
-0.0119855
-0.0126889
-0.0133853
-0.0140172
-0.0145043
-0.0148784
-0.00480401
-0.00495889
-0.00537699
-0.00584344
-0.00627159
-0.00673688
-0.00729287
-0.00787798
-0.0084288
-0.00902292
-0.00971019
-0.0104129
-0.0110683
-0.0116984
-0.0123631
-0.0130577
-0.0137358
-0.0143697
-0.0148786
-0.01525
-0.00502416
-0.00518552
-0.00561424
-0.00610243
-0.00656087
-0.00704527
-0.007612
-0.00821807
-0.00879047
-0.00939046
-0.0100713
-0.0107674
-0.0114312
-0.0120777
-0.0127327
-0.0134135
-0.0140798
-0.0147037
-0.0152318
-0.0156091
-0.00524621
-0.00541393
-0.00585334
-0.00636247
-0.00684794
-0.00735114
-0.00792901
-0.00855345
-0.00914604
-0.00974973
-0.0104231
-0.0111175
-0.0117803
-0.0124369
-0.0130926
-0.0137549
-0.0144118
-0.0150233
-0.01556
-0.0159513
-0.0054685
-0.00564272
-0.00609229
-0.00662132
-0.0071319
-0.00765423
-0.00824294
-0.00888104
-0.00949331
-0.0101025
-0.0107622
-0.0114545
-0.0121174
-0.0127732
-0.0134349
-0.0140827
-0.0147276
-0.0153318
-0.0158677
-0.016274
-0.00568887
-0.00586995
-0.00632946
-0.00687756
-0.00741092
-0.00795206
-0.00855326
-0.00920231
-0.00982946
-0.010446
-0.0110911
-0.0117727
-0.0124344
-0.0130837
-0.0137488
-0.0143895
-0.0150194
-0.0156209
-0.0161565
-0.0165768
-0.00590496
-0.00609342
-0.00656241
-0.00712854
-0.00768433
-0.00824296
-0.00885583
-0.00951715
-0.0101571
-0.0107778
-0.0114116
-0.0120748
-0.0127282
-0.0133656
-0.0140218
-0.0146576
-0.0152723
-0.0158721
-0.016413
-0.0168486
-0.0061139
-0.00631046
-0.00678942
-0.00737148
-0.00794965
-0.00852801
-0.00914876
-0.00981892
-0.0104732
-0.0110964
-0.0117215
-0.012369
-0.0130035
-0.013621
-0.0142566
-0.0148794
-0.0154697
-0.0160503
-0.0165899
-0.0170381
-0.0063121
-0.00651768
-0.00700765
-0.0076043
-0.00820423
-0.00880499
-0.00943697
-0.0101094
-0.0107739
-0.0113958
-0.0120081
-0.0126449
-0.013267
-0.0138678
-0.0144848
-0.0150987
-0.0156696
-0.0162177
-0.0167303
-0.0171547
-0.00649544
-0.00671004
-0.00721321
-0.00782512
-0.00844572
-0.0090682
-0.00971946
-0.0104039
-0.0110677
-0.0116775
-0.0122422
-0.0128125
-0.013392
-0.013954
-0.0145346
-0.015158
-0.0157775
-0.0163893
-0.0169889
-0.0175181
-0.00666004
-0.00688355
-0.00740106
-0.00802721
-0.0086676
-0.00931131
-0.00998333
-0.01071
-0.0114355
-0.012109
-0.012705
-0.013203
-0.0136586
-0.0141072
-0.0145463
-0.015002
-0.0154186
-0.0157692
-0.0160878
-0.0164168
-0.00680747
-0.00703872
-0.00756829
-0.00820924
-0.00886737
-0.00952931
-0.0101913
-0.0108722
-0.011537
-0.0121244
-0.0126653
-0.013189
-0.0136968
-0.0142303
-0.014775
-0.015363
-0.0159957
-0.0166264
-0.0172404
-0.017796
-0.00691622
-0.00715241
-0.00769942
-0.00835803
-0.00904021
-0.00973852
-0.0104493
-0.0111698
-0.0118487
-0.0124117
-0.0128834
-0.0133649
-0.0138392
-0.0143001
-0.0147341
-0.0151265
-0.0154987
-0.0158363
-0.0161643
-0.0165328
-0.00701723
-0.00726487
-0.00781494
-0.00847407
-0.00914768
-0.0098388
-0.0105427
-0.011267
-0.011993
-0.0126642
-0.0132102
-0.0136564
-0.0140391
-0.0143757
-0.0147248
-0.0151152
-0.0155626
-0.0160382
-0.0165195
-0.0170266
0.0324642
0.0183393
0.00390361
-0.00585932
-0.00990945
-0.0105651
-0.0111349
-0.012507
-0.0142017
-0.0157569
-0.0169401
-0.0177556
-0.0183931
-0.0190541
-0.0198381
-0.0207279
-0.0216942
-0.0226387
-0.0234871
-0.0243561
-0.0253335
-0.0263239
-0.0272234
-0.0280627
-0.0289314
-0.0298405
-0.030779
-0.0317849
-0.0328057
-0.0338392
-0.0349627
-0.0360907
-0.0371338
-0.0381553
-0.039178
-0.0402262
-0.0413103
-0.042368
-0.0434112
-0.044519
-0.0456487
-0.0467628
-0.0479145
-0.049154
-0.050394
-0.051573
-0.0527755
-0.0540348
-0.0552717
-0.0564745
-0.0577865
-0.0592682
-0.0607386
-0.0621022
-0.0634887
-0.0649183
-0.0664
-0.0678907
-0.0693716
-0.0708774
-0.072477
-0.0741122
-0.0757492
-0.0774085
-0.0790757
-0.0807278
-0.0824299
-0.0841976
-0.0859405
-0.0877324
-0.0896999
-0.091759
-0.0936979
-0.0956357
-0.097625
-0.0995257
-0.101478
-0.103639
-0.10597
-0.108257
-0.110447
-0.112635
-0.114843
-0.117198
-0.119661
-0.122149
-0.124587
-0.127074
-0.129692
-0.132356
-0.135028
-0.137748
-0.140582
-0.143449
-0.146262
-0.14905
-0.151957
-0.154813
-0.157589
-0.160471
0.0301905
0.0181235
0.00398158
-0.00571675
-0.00981116
-0.0105121
-0.011101
-0.0124862
-0.014189
-0.0157488
-0.0169345
-0.0177513
-0.0183891
-0.0190498
-0.0198337
-0.0207237
-0.0216906
-0.0226357
-0.0234843
-0.0243533
-0.0253309
-0.0263217
-0.0272214
-0.0280607
-0.0289295
-0.0298386
-0.0307772
-0.0317832
-0.0328042
-0.0338376
-0.0349612
-0.0360894
-0.0371326
-0.0381541
-0.0391768
-0.0402252
-0.0413093
-0.0423672
-0.0434103
-0.0445181
-0.0456479
-0.0467622
-0.0479138
-0.0491533
-0.0503934
-0.0515725
-0.0527749
-0.0540343
-0.0552712
-0.0564741
-0.0577859
-0.0592677
-0.0607383
-0.0621019
-0.0634883
-0.0649179
-0.0663996
-0.0678904
-0.0693712
-0.070877
-0.0724766
-0.0741119
-0.0757489
-0.0774082
-0.0790754
-0.0807276
-0.0824296
-0.0841973
-0.0859402
-0.0877322
-0.0896996
-0.0917587
-0.0936977
-0.0956355
-0.0976248
-0.0995255
-0.101478
-0.103639
-0.105969
-0.108257
-0.110447
-0.112635
-0.114843
-0.117198
-0.119661
-0.122149
-0.124586
-0.127074
-0.129692
-0.132356
-0.135028
-0.137748
-0.140582
-0.143449
-0.146262
-0.14905
-0.151957
-0.154813
-0.157589
-0.160471
0.0288012
0.0180238
0.00416577
-0.00545853
-0.00965864
-0.0104609
-0.0110763
-0.0124628
-0.0141683
-0.015733
-0.0169238
-0.0177446
-0.018385
-0.0190468
-0.0198307
-0.0207202
-0.0216871
-0.0226328
-0.0234818
-0.0243509
-0.0253288
-0.0263198
-0.0272196
-0.028059
-0.0289278
-0.029837
-0.0307757
-0.0317818
-0.0328029
-0.0338363
-0.03496
-0.0360884
-0.0371317
-0.0381532
-0.0391759
-0.0402242
-0.0413085
-0.0423665
-0.0434096
-0.0445174
-0.0456473
-0.0467616
-0.0479132
-0.0491528
-0.050393
-0.051572
-0.0527745
-0.054034
-0.0552709
-0.0564736
-0.0577854
-0.0592673
-0.0607381
-0.0621016
-0.063488
-0.0649176
-0.0663993
-0.0678901
-0.069371
-0.0708767
-0.0724764
-0.0741117
-0.0757486
-0.077408
-0.0790752
-0.0807274
-0.0824294
-0.0841971
-0.08594
-0.0877319
-0.0896993
-0.0917586
-0.0936975
-0.0956353
-0.0976247
-0.0995254
-0.101478
-0.103639
-0.105969
-0.108257
-0.110447
-0.112635
-0.114842
-0.117198
-0.11966
-0.122149
-0.124586
-0.127074
-0.129692
-0.132356
-0.135028
-0.137748
-0.140582
-0.143449
-0.146262
-0.14905
-0.151957
-0.154813
-0.157589
-0.160472
0.0273384
0.017815
0.00433983
-0.00516741
-0.00946417
-0.0103942
-0.0110426
-0.0124273
-0.0141338
-0.0157028
-0.0168997
-0.0177288
-0.0183771
-0.0190437
-0.0198286
-0.0207168
-0.0216824
-0.0226283
-0.0234785
-0.0243485
-0.0253264
-0.0263175
-0.0272177
-0.0280574
-0.0289261
-0.0298352
-0.0307738
-0.0317803
-0.0328016
-0.0338349
-0.0349587
-0.0360873
-0.0371307
-0.0381523
-0.0391749
-0.0402232
-0.0413076
-0.0423656
-0.0434087
-0.0445167
-0.0456466
-0.0467609
-0.0479126
-0.0491522
-0.0503925
-0.0515716
-0.052774
-0.0540335
-0.0552705
-0.0564732
-0.0577848
-0.0592669
-0.0607379
-0.0621013
-0.0634876
-0.0649173
-0.066399
-0.0678898
-0.0693707
-0.0708764
-0.0724761
-0.0741114
-0.0757484
-0.0774078
-0.079075
-0.0807271
-0.0824291
-0.0841969
-0.0859398
-0.0877316
-0.0896991
-0.0917585
-0.0936974
-0.0956351
-0.0976246
-0.0995253
-0.101478
-0.103638
-0.105969
-0.108257
-0.110447
-0.112634
-0.114842
-0.117198
-0.11966
-0.122149
-0.124586
-0.127074
-0.129692
-0.132356
-0.135028
-0.137748
-0.140582
-0.143449
-0.146262
-0.14905
-0.151956
-0.154813
-0.157589
-0.160472
0.025847
0.017526
0.00450978
-0.00486507
-0.00925414
-0.0103209
-0.0110062
-0.0123846
-0.0140873
-0.0156579
-0.0168604
-0.0177008
-0.0183625
-0.0190388
-0.019827
-0.0207135
-0.0216764
-0.0226218
-0.0234739
-0.0243456
-0.0253235
-0.0263142
-0.0272152
-0.0280559
-0.0289246
-0.0298331
-0.0307715
-0.0317784
-0.0328001
-0.0338335
-0.0349572
-0.0360858
-0.0371293
-0.0381513
-0.0391738
-0.0402219
-0.0413065
-0.0423646
-0.0434077
-0.0445157
-0.0456456
-0.04676
-0.0479118
-0.0491515
-0.0503919
-0.051571
-0.0527734
-0.054033
-0.0552701
-0.0564727
-0.0577842
-0.0592664
-0.0607377
-0.0621009
-0.0634872
-0.0649169
-0.0663986
-0.0678895
-0.0693704
-0.0708761
-0.0724757
-0.0741112
-0.0757482
-0.0774075
-0.0790748
-0.0807269
-0.0824289
-0.0841967
-0.0859396
-0.0877312
-0.0896988
-0.0917585
-0.0936972
-0.0956348
-0.0976245
-0.0995252
-0.101477
-0.103638
-0.105969
-0.108257
-0.110447
-0.112634
-0.114842
-0.117197
-0.11966
-0.122148
-0.124586
-0.127074
-0.129692
-0.132356
-0.135028
-0.137748
-0.140582
-0.143449
-0.146262
-0.14905
-0.151956
-0.154813
-0.157589
-0.160473
0.0243609
0.017178
0.0046784
-0.00455992
-0.00903814
-0.0102454
-0.0109717
-0.0123407
-0.014036
-0.015605
-0.0168109
-0.017663
-0.0183411
-0.0190308
-0.019825
-0.0207103
-0.0216692
-0.0226134
-0.0234681
-0.0243422
-0.0253196
-0.0263095
-0.027212
-0.0280547
-0.0289235
-0.029831
-0.0307689
-0.0317761
-0.0327986
-0.033832
-0.0349553
-0.0360835
-0.0371275
-0.0381501
-0.0391724
-0.0402203
-0.0413051
-0.0423635
-0.0434066
-0.0445144
-0.0456443
-0.0467589
-0.0479109
-0.0491506
-0.0503912
-0.0515704
-0.0527729
-0.0540324
-0.0552695
-0.0564721
-0.0577834
-0.0592659
-0.0607374
-0.0621005
-0.0634868
-0.0649165
-0.0663982
-0.0678892
-0.0693701
-0.0708758
-0.0724754
-0.0741109
-0.0757479
-0.0774073
-0.0790746
-0.0807266
-0.0824286
-0.0841965
-0.0859394
-0.0877308
-0.0896985
-0.0917585
-0.093697
-0.0956345
-0.0976244
-0.0995251
-0.101477
-0.103638
-0.105969
-0.108257
-0.110447
-0.112634
-0.114842
-0.117197
-0.11966
-0.122148
-0.124586
-0.127074
-0.129691
-0.132356
-0.135028
-0.137748
-0.140582
-0.143449
-0.146262
-0.14905
-0.151956
-0.154813
-0.157589
-0.160474
0.0228926
0.0167721
0.00483832
-0.00425811
-0.00881871
-0.0101675
-0.0109389
-0.0122972
-0.0139826
-0.0155487
-0.0167566
-0.0176197
-0.018315
-0.0190199
-0.0198217
-0.0207065
-0.0216611
-0.0226039
-0.0234617
-0.0243384
-0.0253148
-0.0263031
-0.0272075
-0.0280536
-0.0289231
-0.0298293
-0.0307663
-0.0317737
-0.032797
-0.0338307
-0.0349531
-0.0360805
-0.037125
-0.0381485
-0.0391705
-0.040218
-0.0413032
-0.0423621
-0.0434054
-0.0445129
-0.0456426
-0.0467576
-0.0479098
-0.0491493
-0.0503901
-0.0515698
-0.0527723
-0.0540317
-0.0552688
-0.0564714
-0.0577826
-0.0592652
-0.060737
-0.0621001
-0.0634864
-0.0649161
-0.0663976
-0.0678887
-0.0693697
-0.0708754
-0.072475
-0.0741106
-0.0757477
-0.077407
-0.0790743
-0.0807264
-0.0824283
-0.0841963
-0.0859391
-0.0877304
-0.0896982
-0.0917585
-0.0936968
-0.0956341
-0.0976243
-0.099525
-0.101476
-0.103637
-0.105969
-0.108257
-0.110447
-0.112634
-0.114842
-0.117197
-0.11966
-0.122148
-0.124586
-0.127073
-0.129691
-0.132356
-0.135028
-0.137747
-0.140581
-0.143449
-0.146261
-0.14905
-0.151956
-0.154813
-0.15759
-0.160475
0.0214545
0.0163079
0.00498089
-0.00396388
-0.00859633
-0.0100854
-0.0109068
-0.0122542
-0.0139278
-0.0154904
-0.0166998
-0.0175734
-0.018286
-0.0190068
-0.0198172
-0.0207021
-0.0216525
-0.0225939
-0.0234551
-0.0243346
-0.0253092
-0.0262952
-0.0272018
-0.0280521
-0.028923
-0.0298281
-0.0307641
-0.0317715
-0.0327957
-0.0338297
-0.0349509
-0.036077
-0.0371221
-0.0381465
-0.039168
-0.040215
-0.0413004
-0.0423602
-0.0434041
-0.0445112
-0.0456406
-0.0467561
-0.0479085
-0.0491476
-0.0503885
-0.0515689
-0.0527717
-0.0540308
-0.055268
-0.0564708
-0.0577818
-0.0592643
-0.0607364
-0.0620995
-0.0634859
-0.0649155
-0.0663969
-0.067888
-0.0693692
-0.0708749
-0.0724746
-0.0741103
-0.0757474
-0.0774066
-0.079074
-0.0807261
-0.082428
-0.084196
-0.0859387
-0.08773
-0.089698
-0.0917586
-0.0936965
-0.0956337
-0.0976242
-0.0995249
-0.101476
-0.103637
-0.105969
-0.108257
-0.110446
-0.112634
-0.114841
-0.117197
-0.11966
-0.122148
-0.124586
-0.127073
-0.129691
-0.132356
-0.135028
-0.137747
-0.140581
-0.143449
-0.146261
-0.14905
-0.151956
-0.154814
-0.15759
-0.160477
0.0200561
0.0157832
0.00509849
-0.00367897
-0.00836997
-0.00999673
-0.0108745
-0.0122122
-0.013872
-0.0154305
-0.0166413
-0.0175251
-0.0182548
-0.0189916
-0.0198113
-0.0206972
-0.0216436
-0.0225836
-0.0234484
-0.0243309
-0.0253033
-0.0262864
-0.0271951
-0.0280502
-0.0289231
-0.0298274
-0.0307625
-0.0317698
-0.0327946
-0.0338289
-0.0349486
-0.0360732
-0.037119
-0.0381443
-0.039165
-0.040211
-0.0412967
-0.0423576
-0.0434025
-0.0445094
-0.0456385
-0.0467547
-0.0479073
-0.0491455
-0.0503864
-0.0515677
-0.0527709
-0.0540299
-0.0552672
-0.0564704
-0.057781
-0.0592632
-0.0607355
-0.0620987
-0.0634853
-0.0649148
-0.066396
-0.0678872
-0.0693686
-0.0708744
-0.072474
-0.0741098
-0.0757471
-0.0774063
-0.0790737
-0.0807259
-0.0824277
-0.0841956
-0.0859383
-0.0877294
-0.0896978
-0.0917587
-0.0936962
-0.0956332
-0.0976242
-0.0995249
-0.101476
-0.103636
-0.105968
-0.108257
-0.110446
-0.112634
-0.114841
-0.117196
-0.11966
-0.122148
-0.124586
-0.127073
-0.129691
-0.132356
-0.135027
-0.137747
-0.140581
-0.143449
-0.146261
-0.14905
-0.151956
-0.154814
-0.157591
-0.16048
0.018702
0.0151973
0.00518698
-0.00340258
-0.00813807
-0.00989987
-0.0108414
-0.012172
-0.0138162
-0.0153694
-0.0165814
-0.017475
-0.0182215
-0.0189748
-0.0198044
-0.0206917
-0.0216344
-0.0225731
-0.0234417
-0.0243272
-0.0252972
-0.0262771
-0.0271878
-0.0280479
-0.028923
-0.0298269
-0.0307614
-0.0317685
-0.032794
-0.0338284
-0.0349465
-0.0360694
-0.037116
-0.0381422
-0.0391617
-0.0402065
-0.041292
-0.0423542
-0.0434005
-0.0445074
-0.0456364
-0.0467535
-0.0479062
-0.0491433
-0.0503839
-0.0515661
-0.0527696
-0.0540285
-0.0552664
-0.0564704
-0.0577806
-0.0592621
-0.0607343
-0.0620976
-0.0634845
-0.064914
-0.0663948
-0.0678861
-0.069368
-0.0708737
-0.0724732
-0.0741091
-0.0757466
-0.0774058
-0.0790734
-0.0807257
-0.0824275
-0.0841952
-0.0859377
-0.0877288
-0.0896975
-0.0917589
-0.0936958
-0.0956327
-0.0976242
-0.099525
-0.101475
-0.103636
-0.105968
-0.108257
-0.110446
-0.112633
-0.114841
-0.117196
-0.119659
-0.122148
-0.124585
-0.127073
-0.129691
-0.132355
-0.135027