/*--------------------------------*- C++ -*----------------------------------*\
| =========                 |                                                 |
| \\      /  F ield         | OpenFOAM: The Open Source CFD Toolbox           |
|  \\    /   O peration     | Version:  v1912                                 |
|   \\  /    A nd           | Website:  www.openfoam.com                      |
|    \\/     M anipulation  |                                                 |
\*---------------------------------------------------------------------------*/
FoamFile
{
    version     2.0;
    format      ascii;
    class       surfaceScalarField;
    location    "2.4";
    object      phi;
}
// * * * * * * * * * * * * * * * * * * * * * * * * * * * * * * * * * * * * * //

dimensions      [0 3 -1 0 0 0 0];
oriented        oriented;


internalField   nonuniform List<scalar> 
19000
(
1.20102e-06
6.4882e-07
1.163e-06
-7.05554e-07
1.14054e-06
2.48811e-07
1.18073e-06
5.55117e-07
1.16153e-06
2.0012e-07
1.06775e-06
-1.88978e-06
1.19694e-06
1.24263e-06
1.13917e-06
3.85932e-08
1.17713e-06
3.39635e-07
1.1628e-06
1.14215e-06
1.12942e-06
2.53785e-07
1.16768e-06
6.68728e-07
1.13277e-06
1.9423e-08
1.15924e-06
5.02471e-07
1.15383e-06
6.17104e-08
1.15969e-06
7.85716e-08
1.17513e-06
-3.81079e-08
1.15211e-06
-3.51626e-07
1.1683e-06
-7.40077e-08
-6.01902e-07
1.08657e-06
1.25486e-06
6.18221e-07
1.21668e-06
-6.67378e-07
1.19195e-06
2.73541e-07
1.23547e-06
5.11601e-07
1.21861e-06
2.16978e-07
1.12269e-06
-1.79386e-06
1.25043e-06
1.11489e-06
1.19259e-06
9.64337e-08
1.22727e-06
3.04955e-07
1.23641e-06
1.13302e-06
1.19014e-06
3.00048e-07
1.2367e-06
6.22171e-07
1.19591e-06
6.02124e-08
1.22767e-06
4.70715e-07
1.21088e-06
7.84969e-08
1.23014e-06
5.93119e-08
1.22298e-06
-3.09456e-08
1.22274e-06
-3.51386e-07
1.21074e-06
-6.20131e-08
-5.6e-07
1.16884e-06
1.30995e-06
5.91051e-07
1.27397e-06
-6.31395e-07
1.24631e-06
3.01202e-07
1.28929e-06
4.68617e-07
1.27901e-06
2.27261e-07
1.18391e-06
-1.69876e-06
1.30218e-06
9.96615e-07
1.2569e-06
1.41709e-07
1.27748e-06
2.84376e-07
1.31434e-06
1.09616e-06
1.25459e-06
3.59798e-07
1.29571e-06
5.81052e-07
1.25917e-06
9.67559e-08
1.27976e-06
4.50117e-07
1.26892e-06
8.93406e-08
1.28088e-06
4.73544e-08
1.27824e-06
-2.83073e-08
1.27312e-06
-3.46265e-07
1.27158e-06
-6.04747e-08
-5.22905e-07
1.23449e-06
1.367e-06
5.68157e-07
1.33591e-06
-6.00302e-07
1.30512e-06
3.31988e-07
1.34459e-06
4.29142e-07
1.34247e-06
2.29386e-07
1.25489e-06
-1.61118e-06
1.35553e-06
8.95972e-07
1.33117e-06
1.66072e-07
1.32966e-06
2.85886e-07
1.3813e-06
1.04452e-06
1.32231e-06
4.1879e-07
1.34364e-06
5.59724e-07
1.32011e-06
1.20288e-07
1.3303e-06
4.39925e-07
1.32631e-06
9.33321e-08
1.33617e-06
3.74903e-08
1.33527e-06
-2.74038e-08
1.32945e-06
-3.40451e-07
1.32934e-06
-6.03571e-08
-4.85461e-07
1.29189e-06
1.42667e-06
5.49836e-07
1.402e-06
-5.75626e-07
1.37023e-06
3.63753e-07
1.40338e-06
3.95999e-07
1.40867e-06
2.24095e-07
1.33479e-06
-1.5373e-06
1.41267e-06
8.18089e-07
1.40885e-06
1.6989e-07
1.38839e-06
3.06346e-07
1.43738e-06
9.95527e-07
1.39279e-06
4.63378e-07
1.39545e-06
5.5707e-07
1.38222e-06
1.3352e-07
1.39053e-06
4.31609e-07
1.38979e-06
9.4076e-08
1.40009e-06
2.71905e-08
1.40026e-06
-2.75708e-08
1.39345e-06
-3.33643e-07
1.39399e-06
-6.09016e-08
-4.47432e-07
1.35596e-06
1.48975e-06
5.35761e-07
1.47136e-06
-5.57232e-07
1.44214e-06
3.92969e-07
1.46717e-06
3.70966e-07
1.47727e-06
2.13997e-07
1.41985e-06
-1.47987e-06
1.47489e-06
7.63047e-07
1.48483e-06
1.59949e-07
1.45583e-06
3.35349e-07
1.49235e-06
9.59006e-07
1.46543e-06
4.90301e-07
1.4588e-06
5.637e-07
1.45015e-06
1.42167e-07
1.46064e-06
4.21125e-07
1.46159e-06
9.3124e-08
1.47155e-06
1.72262e-08
1.47186e-06
-2.78817e-08
1.46339e-06
-3.25174e-07
1.46367e-06
-6.11746e-08
-4.0832e-07
1.42455e-06
1.55688e-06
5.25096e-07
1.54334e-06
-5.43689e-07
1.51981e-06
4.165e-07
1.53669e-06
3.54086e-07
1.5482e-06
2.02481e-07
1.50588e-06
-1.43755e-06
1.5426e-06
7.26324e-07
1.55866e-06
1.43892e-07
1.53035e-06
3.63665e-07
1.55346e-06
9.35893e-07
1.53971e-06
5.04054e-07
1.53205e-06
5.71353e-07
1.52501e-06
1.49206e-07
1.53772e-06
4.08419e-07
1.53918e-06
9.16643e-08
1.54847e-06
7.93126e-09
1.54794e-06
-2.73496e-08
1.53733e-06
-3.14564e-07
1.53717e-06
-6.10159e-08
-3.68312e-07
1.49716e-06
1.62842e-06
5.16807e-07
1.61783e-06
-5.33099e-07
1.60142e-06
4.32912e-07
1.6117e-06
3.43799e-07
1.62169e-06
1.92498e-07
1.59063e-06
-1.4065e-06
1.61575e-06
7.01207e-07
1.63256e-06
1.27084e-07
1.60864e-06
3.87578e-07
1.62195e-06
9.22592e-07
1.61565e-06
5.10347e-07
1.61083e-06
5.76171e-07
1.60482e-06
1.55217e-07
1.61915e-06
3.94096e-07
1.6201e-06
9.07074e-08
1.62874e-06
-7.05316e-10
1.62735e-06
-2.59576e-08
1.61452e-06
-3.01734e-07
1.61408e-06
-6.0575e-08
-3.28196e-07
1.57396e-06
1.70441e-06
5.09971e-07
1.69512e-06
-5.23811e-07
1.6855e-06
4.42538e-07
1.69151e-06
3.37784e-07
1.69819e-06
1.85822e-07
1.6742e-06
-1.38251e-06
1.69389e-06
6.81519e-07
1.70864e-06
1.12335e-07
1.68865e-06
4.07567e-07
1.69624e-06
9.15002e-07
1.69374e-06
5.12849e-07
1.69251e-06
5.77402e-07
1.68762e-06
1.60104e-07
1.70325e-06
3.78468e-07
1.7034e-06
9.05577e-08
1.7113e-06
-8.61174e-09
1.7095e-06
-2.41537e-08
1.69484e-06
-2.87075e-07
1.69433e-06
-6.0068e-08
-2.88821e-07
1.65496e-06
1.78475e-06
5.03944e-07
1.77568e-06
-5.14743e-07
1.77157e-06
4.4665e-07
1.77548e-06
3.33873e-07
1.77832e-06
1.82981e-07
1.75798e-06
-1.36217e-06
1.77626e-06
6.63234e-07
1.78794e-06
1.00657e-07
1.77034e-06
4.25169e-07
1.77515e-06
9.10191e-07
1.7748e-06
5.132e-07
1.77674e-06
5.75463e-07
1.77295e-06
1.63888e-07
1.78954e-06
3.61879e-07
1.78901e-06
9.10904e-08
1.79603e-06
-1.56328e-08
1.79416e-06
-2.22806e-08
1.77825e-06
-2.71167e-07
1.77794e-06
-5.97649e-08
-2.50903e-07
1.74003e-06
1.86933e-06
4.98367e-07
1.85995e-06
-5.05362e-07
1.86001e-06
4.46589e-07
1.86335e-06
3.30533e-07
1.86271e-06
1.83615e-07
1.84347e-06
-1.34292e-06
1.86209e-06
6.44607e-07
1.8708e-06
9.1952e-08
1.85483e-06
4.41137e-07
1.85865e-06
9.06376e-07
1.85993e-06
5.11917e-07
1.8644e-06
5.70988e-07
1.86146e-06
1.6683e-07
1.87843e-06
3.44916e-07
1.87726e-06
9.22534e-08
1.88317e-06
-2.15372e-08
1.88133e-06
-2.04467e-08
1.86468e-06
-2.54509e-07
1.86482e-06
-5.99047e-08
-2.15065e-07
1.82898e-06
1.95813e-06
4.93078e-07
1.94827e-06
-4.95504e-07
1.95152e-06
4.4334e-07
1.95517e-06
3.26878e-07
1.95188e-06
1.86907e-07
1.93179e-06
-1.32284e-06
1.95097e-06
6.25434e-07
1.95741e-06
8.5505e-08
1.94329e-06
4.55258e-07
1.94724e-06
9.02435e-07
1.95013e-06
5.09024e-07
1.95652e-06
5.64597e-07
1.95398e-06
1.69368e-07
1.97057e-06
3.28324e-07
1.96863e-06
9.41952e-08
1.97314e-06
-2.60428e-08
1.97127e-06
-1.85816e-08
1.95417e-06
-2.3741e-07
1.95482e-06
-6.05479e-08
-1.81848e-07
1.9216e-06
2.05126e-06
4.8801e-07
2.04095e-06
-4.85194e-07
2.04673e-06
4.37559e-07
2.05115e-06
3.22461e-07
2.04616e-06
1.91888e-07
2.02369e-06
-1.30036e-06
2.04294e-06
6.06181e-07
2.048e-06
8.04468e-08
2.03637e-06
4.66892e-07
2.04125e-06
8.97553e-07
2.0459e-06
5.04375e-07
2.05362e-06
5.56877e-07
2.05099e-06
1.71994e-07
2.06652e-06
3.12799e-07
2.06359e-06
9.71184e-08
2.0665e-06
-2.89476e-08
2.06444e-06
-1.65271e-08
2.04702e-06
-2.19988e-07
2.04799e-06
-6.15122e-08
-1.51626e-07
2.01776e-06
2.1489e-06
4.8311e-07
2.13825e-06
-4.74544e-07
2.14603e-06
4.29781e-07
2.15142e-06
3.17066e-07
2.14568e-06
1.97631e-07
2.11974e-06
-1.27442e-06
2.13849e-06
5.87426e-07
2.14275e-06
7.61913e-08
2.1342e-06
4.75443e-07
2.14062e-06
8.91132e-07
2.14716e-06
4.97836e-07
2.15567e-06
5.48366e-07
2.15257e-06
1.75095e-07
2.16657e-06
2.98799e-07
2.16259e-06
1.01097e-07
2.1639e-06
-3.0256e-08
2.1615e-06
-1.413e-08
2.14378e-06
-2.0227e-07
2.14469e-06
-6.24135e-08
-1.24515e-07
2.11757e-06
2.25129e-06
4.78306e-07
2.24044e-06
-4.63696e-07
2.24963e-06
4.20597e-07
2.25609e-06
3.10601e-07
2.2504e-06
2.03322e-07
2.22051e-06
-1.24453e-06
2.23831e-06
5.6963e-07
2.24182e-06
7.26806e-08
2.23678e-06
4.80486e-07
2.24508e-06
8.82829e-07
2.2535e-06
4.89422e-07
2.26234e-06
5.39522e-07
2.25855e-06
1.78881e-07
2.27092e-06
2.86436e-07
2.26598e-06
1.06029e-07
2.26595e-06
-3.02191e-08
2.26312e-06
-1.13039e-08
2.24513e-06
-1.84284e-07
2.24557e-06
-6.28517e-08
-1.00356e-07
2.22141e-06
2.35868e-06
4.73505e-07
2.34777e-06
-4.52786e-07
2.3577e-06
4.10665e-07
2.36519e-06
3.03115e-07
2.36024e-06
2.0827e-07
2.32655e-06
-1.21085e-06
2.34307e-06
5.5311e-07
2.34544e-06
7.03162e-08
2.3442e-06
4.81728e-07
2.35443e-06
8.72595e-07
2.3645e-06
4.79354e-07
2.37334e-06
5.30678e-07
2.36881e-06
1.83415e-07
2.37973e-06
2.75515e-07
2.37406e-06
1.117e-07
2.37307e-06
-2.92319e-08
2.36981e-06
-8.04377e-09
2.35166e-06
-1.66136e-07
2.35142e-06
-6.26122e-08
-7.87944e-08
2.32986e-06
2.47129e-06
4.68608e-07
2.46041e-06
-4.41901e-07
2.47049e-06
4.0058e-07
2.47878e-06
2.94831e-07
2.47516e-06
2.11882e-07
2.43823e-06
-1.17391e-06
2.45331e-06
5.38033e-07
2.45395e-06
6.96665e-08
2.45665e-06
4.7903e-07
2.46862e-06
8.60628e-07
2.47997e-06
4.68004e-07
2.48866e-06
5.21993e-07
2.48337e-06
1.88696e-07
2.49323e-06
2.65663e-07
2.48706e-06
1.17863e-07
2.4855e-06
-2.76664e-08
2.48187e-06
-4.41694e-09
2.46372e-06
-1.47987e-07
2.46283e-06
-6.1717e-08
-5.94698e-08
2.4435e-06
2.58938e-06
4.63526e-07
2.57851e-06
-4.31033e-07
2.58838e-06
3.90707e-07
2.59708e-06
2.86136e-07
2.59526e-06
2.13696e-07
2.55567e-06
-1.13432e-06
2.56934e-06
5.24365e-07
2.56786e-06
7.1147e-08
2.57436e-06
4.72532e-07
2.58772e-06
8.47268e-07
2.59998e-06
4.55743e-07
2.60854e-06
5.13431e-07
2.60253e-06
1.94713e-07
2.61172e-06
2.56471e-07
2.60526e-06
1.2432e-07
2.60335e-06
-2.5751e-08
2.59949e-06
-5.64822e-10
2.58145e-06
-1.29947e-07
2.58006e-06
-6.03203e-08
-4.21911e-08
2.56278e-06
2.71317e-06
4.58185e-07
2.70221e-06
-4.20075e-07
2.71181e-06
3.81114e-07
2.72046e-06
2.77478e-07
2.7207e-06
2.13459e-07
2.67889e-06
-1.09252e-06
2.69142e-06
5.11842e-07
2.6877e-06
7.48641e-08
2.69755e-06
4.62684e-07
2.71191e-06
8.32904e-07
2.72481e-06
4.42845e-07
2.73343e-06
5.04806e-07
2.72669e-06
2.01452e-07
2.73561e-06
2.47556e-07
2.72896e-06
1.30966e-07
2.72675e-06
-2.35399e-08
2.72289e-06
3.30099e-09
2.70492e-06
-1.11985e-07
2.70323e-06
-5.86249e-08
-2.69701e-08
2.68801e-06
2.84293e-06
4.52525e-07
2.83171e-06
-4.08856e-07
2.84119e-06
3.71637e-07
2.84941e-06
2.69251e-07
2.8517e-06
2.11172e-07
2.80793e-06
-1.04874e-06
2.81977e-06
5.00001e-07
2.81397e-06
8.06662e-08
2.82653e-06
4.50119e-07
2.84152e-06
8.1791e-07
2.85487e-06
4.29495e-07
2.86383e-06
4.9585e-07
2.85638e-06
2.08902e-07
2.86535e-06
2.38586e-07
2.85857e-06
1.37748e-07
2.85591e-06
-2.08806e-08
2.85236e-06
6.85454e-09
2.8343e-06
-9.39331e-08
2.83244e-06
-5.67577e-08
-1.39574e-08
2.81942e-06
2.97892e-06
4.46499e-07
2.96725e-06
-3.97188e-07
2.97689e-06
3.62004e-07
2.98441e-06
2.61724e-07
2.98854e-06
2.07043e-07
2.94296e-06
-1.00316e-06
2.95468e-06
4.88282e-07
2.94706e-06
8.82878e-08
2.96173e-06
4.35446e-07
2.97704e-06
8.02596e-07
2.99065e-06
4.15888e-07
3.00021e-06
4.86286e-07
2.99206e-06
2.17052e-07
3.00137e-06
2.2928e-07
2.9945e-06
1.44619e-07
2.99109e-06
-1.74744e-08
2.98823e-06
9.71788e-09
2.96993e-06
-7.56385e-08
2.96779e-06
-5.46095e-08
-3.40901e-09
2.95724e-06
3.12144e-06
4.40069e-07
3.10916e-06
-3.84908e-07
3.11921e-06
3.51948e-07
3.12589e-06
2.55048e-07
3.13155e-06
2.01385e-07
3.08429e-06
-9.55906e-07
3.09644e-06
4.76138e-07
3.08727e-06
9.7461e-08
3.10356e-06
4.19151e-07
3.11899e-06
7.87168e-07
3.13258e-06
4.02298e-07
3.14299e-06
4.75869e-07
3.13417e-06
2.25881e-07
3.14398e-06
2.19465e-07
3.13717e-06
1.51426e-07
3.1326e-06
-1.29023e-08
3.13082e-06
1.15016e-08
3.1123e-06
-5.71174e-08
3.10944e-06
-5.17543e-08
4.40071e-09
3.10163e-06
3.27078e-06
4.33201e-07
3.25776e-06
-3.71895e-07
3.26845e-06
3.41262e-07
3.2742e-06
2.49301e-07
3.28108e-06
1.94506e-07
3.23231e-06
-9.07144e-07
3.24533e-06
4.63119e-07
3.23484e-06
1.07954e-07
3.25237e-06
4.0162e-07
3.26782e-06
7.71722e-07
3.28105e-06
3.89061e-07
3.29252e-06
4.644e-07
3.28305e-06
2.35351e-07
3.29343e-06
2.09091e-07
3.28697e-06
1.57885e-07
3.2808e-06
-6.73206e-09
3.28034e-06
1.19593e-08
3.26198e-06
-3.87564e-08
3.25768e-06
-4.74601e-08
9.33511e-09
3.25275e-06
3.42726e-06
4.25869e-07
3.41344e-06
-3.58072e-07
3.42489e-06
3.29812e-07
3.42966e-06
2.44533e-07
3.43751e-06
1.86651e-07
3.38742e-06
-8.5705e-07
3.40163e-06
4.48907e-07
3.39003e-06
1.19556e-07
3.40844e-06
3.83213e-07
3.4239e-06
7.56261e-07
3.43643e-06
3.76528e-07
3.44912e-06
4.51716e-07
3.43906e-06
2.45409e-07
3.4499e-06
1.98253e-07
3.4442e-06
1.6358e-07
3.43608e-06
1.39275e-09
3.43693e-06
1.1101e-08
3.41941e-06
-2.12334e-08
3.41297e-06
-4.10226e-08
1.16547e-08
3.41065e-06
3.59123e-06
4.18049e-07
3.57656e-06
-3.43403e-07
3.58885e-06
3.17529e-07
3.59258e-06
2.40802e-07
3.60124e-06
1.7799e-07
3.55002e-06
-8.05833e-07
3.5656e-06
4.33325e-07
3.55311e-06
1.32047e-07
3.572e-06
3.64321e-07
3.58753e-06
7.40728e-07
3.59906e-06
3.65001e-07
3.61308e-06
4.37695e-07
3.60254e-06
2.55946e-07
3.61358e-06
1.87222e-07
3.60917e-06
1.6799e-07
3.59887e-06
1.16918e-08
3.60073e-06
9.2342e-09
3.58487e-06
-5.36819e-09
3.5759e-06
-3.20528e-08
1.20828e-08
3.57547e-06
3.76303e-06
4.0972e-07
3.74752e-06
-3.27884e-07
3.76066e-06
3.04385e-07
3.76328e-06
2.3818e-07
3.77263e-06
1.6864e-07
3.72054e-06
-7.53742e-07
3.73753e-06
4.1634e-07
3.72439e-06
1.45183e-07
3.74335e-06
3.45359e-07
3.75905e-06
7.25032e-07
3.76933e-06
3.54724e-07
3.78475e-06
4.22269e-07
3.77393e-06
2.66764e-07
3.78471e-06
1.76449e-07
3.78213e-06
1.70567e-07
3.76969e-06
2.41296e-08
3.77189e-06
7.04133e-09
3.75853e-06
7.99096e-09
3.74714e-06
-2.06707e-08
1.1857e-08
3.74737e-06
3.94304e-06
4.00864e-07
3.92669e-06
-3.1153e-07
3.9407e-06
2.90371e-07
3.94214e-06
2.36744e-07
3.95208e-06
1.58696e-07
3.89941e-06
-7.01069e-07
3.91769e-06
3.98066e-07
3.90419e-06
1.58677e-07
3.92283e-06
3.26723e-07
3.93882e-06
7.09036e-07
3.94765e-06
3.45895e-07
3.96449e-06
4.05431e-07
3.95368e-06
2.77577e-07
3.96359e-06
1.66536e-07
3.96336e-06
1.70802e-07
3.9491e-06
3.83848e-08
3.95068e-06
5.46442e-09
3.94049e-06
1.81778e-08
3.92731e-06
-7.49123e-09
1.23915e-08
3.92678e-06
4.13165e-06
3.91463e-07
4.11448e-06
-2.94362e-07
4.12937e-06
2.75486e-07
4.12956e-06
2.36555e-07
4.13999e-06
1.48262e-07
4.08707e-06
-6.48151e-07
4.10638e-06
3.78763e-07
4.09285e-06
1.72203e-07
4.11082e-06
3.08753e-07
4.1273e-06
6.92559e-07
4.13452e-06
3.38673e-07
4.15269e-06
3.87255e-07
4.14227e-06
2.88006e-07
4.1506e-06
1.58202e-07
4.15311e-06
1.68294e-07
4.13759e-06
5.39024e-08
4.13754e-06
5.51201e-09
4.1308e-06
2.49154e-08
4.11686e-06
6.45038e-09
1.48502e-08
4.1144e-06
4.32926e-06
3.81503e-07
4.31129e-06
-2.76395e-07
4.32705e-06
2.59732e-07
4.32598e-06
2.37626e-07
4.33677e-06
1.37469e-07
4.28397e-06
-5.95354e-07
4.30391e-06
3.58829e-07
4.29071e-06
1.85404e-07
4.30775e-06
2.91711e-07
4.32494e-06
6.7537e-07
4.33044e-06
3.33173e-07
4.34975e-06
3.67939e-07
4.34017e-06
2.97587e-07
4.34627e-06
1.52104e-07
4.35157e-06
1.62991e-07
4.3356e-06
6.98739e-08
4.333e-06
8.11011e-09
4.32952e-06
2.84026e-08
4.31615e-06
1.98156e-08
1.98864e-08
4.31111e-06
4.53631e-06
3.70969e-07
4.51754e-06
-2.5763e-07
4.53416e-06
2.43117e-07
4.53188e-06
2.39908e-07
4.54286e-06
1.26485e-07
4.49058e-06
-5.43069e-07
4.51063e-06
3.38779e-07
4.49813e-06
1.979e-07
4.51406e-06
2.75781e-07
4.53221e-06
6.57223e-07
4.53594e-06
3.29444e-07
4.55609e-06
3.47785e-07
4.54785e-06
3.05822e-07
4.55122e-06
1.48741e-07
4.55899e-06
1.55214e-07
4.54352e-06
8.53474e-08
4.53785e-06
1.37777e-08
4.5369e-06
2.93603e-08
4.5253e-06
3.14138e-08
2.73703e-08
4.51781e-06
4.75324e-06
3.59844e-07
4.73367e-06
-2.38064e-07
4.75111e-06
2.25685e-07
4.74775e-06
2.43269e-07
4.7587e-06
1.15528e-07
4.70736e-06
-4.91727e-07
4.72691e-06
3.19231e-07
4.71551e-06
2.09294e-07
4.73021e-06
2.61082e-07
4.74952e-06
6.37914e-07
4.75153e-06
3.27433e-07
4.77213e-06
3.27192e-07
4.76575e-06
3.12197e-07
4.76611e-06
1.48382e-07
4.7757e-06
1.45628e-07
4.76171e-06
9.93306e-08
4.75296e-06
2.25284e-08
4.75328e-06
2.90408e-08
4.7444e-06
4.02956e-08
3.65236e-08
4.73525e-06
4.98053e-06
3.48114e-07
4.96015e-06
-2.17691e-07
4.97833e-06
2.07508e-07
4.9741e-06
2.47504e-07
4.98475e-06
1.04873e-07
4.93483e-06
-4.41808e-07
4.95319e-06
3.0087e-07
4.9433e-06
2.19184e-07
4.9567e-06
2.47684e-07
4.97728e-06
6.17329e-07
4.97775e-06
3.26965e-07
4.99832e-06
3.06627e-07
4.99428e-06
3.16232e-07
4.99158e-06
1.51082e-07
5.00213e-06
1.35082e-07
4.99054e-06
1.10915e-07
4.97908e-06
3.39929e-08
4.97925e-06
2.88715e-08
4.97355e-06
4.59955e-08
4.61023e-08
4.96397e-06
5.21866e-06
3.35769e-07
5.19749e-06
-1.9652e-07
5.2163e-06
1.887e-07
5.21145e-06
2.52348e-07
5.22147e-06
9.48537e-08
5.17352e-06
-3.93851e-07
5.19008e-06
2.84302e-07
5.18196e-06
2.2731e-07
5.19404e-06
2.35599e-07
5.2159e-06
5.95467e-07
5.21509e-06
3.27778e-07
5.23514e-06
2.86577e-07
5.2338e-06
3.1757e-07
5.22828e-06
1.56606e-07
5.23884e-06
1.2452e-07
5.2303e-06
1.19459e-07
5.21684e-06
4.74463e-08
5.21562e-06
3.00956e-08
5.21286e-06
4.87514e-08
5.47525e-08
5.20421e-06
5.46815e-06
3.2281e-07
5.44622e-06
-1.74589e-07
5.4655e-06
1.69415e-07
5.46036e-06
2.57491e-07
5.46936e-06
8.58538e-08
5.42395e-06
-3.48443e-07
5.43826e-06
2.69994e-07
5.43194e-06
2.33626e-07
5.44279e-06
2.24752e-07
5.46583e-06
5.72427e-07
5.46406e-06
3.29546e-07
5.48311e-06
2.67531e-07
5.4847e-06
3.15982e-07
5.47681e-06
1.64492e-07
5.48639e-06
1.14941e-07
5.48135e-06
1.24502e-07
5.46672e-06
6.20778e-08
5.46337e-06
3.3441e-08
5.46272e-06
4.93966e-08
6.14535e-08
5.45602e-06
5.72952e-06
3.09252e-07
5.7069e-06
-1.5197e-07
5.72646e-06
1.49848e-07
5.72138e-06
2.62576e-07
5.72892e-06
7.831e-08
5.68668e-06
-3.06198e-07
5.69844e-06
2.58232e-07
5.69376e-06
2.38303e-07
5.70351e-06
2.14999e-07
5.72756e-06
5.48379e-07
5.7252e-06
3.31908e-07
5.7428e-06
2.49936e-07
5.74737e-06
3.1141e-07
5.73776e-06
1.74105e-07
5.74543e-06
1.0727e-07
5.74392e-06
1.26004e-07
5.72915e-06
7.68542e-08
5.72347e-06
3.91212e-08
5.7237e-06
4.91629e-08
6.5662e-08
5.71949e-06
6.00332e-06
2.95125e-07
5.98012e-06
-1.28774e-07
5.99974e-06
1.30234e-07
5.9951e-06
2.67209e-07
6.00073e-06
7.26843e-08
5.9621e-06
-2.67571e-07
5.97134e-06
2.48997e-07
5.96795e-06
2.41693e-07
5.9768e-06
2.06149e-07
6.00165e-06
5.23531e-07
5.99905e-06
3.34502e-07
6.0148e-06
2.3419e-07
6.02225e-06
3.03955e-07
6.01169e-06
1.84672e-07
6.01669e-06
1.02265e-07
6.01842e-06
1.24276e-07
6.00455e-06
9.0722e-08
5.99669e-06
4.69851e-08
5.9967e-06
4.91488e-08
6.7574e-08
5.99479e-06
6.29014e-06
2.80477e-07
6.26651e-06
-1.05147e-07
6.2859e-06
1.10841e-07
6.28215e-06
2.70964e-07
6.2854e-06
6.94316e-08
6.25053e-06
-2.32705e-07
6.25764e-06
2.41895e-07
6.25511e-06
2.44216e-07
6.26322e-06
1.98038e-07
6.28867e-06
4.98084e-07
6.2862e-06
3.36972e-07
6.29978e-06
2.20614e-07
6.30986e-06
2.93874e-07
6.29916e-06
1.95368e-07
6.30104e-06
1.00392e-07
6.30536e-06
1.19952e-07
6.29333e-06
1.02749e-07
6.28363e-06
5.6685e-08
6.28273e-06
5.00533e-08
6.78871e-08
6.28242e-06
6.59057e-06
2.65378e-07
6.56669e-06
-8.12719e-08
6.58557e-06
9.19665e-08
6.58314e-06
2.73391e-07
6.58369e-06
6.88858e-08
6.55244e-06
-2.01457e-07
6.55799e-06
2.36345e-07
6.55591e-06
2.46292e-07
6.56338e-06
1.90572e-07
6.58926e-06
4.72206e-07
6.58724e-06
3.38991e-07
6.59842e-06
2.09433e-07
6.61072e-06
2.8157e-07
6.60077e-06
2.05321e-07
6.59932e-06
1.01845e-07
6.60536e-06
1.1391e-07
6.59596e-06
1.12146e-07
6.58489e-06
6.77584e-08
6.58268e-06
5.22654e-08
6.73634e-08
6.5832e-06
6.90525e-06
2.49917e-07
6.88134e-06
-5.73575e-08
6.89938e-06
7.39281e-08
6.89875e-06
2.74015e-07
6.89643e-06
7.12044e-08
6.86842e-06
-1.73441e-07
6.87302e-06
2.31736e-07
6.87108e-06
2.48233e-07
6.87788e-06
1.83781e-07
6.90405e-06
4.4603e-07
6.90277e-06
3.40271e-07
6.91146e-06
2.00744e-07
6.92547e-06
2.67556e-07
6.91706e-06
2.13739e-07
6.91246e-06
1.06442e-07
6.91908e-06
1.07288e-07
6.91288e-06
1.18348e-07
6.90107e-06
7.95654e-08
6.89737e-06
5.59726e-08
6.66137e-08
6.89812e-06
7.23485e-06
2.34205e-07
7.21115e-06
-3.36554e-08
7.228e-06
5.70788e-08
7.22964e-06
2.72369e-07
7.22446e-06
7.63864e-08
7.19915e-06
-1.48135e-07
7.20337e-06
2.27522e-07
7.20141e-06
2.50195e-07
7.20738e-06
1.77809e-07
7.2337e-06
4.19702e-07
7.23344e-06
3.40537e-07
7.23965e-06
1.94534e-07
7.25479e-06
2.52413e-07
7.24863e-06
2.19903e-07
7.24138e-06
1.13685e-07
7.24734e-06
1.01331e-07
7.2446e-06
1.21092e-07
7.23284e-06
9.13209e-08
7.22755e-06
6.12694e-08
6.61075e-08
7.22805e-06
7.58005e-06
2.18378e-07
7.55689e-06
-1.04908e-08
7.57213e-06
4.18345e-08
7.57645e-06
2.68056e-07
7.56858e-06
8.42501e-08
7.5454e-06
-1.24956e-07
7.54969e-06
2.2324e-07
7.54762e-06
2.52257e-07
7.55262e-06
1.72817e-07
7.57893e-06
3.93393e-07
7.57988e-06
3.39579e-07
7.58375e-06
1.90666e-07
7.59947e-06
2.36692e-07
7.59603e-06
2.23349e-07
7.587e-06
1.22715e-07
7.59123e-06
9.7095e-08
7.59167e-06
1.20654e-07
7.58092e-06
1.02071e-07
7.57399e-06
6.81971e-08
6.61677e-08
7.57393e-06
7.9416e-06
2.02593e-07
7.91934e-06
1.17685e-08
7.93254e-06
2.86337e-08
7.93966e-06
2.6093e-07
7.92961e-06
9.4302e-08
7.90794e-06
-1.03289e-07
7.91265e-06
2.18538e-07
7.91049e-06
2.54414e-07
7.91437e-06
1.68936e-07
7.94042e-06
3.67344e-07
7.94283e-06
3.37164e-07
7.94451e-06
1.88992e-07
7.96031e-06
2.20887e-07
7.95981e-06
2.23855e-07
7.95004e-06
1.32488e-07
7.95212e-06
9.50081e-08
7.95531e-06
1.17466e-07
7.94664e-06
1.1074e-07
7.93832e-06
7.65196e-08
6.71177e-08
7.93737e-06
8.32024e-06
1.87032e-07
8.29927e-06
3.27364e-08
8.31e-06
1.79123e-08
8.31987e-06
2.51054e-07
8.30835e-06
1.05824e-07
8.28762e-06
-8.25555e-08
8.29295e-06
2.13208e-07
8.29077e-06
2.56589e-07
8.29344e-06
1.66263e-07
8.31898e-06
3.41812e-07
8.323e-06
3.33142e-07
8.32276e-06
1.89234e-07
8.33807e-06
2.05574e-07
8.34062e-06
2.21305e-07
8.33104e-06
1.42063e-07
8.33108e-06
9.49666e-08
8.33715e-06
1.11399e-07
8.33291e-06
1.14984e-07
8.32457e-06
8.48613e-08
7.00998e-08
8.32158e-06
8.71681e-06
1.71888e-07
8.69751e-06
5.20273e-08
8.70533e-06
1.0099e-08
8.71774e-06
2.38646e-07
8.70562e-06
1.17943e-07
8.68532e-06
-6.22615e-08
8.69133e-06
2.07199e-07
8.68932e-06
2.58599e-07
8.69063e-06
1.64957e-07
8.71542e-06
3.17016e-07
8.72114e-06
3.27425e-07
8.71929e-06
1.91089e-07
8.73364e-06
1.91224e-07
8.73907e-06
2.15872e-07
8.7305e-06
1.50633e-07
8.72866e-06
9.68059e-08
8.7357e-06
1.0436e-07
8.73484e-06
1.15841e-07
8.72667e-06
9.30369e-08
7.48327e-08
8.72193e-06
9.13215e-06
1.57359e-07
9.11489e-06
6.92868e-08
9.11943e-06
5.56211e-09
9.13399e-06
2.24078e-07
9.12225e-06
1.2969e-07
9.10202e-06
-4.20381e-08
9.10861e-06
2.0061e-07
9.10705e-06
2.60161e-07
9.10682e-06
1.65185e-07
9.13069e-06
2.93151e-07
9.13817e-06
3.19944e-07
9.13498e-06
1.94274e-07
9.14779e-06
1.78417e-07
9.1557e-06
2.07957e-07
9.14859e-06
1.57747e-07
9.14449e-06
1.00903e-07
9.15034e-06
9.85143e-08
9.15131e-06
1.14869e-07
9.14412e-06
1.00228e-07
8.02622e-08
9.13869e-06
9.56718e-06
1.43638e-07
9.55226e-06
8.42085e-08
9.55323e-06
4.59311e-09
9.56953e-06
2.07778e-07
9.55907e-06
1.40152e-07
9.53873e-06
-2.1706e-08
9.54564e-06
1.93701e-07
9.5448e-06
2.61006e-07
9.54302e-06
1.66966e-07
9.56562e-06
2.70545e-07
9.57488e-06
3.10687e-07
9.5708e-06
1.98353e-07
9.58135e-06
1.67873e-07
9.59089e-06
1.98413e-07
9.58557e-06
1.63063e-07
9.57919e-06
1.07284e-07
9.58258e-06
9.51279e-08
9.58516e-06
1.12284e-07
9.58005e-06
1.05345e-07
8.56948e-08
9.57461e-06
1.00229e-05
1.30895e-07
1.00106e-05
9.65311e-08
1.00081e-05
7.0717e-09
1.00253e-05
1.90521e-07
1.00168e-05
1.48653e-07
9.99654e-06
-1.41146e-09
1.00034e-05
1.86873e-07
1.00035e-05
2.60874e-07
1.00002e-05
1.70291e-07
1.00211e-05
2.49587e-07
1.00322e-05
2.99639e-07
1.00277e-05
2.02874e-07
1.00351e-05
1.60444e-07
1.00456e-05
1.87921e-07
1.00426e-05
1.66079e-07
1.00348e-05
1.15007e-07
1.00353e-05
9.4665e-08
1.00393e-05
1.08243e-07
1.00372e-05
1.07522e-07
9.06241e-08
1.00322e-05
1.05003e-05
1.19258e-07
1.04907e-05
1.06067e-07
1.04853e-05
1.24786e-08
1.05025e-05
1.73361e-07
1.04964e-05
1.54794e-07
1.04765e-05
1.84406e-08
1.04828e-05
1.80548e-07
1.04841e-05
2.59608e-07
1.04794e-05
1.75003e-07
1.04981e-05
2.30837e-07
1.05109e-05
2.86883e-07
1.05066e-05
2.07158e-07
1.05105e-05
1.56512e-07
1.05214e-05
1.77056e-07
1.05211e-05
1.66364e-07
1.05138e-05
1.22367e-07
1.05118e-05
9.65885e-08
1.0516e-05
1.04115e-07
1.05165e-05
1.06969e-07
9.44279e-08
1.05127e-05
1.10005e-05
1.08807e-07
1.09938e-05
1.12783e-07
1.09862e-05
2.00227e-08
1.10022e-05
1.5736e-07
1.09985e-05
1.58486e-07
1.09796e-05
3.73513e-08
1.09852e-05
1.75e-07
1.09876e-05
2.57195e-07
1.0982e-05
1.80543e-07
1.09978e-05
2.15079e-07
1.10121e-05
2.72559e-07
1.10088e-05
2.10442e-07
1.10099e-05
1.55412e-07
1.10201e-05
1.66909e-07
1.10225e-05
1.63906e-07
1.10166e-05
1.28276e-07
1.10133e-05
9.99187e-08
1.10164e-05
1.0104e-07
1.10188e-05
1.04526e-07
9.6571e-08
1.10167e-05
1.15246e-05
9.95597e-08
1.15206e-05
1.16828e-07
1.15117e-05
2.88562e-08
1.15258e-05
1.43334e-07
1.15243e-05
1.59915e-07
1.15069e-05
5.47966e-08
1.15116e-05
1.70252e-07
1.15151e-05
2.53767e-07
1.15092e-05
1.86381e-07
1.15218e-05
2.0254e-07
1.15372e-05
2.57161e-07
1.15356e-05
2.12017e-07
1.15347e-05
1.56247e-07
1.15433e-05
1.58334e-07
1.15479e-05
1.59358e-07
1.15439e-05
1.32231e-07
1.154e-05
1.03807e-07
1.15416e-05
9.94256e-08
1.15447e-05
1.01435e-07
9.67889e-08
1.15445e-05
1.20739e-05
9.14813e-08
1.20722e-05
1.18499e-07
1.20629e-05
3.81991e-08
1.20745e-05
1.3169e-07
1.20749e-05
1.59541e-07
1.20593e-05
7.03725e-08
1.20634e-05
1.66136e-07
1.20678e-05
2.49452e-07
1.2062e-05
1.9211e-07
1.20715e-05
1.93041e-07
1.20873e-05
2.41423e-07
1.20878e-05
2.11506e-07
1.20858e-05
1.58192e-07
1.20924e-05
1.5175e-07
1.20982e-05
1.53573e-07
1.20963e-05
1.34106e-07
1.20926e-05
1.07561e-07
1.20929e-05
9.9057e-08
1.20958e-05
9.86283e-08
9.55808e-08
1.2097e-05
1.26496e-05
8.44879e-08
1.26499e-05
1.18217e-07
1.26407e-05
4.73612e-08
1.26499e-05
1.22482e-07
1.26515e-05
1.57964e-07
1.2638e-05
8.38537e-08
1.26418e-05
1.62395e-07
1.26469e-05
2.4431e-07
1.26416e-05
1.97429e-07
1.26483e-05
1.86355e-07
1.26636e-05
2.26041e-07
1.26663e-05
2.08842e-07
1.2664e-05
1.60483e-07
1.26686e-05
1.472e-07
1.26747e-05
1.47396e-07
1.26749e-05
1.33964e-07
1.26718e-05
1.10688e-07
1.26713e-05
9.95257e-08
1.26735e-05
9.64097e-08
9.37616e-08
1.26753e-05
1.3253e-05
7.84594e-08
1.32547e-05
1.16502e-07
1.32463e-05
5.57366e-08
1.32533e-05
1.15519e-07
1.32555e-05
1.55713e-07
1.32441e-05
9.53033e-08
1.32477e-05
1.58753e-07
1.32537e-05
2.3832e-07
1.3249e-05
2.02098e-07
1.32532e-05
1.82141e-07
1.32676e-05
2.11662e-07
1.32722e-05
2.04252e-07
1.32703e-05
1.62421e-07
1.32731e-05
1.44406e-07
1.32789e-05
1.41584e-07
1.32807e-05
1.3215e-07
1.32787e-05
1.12708e-07
1.32777e-05
1.00535e-07
1.32793e-05
9.47514e-08
9.17732e-08
1.32813e-05
1.38854e-05
7.32632e-08
1.3888e-05
1.13867e-07
1.38808e-05
6.28976e-08
1.38859e-05
1.10433e-07
1.38885e-05
1.53183e-07
1.38788e-05
1.04981e-07
1.38825e-05
1.5502e-07
1.38894e-05
2.31424e-07
1.38856e-05
2.05908e-07
1.38878e-05
1.79948e-07
1.39006e-05
1.98865e-07
1.39068e-05
1.98067e-07
1.39057e-05
1.63513e-07
1.39072e-05
1.42866e-07
1.39122e-05
1.36592e-07
1.3915e-05
1.29333e-07
1.39145e-05
1.13244e-07
1.39133e-05
1.01694e-07
1.39144e-05
9.37165e-08
8.96497e-08
1.39165e-05
1.45482e-05
6.87774e-08
1.45513e-05
1.10697e-07
1.45455e-05
6.87459e-08
1.45492e-05
1.0668e-07
1.45518e-05
1.50644e-07
1.45435e-05
1.13244e-07
1.45473e-05
1.51198e-07
1.45552e-05
2.23575e-07
1.45525e-05
2.08542e-07
1.45532e-05
1.79321e-07
1.45641e-05
1.87964e-07
1.45714e-05
1.90752e-07
1.45714e-05
1.6347e-07
1.45722e-05
1.42064e-07
1.45763e-05
1.32521e-07
1.45795e-05
1.26159e-07
1.45803e-05
1.12432e-07
1.45797e-05
1.02309e-07
1.458e-05
9.34182e-08
8.74923e-08
1.45821e-05
1.52428e-05
6.49084e-08
1.52462e-05
1.07237e-07
1.52415e-05
7.34484e-08
1.52444e-05
1.03764e-07
1.52468e-05
1.48248e-07
1.52396e-05
1.20421e-07
1.52434e-05
1.47463e-07
1.52522e-05
2.14791e-07
1.52511e-05
2.09588e-07
1.52507e-05
1.79722e-07
1.52596e-05
1.79076e-07
1.52675e-05
1.82836e-07
1.52689e-05
1.62129e-07
1.52694e-05
1.41571e-07
1.52726e-05
1.29251e-07
1.52758e-05
1.22968e-07
1.52774e-05
1.10856e-07
1.52779e-05
1.01793e-07
1.52778e-05
9.35364e-08
8.57729e-08
1.52795e-05
1.59707e-05
6.1586e-08
1.59743e-05
1.03599e-07
1.59704e-05
7.7315e-08
1.59727e-05
1.01514e-07
1.59749e-05
1.4598e-07
1.59685e-05
1.26907e-07
1.59718e-05
1.44135e-07
1.59815e-05
2.05083e-07
1.59825e-05
2.08537e-07
1.59818e-05
1.80465e-07
1.59888e-05
1.72098e-07
1.59968e-05
1.7483e-07
1.59994e-05
1.59468e-07
1.6e-05
1.41011e-07
1.60026e-05
1.26656e-07
1.60058e-05
1.19806e-07
1.60075e-05
1.09069e-07
1.60091e-05
1.00227e-07
1.60094e-05
9.32181e-08
8.49048e-08
1.60103e-05
1.67334e-05
5.87515e-08
1.67372e-05
9.98661e-08
1.67339e-05
8.05799e-08
1.67355e-05
9.99267e-08
1.67377e-05
1.43735e-07
1.67316e-05
1.3307e-07
1.67337e-05
1.42017e-07
1.67444e-05
1.94344e-07
1.67481e-05
2.04884e-07
1.67478e-05
1.80732e-07
1.67532e-05
1.66742e-07
1.67608e-05
1.67168e-07
1.67647e-05
1.55625e-07
1.67657e-05
1.39982e-07
1.67677e-05
1.24636e-07
1.67708e-05
1.1669e-07
1.67728e-05
1.07139e-07
1.67747e-05
9.82971e-08
1.67761e-05
9.17942e-08
8.4634e-08
1.67764e-05
1.75328e-05
5.63527e-08
1.75365e-05
9.6133e-08
1.75338e-05
8.32963e-08
1.75348e-05
9.89469e-08
1.75372e-05
1.41255e-07
1.75318e-05
1.38506e-07
1.75323e-05
1.41523e-07
1.7543e-05
1.83647e-07
1.75493e-05
1.98603e-07
1.75502e-05
1.79818e-07
1.75544e-05
1.6252e-07
1.75615e-05
1.60122e-07
1.75662e-05
1.5089e-07
1.7568e-05
1.38165e-07
1.75697e-05
1.2295e-07
1.75726e-05
1.13783e-07
1.75749e-05
1.04876e-07
1.75766e-05
9.65243e-08
1.7579e-05
8.94279e-08
8.40634e-08
1.75796e-05
1.83704e-05
5.43369e-08
1.8374e-05
9.24496e-08
1.83719e-05
8.54859e-08
1.83724e-05
9.8402e-08
1.83752e-05
1.38446e-07
1.83711e-05
1.4262e-07
1.83706e-05
1.42008e-07
1.83801e-05
1.74152e-07
1.83881e-05
1.90605e-07
1.83905e-05
1.77404e-07
1.83941e-05
1.5892e-07
1.84004e-05
1.53803e-07
1.84057e-05
1.45596e-07
1.84085e-05
1.3542e-07
1.84103e-05
1.21172e-07
1.84128e-05
1.11267e-07
1.84154e-05
1.02231e-07
1.84171e-05
9.48487e-08
1.84197e-05
8.68448e-08
8.25355e-08
1.84212e-05
1.92481e-05
5.26528e-08
1.92517e-05
8.88047e-08
1.925e-05
8.71592e-08
1.92503e-05
9.81215e-08
1.92535e-05
1.35317e-07
1.92509e-05
1.45133e-07
1.92501e-05
1.42809e-07
1.92581e-05
1.6623e-07
1.92668e-05
1.81877e-07
1.92707e-05
1.73544e-07
1.92741e-05
1.55496e-07
1.92797e-05
1.48188e-07
1.92852e-05
1.40051e-07
1.92888e-05
1.31829e-07
1.9291e-05
1.18952e-07
1.92933e-05
1.0901e-07