/*--------------------------------*- C++ -*----------------------------------*\
| =========                 |                                                 |
| \\      /  F ield         | OpenFOAM: The Open Source CFD Toolbox           |
|  \\    /   O peration     | Version:  v1912                                 |
|   \\  /    A nd           | Website:  www.openfoam.com                      |
|    \\/     M anipulation  |                                                 |
\*---------------------------------------------------------------------------*/
FoamFile
{
    version     2.0;
    format      ascii;
    class       volScalarField;
    location    "1";
    object      p;
}
// * * * * * * * * * * * * * * * * * * * * * * * * * * * * * * * * * * * * * //

dimensions      [0 2 -2 0 0 0 0];


internalField   nonuniform List<scalar> 
9600
(
6.61959e-10
0.000799386
0.00108181
0.00137274
0.00194013
0.000588408
0.00180792
0.00278633
0.00217945
0.00391719
0.00492905
0.00596259
0.00651424
0.00773271
0.0102509
0.0124447
0.0157501
0.0184734
0.0254032
0.0314172
7.59959e-08
0.000799611
0.00108254
0.00137131
0.00193463
0.000592776
0.00182604
0.00277504
0.00218711
0.00390459
0.0049215
0.00596951
0.00650034
0.0077586
0.0102487
0.0124339
0.0157554
0.0184109
0.0255141
0.0308539
2.29261e-07
0.000799737
0.00108351
0.0013694
0.00192817
0.000599565
0.00184108
0.00275721
0.00220085
0.00388527
0.00491466
0.00598416
0.00647671
0.00779759
0.0102405
0.012426
0.0157427
0.0183519
0.025512
0.030146
4.29654e-07
0.000799615
0.00108557
0.00136885
0.00191937
0.000608029
0.00185473
0.00273219
0.00221711
0.00386596
0.0049095
0.00600321
0.00644867
0.00783465
0.0102345
0.0124131
0.0157269
0.0182886
0.0254125
0.0295303
6.71099e-07
0.000799272
0.00108896
0.00136919
0.00190774
0.000618866
0.00186821
0.00269965
0.00223798
0.00384689
0.0049041
0.00602319
0.00642207
0.00787235
0.0102331
0.0123953
0.015713
0.0182099
0.0252883
0.0289272
9.30879e-07
0.000798769
0.0010933
0.00136983
0.00189438
0.000632333
0.00188126
0.00266224
0.00226518
0.00382736
0.00489807
0.00604468
0.00640077
0.00791065
0.0102367
0.0123746
0.0156937
0.0181281
0.0251217
0.0283459
1.16912e-06
0.000798169
0.00109843
0.00137075
0.0018805
0.000648147
0.00189369
0.00262319
0.00229898
0.00380771
0.00489147
0.00606815
0.00638551
0.00794845
0.0102447
0.01235
0.015669
0.0180421
0.0249093
0.0277829
1.36196e-06
0.000797527
0.00110409
0.00137203
0.00186693
0.000665801
0.00190545
0.00258483
0.00233928
0.0037884
0.00488429
0.00609268
0.00637551
0.00798419
0.0102555
0.0123222
0.0156365
0.0179516
0.0246506
0.0272353
1.5117e-06
0.00079687
0.00111009
0.0013737
0.00185411
0.000684761
0.00191657
0.00254857
0.00238563
0.00376978
0.00487657
0.00611699
0.00636941
0.00801637
0.0102675
0.0122919
0.0155936
0.0178557
0.0243478
0.0266987
1.6321e-06
0.00079619
0.00111632
0.00137573
0.00184215
0.000704535
0.00192715
0.00251498
0.00243702
0.00375223
0.00486839
0.00613995
0.00636562
0.00804407
0.0102792
0.0122595
0.015538
0.0177535
0.0240036
0.0261666
1.73643e-06
0.000795463
0.00112291
0.00137803
0.00183072
0.000724702
0.00193741
0.00248411
0.002492
0.00373608
0.00485976
0.00616064
0.00636283
0.00806688
0.010289
0.0122253
0.0154681
0.017644
0.0236209
0.0256326
1.83851e-06
0.000794662
0.00112944
0.00138045
0.00181948
0.000744955
0.00194766
0.00245562
0.0025488
0.00372152
0.00485051
0.00617852
0.00636018
0.00808472
0.0102953
0.0121895
0.0153825
0.0175254
0.0232034
0.0250914
1.95663e-06
0.00079376
0.00113596
0.00138293
0.00180825
0.000765126
0.00195818
0.00242894
0.00260577
0.00370867
0.00484028
0.00619356
0.00635709
0.00809795
0.0102968
0.012152
0.0152805
0.0173943
0.0227565
0.0245393
2.11337e-06
0.000792719
0.00114257
0.00138539
0.00179693
0.000785141
0.00196913
0.00240339
0.0026617
0.0036976
0.00482855
0.006206
0.00635321
0.00810696
0.0102928
0.012112
0.0151622
0.0172472
0.0222859
0.023975
2.33575e-06
0.000791499
0.0011493
0.00138776
0.00178557
0.000804934
0.00198058
0.00237848
0.00271576
0.00368838
0.00481485
0.00621614
0.00634833
0.00811235
0.0102827
0.0120681
0.015029
0.0170799
0.0217953
0.0233988
2.65684e-06
0.000790049
0.00115614
0.00139
0.00177419
0.000824433
0.0019925
0.00235394
0.00276744
0.00368119
0.00479876
0.00622435
0.00634223
0.0081146
0.0102658
0.0120181
0.014883
0.0168896
0.021287
0.0228121
3.11659e-06
0.000788304
0.00116312
0.00139205
0.00176284
0.000843576
0.00200473
0.0023297
0.00281636
0.0036763
0.00477973
0.00623087
0.00633476
0.00811378
0.0102426
0.0119592
0.014726
0.0166754
0.0207624
0.0222171
3.76379e-06
0.000786187
0.00117025
0.00139385
0.00175157
0.000862323
0.00201705
0.00230589
0.00286218
0.00367402
0.00475729
0.00623581
0.00632582
0.00810938
0.0102137
0.0118882
0.0145589
0.0164379
0.0202217
0.0216157
4.65839e-06
0.000783611
0.00117752
0.00139536
0.0017404
0.000880643
0.00202922
0.00228272
0.00290439
0.00367469
0.00473117
0.00623916
0.00631529
0.00810049
0.0101801
0.0118023
0.0143814
0.0161795
0.0196645
0.0210091
5.86646e-06
0.000780474
0.00118497
0.00139652
0.00172937
0.000898532
0.00204099
0.00226056
0.00294235
0.00367857
0.00470123
0.00624064
0.00630324
0.00808559
0.0101433
0.0116996
0.0141918
0.0159039
0.0190901
0.0203977
7.46036e-06
0.000776655
0.0011926
0.00139728
0.00171848
0.000916047
0.00205204
0.00223984
0.00297541
0.00368582
0.00466738
0.00623973
0.00629014
0.00806197
0.0101044
0.0115797
0.0139865
0.0156155
0.0184996
0.0197795
9.5282e-06
0.000772019
0.00120043
0.00139762
0.00170773
0.000933256
0.00206203
0.00222102
0.00300296
0.00369648
0.00462969
0.00623554
0.0062767
0.00802733
0.0100635
0.0114438
0.0137614
0.0153186
0.017896
0.019151
1.21692e-05
0.000766428
0.00120842
0.00139751
0.00169708
0.000950255
0.00207051
0.00220456
0.00302444
0.00371042
0.00458844
0.00622704
0.00626359
0.00797984
0.0100195
0.0112938
0.0135128
0.0150152
0.017284
0.0185081
1.54906e-05
0.000759724
0.00121656
0.00139694
0.0016865
0.000967249
0.00207695
0.00219083
0.00303941
0.00372732
0.00454421
0.00621312
0.00625164
0.00791769
0.00997056
0.0111326
0.0132373
0.0147054
0.0166703
0.0178473
1.9611e-05
0.000751748
0.0012248
0.00139593
0.00167583
0.000984511
0.00208085
0.00218007
0.00304748
0.0037466
0.00449801
0.00619216
0.00624147
0.0078407
0.00991377
0.0109637
0.012933
0.0143866
0.0160636
0.0171664
2.46545e-05
0.00074234
0.00123307
0.00139453
0.00166488
0.00100235
0.00208172
0.00217246
0.00304847
0.00376738
0.00445118
0.00616243
0.00623296
0.00774896
0.00984541
0.0107905
0.0126006
0.0140543
0.0154711
0.0164672
3.07525e-05
0.000731329
0.0012413
0.00139287
0.00165331
0.00102113
0.00207912
0.0021679
0.00304261
0.00378848
0.00440498
0.00612243
0.00622548
0.00764304
0.0097617
0.0106161
0.0122421
0.013703
0.0148998
0.0157555
3.80445e-05
0.000718573
0.00124933
0.00139107
0.00164083
0.0010412
0.00207274
0.00216611
0.00303036
0.00380836
0.00436036
0.00607113
0.00621807
0.00752438
0.00965897
0.0104425
0.011861
0.0133263
0.0143542
0.0150401
4.66701e-05
0.000703967
0.00125689
0.00138932
0.00162707
0.00106283
0.00206252
0.00216653
0.00301236
0.0038253
0.00431798
0.00600823
0.00620925
0.00739485
0.00953347
0.01027
0.0114633
0.0129181
0.0138331
0.0143328
5.67724e-05
0.000687416
0.0012637
0.00138791
0.00161149
0.00108608
0.00204863
0.00216834
0.00298962
0.00383777
0.00427824
0.00593356
0.00619703
0.00725662
0.0093822
0.0100973
0.0110568
0.0124749
0.0133312
0.0136476
6.84893e-05
0.000668879
0.00126933
0.00138718
0.00159383
0.00111086
0.00203137
0.00217059
0.00296336
0.00384442
0.00424091
0.00584749
0.00617934
0.00711103
0.0092031
0.00992163
0.0106492
0.0119962
0.012839
0.0129977
8.19477e-05
0.000648397
0.00127325
0.00138745
0.00157382
0.00113696
0.00201128
0.00217193
0.00293478
0.00384402
0.00420523
0.00575108
0.00615424
0.006959
0.00899487
0.00973921
0.010248
0.0114858
0.012344
0.0123907
9.72732e-05
0.000626089
0.00127479
0.00138895
0.00155133
0.00116397
0.00198919
0.0021711
0.00290454
0.00383582
0.00416997
0.00564493
0.00611974
0.00680218
0.00875748
0.0095448
0.00985943
0.0109514
0.0118329
0.0118239
0.000114558
0.000602163
0.00127313
0.00139189
0.00152654
0.00119112
0.00196618
0.00216711
0.0028728
0.00381963
0.00413354
0.00552916
0.00607423
0.00664256
0.0084922
0.00933215
0.00948687
0.0104034
0.0112964
0.0112883
0.000133839
0.000576914
0.00126744
0.0013964
0.00149987
0.0012174
0.00194341
0.00215909
0.00283931
0.0037957
0.00409458
0.00540384
0.00601588
0.00648146
0.00820146
0.00909591
0.00913079
0.00985239
0.0107325
0.010769
0.000155123
0.000550723
0.00125694
0.0014024
0.001472
0.00124177
0.00192175
0.00214663
0.00280346
0.00376429
0.00405224
0.00526877
0.00594245
0.00632011
0.00788892
0.00883205
0.00878856
0.00930746
0.0101459
0.0102491
0.000178372
0.000524062
0.00124083
0.00140966
0.00144366
0.00126312
0.00190179
0.00212969
0.00276445
0.00372561
0.00400584
0.00512368
0.00585153
0.0061599
0.00755932
0.00853664
0.00845542
0.00877654
0.00954391
0.00971718
0.00020348
0.000497403
0.00121852
0.00141779
0.00141547
0.00128034
0.0018839
0.00210858
0.00272126
0.00367981
0.00395475
0.00496845
0.0057408
0.00600121
0.00721836
0.00820685
0.00812573
0.0082659
0.00893362
0.00916884
0.00023033
0.000471202
0.00118956
0.00142627
0.00138802
0.00129235
0.00186823
0.00208414
0.00267217
0.00362627
0.00389926
0.0048037
0.00560752
0.00584252
0.00687228
0.00784351
0.00779289
0.00777862
0.00832254
0.0086038
0.000258371
0.000445961
0.00115373
0.00143443
0.00136183
0.00129809
0.00185451
0.00205747
0.00261569
0.00356368
0.00384013
0.00463076
0.00544928
0.00568034
0.0065282
0.00745125
0.00744819
0.00731427
0.00771939
0.00802331
0.000287342
0.000422251
0.00111112
0.00144127
0.00133745
0.00129664
0.00184185
0.00202998
0.00255121
0.00349037
0.0037772
0.00445165
0.00526531
0.00551134
0.00619213
0.00703633
0.00708355
0.00687
0.00713286
0.00743014
0.000316779
0.000400669
0.00106198
0.00144568
0.00131543
0.00128724
0.00182891
0.0020033
0.00247888
0.00340405
0.00370943
0.00426932
0.0050569
0.0053336
0.00586658
0.00660576
0.00669496
0.00644035
0.00656996
0.00683067
0.000346037
0.000381912
0.00100809
0.00144631
0.00129619
0.00126938
0.0018136
0.00197883
0.00239867
0.00330229
0.0036348
0.00408712
0.00482707
0.00516719
0.00555061
0.00616816
0.00628227
0.00601672
0.00603372
0.00623355
0.000374385
0.000366709
0.000949825
0.00144151
0.00128022
0.00124298
0.00179296
0.00195719
0.00231187
0.00318353
0.00355025
0.00390755
0.00457815
0.00494047
0.00523935
0.00573169
0.00584947
0.0055898
0.00552167
0.00564926
0.000401103
0.000355683
0.000888093
0.00142945
0.00126804
0.00120863
0.00176336
0.00193777
0.00222209
0.00304789
0.003452
0.00373141
0.00431489
0.00468966
0.00492995
0.00530191
0.0054032
0.005154
0.00502798
0.00508639
0.000425422
0.000349311
0.000824122
0.00140833
0.00125965
0.00116773
0.00172126
0.00191846
0.00211094
0.00289693
0.00333578
0.00355775
0.0040433
0.00441546
0.00461751
0.00487974
0.00494928
0.00470965
0.00454474
0.00454571
0.000446723
0.000347759
0.000759302
0.00137673
0.00125463
0.00112227
0.00166372
0.00189642
0.00203242
0.0027345
0.00319841
0.00338386
0.00376923
0.00412062
0.00429686
0.00446416
0.00449238
0.00426015
0.00406559
0.00402717
0.000464474
0.000350839
0.000695029
0.00133338
0.00125229
0.00107529
0.00158895
0.00186608
0.00195974
0.00256537
0.00303925
0.00320574
0.00349609
0.00380882
0.00396516
0.00405489
0.0040355
0.00380823
0.00358924
0.00352492
0.000478154
0.000358103
0.000633016
0.00127723
0.00125119
0.00103053
0.0014966
0.00182076
0.00189438
0.00239532
0.00285975
0.00301871
0.00322523
0.00348492
0.00362103
0.00365072
0.00358105
0.00335531
0.00311884
0.00303546
0.000487355
0.000368669
0.000575196
0.00120782
0.00124812
0.000992013
0.00138876
0.00175387
0.00182926
0.00222909
0.00266329
0.00281881
0.00295606
0.0031543
0.00326826
0.00324912
0.00313133
0.00290216
0.00265624
0.00253798
0.000491791
0.000381338
0.000523034
0.00112596
0.00123753
0.000961948
0.00127163
0.00166051
0.00175848
0.00206922
0.0024556
0.00260456
0.00268624
0.00282019
0.00290176
0.00284729
0.00268849
0.00244828
0.00219617
0.00204861
0.000491317
0.000394602
0.000477659
0.00103396
0.0012131
0.000939777
0.0011536
0.00153997
0.00167244
0.00191522
0.00224242
0.00237668
0.00241344
0.00248448
0.00252913
0.00246095
0.00225457
0.00199403
0.00174753
0.00157545
0.000486053
0.000406394
0.0004398
0.000931138
0.00117034
0.000921177
0.00104137
0.00139827
0.00156382
0.00176274
0.00202776
0.00213793
0.00213666
0.0021487
0.00215036
0.00205617
0.00182809
0.00154349
0.00129934
0.0011195
0.000476385
0.000414449
0.000409633
0.000828122
0.00110603
0.000898655
0.000938944
0.00124297
0.00142922
0.00160361
0.00181282
0.00189171
0.00185535
0.00181394
0.0017694
0.00164871
0.00140814
0.00110236
0.000850224
0.000676047
0.000462677
0.00041732
0.000385905
0.000725587
0.000989832
0.000864472
0.000846305
0.00108347
0.00126987
0.00143003
0.00159561
0.00164079
0.00157035
0.00148053
0.00138977
0.00124
0.00099083
0.000673301
0.000404619
0.000237363
0.000445285
0.000414173
0.000365879
0.000627148
0.000887233
0.000814892
0.000760351
0.000926715
0.00109318
0.00123897
0.00137125
0.00138609
0.00128341
0.00114873
0.00101359
0.00083342
0.000573628
0.000254548
-3.08963e-05
-0.000200301
0.000424537
0.000404246
0.00034632
0.000534877
0.000774417
0.000747067
0.000674691
0.000774781
0.000906724
0.00103101
0.00113547
0.00112567
0.000995572
0.000820016
0.000641839
0.000431701
0.000158086
-0.000158371
-0.000452967
-0.000634246
0.000400639
0.000387374
0.000324126
0.000448998
0.000654324
0.000660291
0.000583485
0.000628179
0.000715852
0.00080989
0.000887157
0.000856876
0.000705516
0.000495644
0.000275897
3.6227e-05
-0.00025238
-0.000568542
-0.000862448
-0.00105868
0.000373633
0.00036248
0.000296682
0.000368912
0.000530837
0.000554685
0.000482429
0.000482832
0.000523911
0.000580148
0.000627234
0.000578528
0.000411028
0.00017493
-8.18979e-05
-0.000351644
-0.000655317
-0.000975281
-0.00126326
-0.00146878
0.000343359
0.000329395
0.000262387
0.000292819
0.000406803
0.000433266
0.000368262
0.000336159
0.000332534
0.000346139
0.000358639
0.000290915
0.000110708
-0.000144399
-0.000430574
-0.00072967
-0.00104908
-0.00137579
-0.00165921
-0.00186395
0.000309572
0.000284068
0.000220539
0.000217754
0.000284073
0.000300586
0.000238593
0.000185149
0.000141985
0.000111251
8.50002e-05
-4.41602e-06
-0.000195435
-0.000464256
-0.000772085
-0.00109606
-0.00143152
-0.00176661
-0.0020509
-0.00224797
0.000272251
0.000242894
0.000171464
0.000141121
0.000162756
0.000141509
9.40767e-05
2.67891e-05
-4.8877e-05
-0.000122778
-0.00019006
-0.00030467
-0.000506554
-0.000784827
-0.00110832
-0.00145158
-0.00180144
-0.00214463
-0.00243555
-0.00262588
0.000230998
0.000196664
0.000115328
6.11199e-05
4.41367e-05
1.39964e-07
-6.17303e-05
-0.000140957
-0.00024171
-0.000355037
-0.000463664
-0.000606176
-0.000821052
-0.00110611
-0.00143943
-0.0017975
-0.00215952
-0.00250818
-0.00280813
-0.00299917
0.000185439
0.000145351
5.24328e-05
-2.348e-05
-7.26358e-05
-0.00014444
-0.000226502
-0.000318863
-0.00043835
-0.000585407
-0.000734124
-0.000905544
-0.00113569
-0.00142817
-0.00176606
-0.0021326
-0.00250652
-0.00285851
-0.0031644
-0.00336423
0.000135297
8.89823e-05
-1.63635e-05
-0.000113231
-0.000191313
-0.000290868
-0.000397428
-0.000506154
-0.000640574
-0.00081437
-0.00099984
-0.00120112
-0.00144685
-0.00174777
-0.00208989
-0.00245726
-0.00284041
-0.0031976
-0.00350331
-0.00371429
8.04373e-05
2.76098e-05
-9.61351e-05
-0.000208301
-0.00031239
-0.000438459
-0.000572005
-0.000700776
-0.000849023
-0.00104334
-0.00125937
-0.00149066
-0.00175327
-0.00206058
-0.00240926
-0.00277424
-0.00315855
-0.00352424
-0.00382703
-0.00404398
2.09079e-05
-3.82888e-05
-0.000173907
-0.000307794
-0.000436174
-0.000587189
-0.000748492
-0.000900247
-0.00106285
-0.00127376
-0.00151293
-0.00177091
-0.00205381
-0.00236527
-0.00271853
-0.00308452
-0.00346206
-0.00383434
-0.00413761
-0.00435314
-4.31002e-05
-0.000108581
-0.000256147
-0.000411187
-0.000562967
-0.000737357
-0.000925625
-0.00110224
-0.00128075
-0.00150571
-0.00176215
-0.00204015
-0.00234429
-0.00266241
-0.00301427
-0.00338308
-0.00375294
-0.00412498
-0.00443329
-0.00464393
-0.000111275
-0.00018302
-0.000342301
-0.000517735
-0.000692608
-0.000889329
-0.00110282
-0.00130459
-0.00150101
-0.00173851
-0.00200767
-0.00229974
-0.00262047
-0.00294839
-0.00329707
-0.00366485
-0.0040288
-0.00439394
-0.00470816
-0.00491696
-0.000183153
-0.000261172
-0.000431797
-0.000626719
-0.000824525
-0.00104295
-0.00127993
-0.00150609
-0.0017217
-0.00197158
-0.0022491
-0.002551
-0.00288231
-0.00321685
-0.00356388
-0.0039279
-0.00428559
-0.00463943
-0.00495539
-0.00516792
-0.00025807
-0.00034238
-0.000524043
-0.000737388
-0.000957944
-0.00119794
-0.00145661
-0.00170608
-0.00194141
-0.00220409
-0.00248673
-0.00279294
-0.00313219
-0.00346707
-0.00380781
-0.00416725
-0.00451733
-0.00485708
-0.00516766
-0.00538633
-0.000335178
-0.000425721
-0.000618307
-0.000849002
-0.00109162
-0.00135344
-0.00163306
-0.00190435
-0.002159
-0.00243512
-0.00272213
-0.00302527
-0.00336788
-0.00370244
-0.00402732
-0.00437615
-0.00471706
-0.00503858
-0.00533438
-0.00555359
-0.000413348
-0.000510185
-0.000713786
-0.000960667
-0.00122432
-0.0015078
-0.00180845
-0.00210147
-0.00237499
-0.0026645
-0.00295812
-0.00325249
-0.00358622
-0.00391847
-0.00422182
-0.00454688
-0.00487464
-0.00517518
-0.00544763
-0.00565502
-0.000490902
-0.000594783
-0.00080937
-0.00107102
-0.00135476
-0.00165987
-0.00198123
-0.00229644
-0.0025903
-0.00289341
-0.00319874
-0.00348715
-0.00379662
-0.00411399
-0.00438542
-0.0046606
-0.00495632
-0.00522652
-0.00546952
-0.00566642
-0.00056654
-0.000678059
-0.000902887
-0.00117836
-0.0014812
-0.00180867
-0.002151
-0.00248726
-0.00280294
-0.00312101
-0.00344259
-0.00374584
-0.00404205
-0.00434082
-0.0045808
-0.00477304
-0.00496992
-0.00513128
-0.00523098
-0.00528342
-0.000639411
-0.000757749
-0.000991892
-0.00128035
-0.00160081
-0.00195147
-0.00231823
-0.0026783
-0.00301441
-0.00334259
-0.00366041
-0.00396374
-0.0042538
-0.00453801
-0.00477197
-0.00489441
-0.00493274
-0.00489681
-0.0048147
-0.00476849
-0.000707725
-0.000831129
-0.00107472
-0.00137561
-0.00171142
-0.00208094
-0.00247026
-0.00286544
-0.00324928
-0.0036281
-0.00398439
-0.00427316
-0.00444938
-0.00451141
-0.0044966
-0.00442755
-0.00437495
-0.00439854
-0.00449675
-0.0046836
-0.000768144
-0.000895993
-0.00114915
-0.00146194
-0.00181413
-0.00220287
-0.00260502
-0.00300048
-0.0033633
-0.0036981
-0.00401639
-0.00430332
-0.00454187
-0.00472392
-0.00483241
-0.00482573
-0.00471148
-0.00459792
-0.00454747
-0.00462034
-0.000818088
-0.000949985
-0.00120945
-0.00153013
-0.00189215
-0.00229563
-0.00272117
-0.00315326
-0.00355814
-0.00392407
-0.00424444
-0.0044586
-0.00453196
-0.00451164
-0.00444851
-0.00437846
-0.00432927
-0.00435
-0.00448459
-0.0047209
-0.000858882
-0.000996758
-0.00126467
-0.00159444
-0.00196782
-0.00238385
-0.00281264
-0.00324084
-0.00363823
-0.00398298
-0.00428702
-0.00451456
-0.00461651
-0.00461624
-0.00456593
-0.00451126
-0.00448292
-0.00451012
-0.00462167
-0.00483466
0.046797
0.0314664
0.016622
0.00689542
0.00272466
0.00171048
0.000939488
-0.000360658
-0.00166557
-0.0024565
-0.0029465
-0.00352891
-0.0042316
-0.00502127
-0.00593927
-0.00685211
-0.00760784
-0.00830565
-0.00905904
-0.00982615
-0.0105861
-0.0113296
-0.0120361
-0.0127629
-0.0135611
-0.0144057
-0.0152227
-0.0159651
-0.0166892
-0.0174543
-0.0182334
-0.0189988
-0.0197639
-0.0205319
-0.0212999
-0.0220748
-0.0228583
-0.0236511
-0.024463
-0.0252981
-0.0261309
-0.026966
-0.0278306
-0.0286929
-0.0295339
-0.030407
-0.0313131
-0.0322194
-0.0331492
-0.0341142
-0.035094
-0.0360783
-0.0370779
-0.0380912
-0.0391031
-0.0401282
-0.0411871
-0.0422682
-0.0433631
-0.0444877
-0.0456425
-0.0468045
-0.0479804
-0.0491814
-0.050394
-0.0516134
-0.0528473
-0.0541299
-0.0554572
-0.0568017
-0.0581648
-0.0595379
-0.0609257
-0.0623431
-0.0637903
-0.065259
-0.0667564
-0.0682718
-0.0698174
-0.0713879
-0.0729858
-0.0746089
-0.076245
-0.0779051
-0.0796137
-0.0813452
-0.083092
-0.0848711
-0.0866877
-0.0885356
-0.0904095
-0.0923203
-0.0942503
-0.0962252
-0.0982269
-0.100264
-0.102343
-0.104404
-0.106444
-0.108492
0.0443267
0.031248
0.0166989
0.00703895
0.00282575
0.0017621
0.000969256
-0.000343235
-0.00165505
-0.00244883
-0.00293962
-0.00352254
-0.00422559
-0.00501541
-0.00593401
-0.00684773
-0.0076039
-0.00830185
-0.00905553
-0.00982294
-0.0105832
-0.011327
-0.0120337
-0.0127605
-0.0135589
-0.0144037
-0.015221
-0.0159636
-0.0166876
-0.0174529
-0.0182321
-0.0189976
-0.0197627
-0.0205308
-0.0212989
-0.0220739
-0.0228574
-0.0236502
-0.0244622
-0.0252973
-0.0261302
-0.0269653
-0.02783
-0.0286923
-0.0295333
-0.0304064
-0.0313126
-0.0322189
-0.0331487
-0.0341138
-0.0350935
-0.0360779
-0.0370774
-0.0380908
-0.0391027
-0.0401278
-0.0411867
-0.0422678
-0.0433628
-0.0444874
-0.0456422
-0.0468042
-0.0479801
-0.0491812
-0.0503937
-0.0516132
-0.0528471
-0.0541297
-0.055457
-0.0568015
-0.0581646
-0.0595377
-0.0609255
-0.0623429
-0.0637902
-0.0652588
-0.0667563
-0.0682717
-0.0698173
-0.0713878
-0.0729857
-0.0746088
-0.0762449
-0.077905
-0.0796137
-0.0813451
-0.083092
-0.084871
-0.0866877
-0.0885356
-0.0904094
-0.0923203
-0.0942502
-0.0962252
-0.0982268
-0.100264
-0.102343
-0.104404
-0.106444
-0.108492
0.0428331
0.0311525
0.0168814
0.0072937
0.00297967
0.00181886
0.000998304
-0.000319908
-0.00163698
-0.00243585
-0.00293063
-0.00351635
-0.00422069
-0.00501072
-0.00592952
-0.00684375
-0.00760032
-0.0082986
-0.00905262
-0.0098202
-0.0105806
-0.0113247
-0.0120316
-0.0127585
-0.0135571
-0.0144021
-0.0152196
-0.0159622
-0.0166863
-0.0174517
-0.018231
-0.0189966
-0.0197617
-0.0205299
-0.021298
-0.0220731
-0.0228567
-0.0236495
-0.0244615
-0.0252967
-0.0261296
-0.0269647
-0.0278295
-0.0286918
-0.0295329
-0.030406
-0.0313122
-0.0322185
-0.0331483
-0.0341134
-0.0350932
-0.0360775
-0.0370771
-0.0380905
-0.0391024
-0.0401275
-0.0411864
-0.0422675
-0.0433625
-0.0444871
-0.045642
-0.046804
-0.0479799
-0.049181
-0.0503935
-0.051613
-0.0528469
-0.0541295
-0.0554568
-0.0568013
-0.0581644
-0.0595376
-0.0609254
-0.0623428
-0.06379
-0.0652587
-0.0667562
-0.0682716
-0.0698172
-0.0713877
-0.0729856
-0.0746087
-0.0762449
-0.077905
-0.0796136
-0.0813451
-0.0830919
-0.084871
-0.0866877
-0.0885355
-0.0904094
-0.0923203
-0.0942502
-0.0962252
-0.0982268
-0.100264
-0.102343
-0.104404
-0.106444
-0.108492
0.0412366
0.0309256
0.0170471
0.00757698
0.00317629
0.00189785
0.00104345
-0.000279521
-0.0016023
-0.00241069
-0.00291523
-0.00350787
-0.00421557
-0.00500616
-0.00592424
-0.00683819
-0.00759556
-0.00829508
-0.00904981
-0.00981725
-0.0105774
-0.0113216
-0.0120289
-0.0127562
-0.0135549
-0.0144002
-0.0152179
-0.0159607
-0.0166848
-0.0174503
-0.0182297
-0.0189953
-0.0197606
-0.0205289
-0.0212971
-0.0220722
-0.0228558
-0.0236488
-0.0244608
-0.025296
-0.026129
-0.0269641
-0.0278289
-0.0286913
-0.0295324
-0.0304055
-0.0313117
-0.0322181
-0.0331478
-0.034113
-0.0350928
-0.0360772
-0.0370768
-0.0380902
-0.0391021
-0.0401272
-0.0411861
-0.0422673
-0.0433622
-0.0444869
-0.0456417
-0.0468037
-0.0479796
-0.0491808
-0.0503933
-0.0516128
-0.0528467
-0.0541293
-0.0554566
-0.0568011
-0.0581643
-0.0595374
-0.0609252
-0.0623426
-0.0637899
-0.0652586
-0.0667561
-0.0682715
-0.0698171
-0.0713876
-0.0729855
-0.0746086
-0.0762448
-0.0779049
-0.0796136
-0.0813451
-0.0830919
-0.0848709
-0.0866876
-0.0885355
-0.0904094
-0.0923202
-0.0942502
-0.0962251
-0.0982268
-0.100264
-0.102343
-0.104404
-0.106444
-0.108493
0.0396049
0.0306136
0.0172095
0.00787354
0.0033901
0.00198645
0.00109547
-0.000226689
-0.00155146
-0.00237197
-0.00289168
-0.00349555
-0.0042094
-0.00500159
-0.00591788
-0.00683018
-0.0075886
-0.00829066
-0.00904693
-0.00981418
-0.0105735
-0.0113176
-0.0120255
-0.0127534
-0.0135522
-0.0143975
-0.0152154
-0.0159586
-0.016683
-0.0174486
-0.018228
-0.0189938
-0.0197592
-0.0205276
-0.0212959
-0.0220711
-0.0228548
-0.0236478
-0.0244599
-0.0252952
-0.0261283
-0.0269634
-0.0278283
-0.0286907
-0.0295318
-0.0304049
-0.0313112
-0.0322175
-0.0331473
-0.0341125
-0.0350924
-0.0360767
-0.0370764
-0.0380898
-0.0391017
-0.0401268
-0.0411858
-0.0422669
-0.0433619
-0.0444866
-0.0456414
-0.0468035
-0.0479794
-0.0491805
-0.0503931
-0.0516126
-0.0528464
-0.054129
-0.0554564
-0.056801
-0.0581641
-0.0595373
-0.060925
-0.0623425
-0.0637898
-0.0652585
-0.0667559
-0.0682713
-0.069817
-0.0713875
-0.0729854
-0.0746086
-0.0762447
-0.0779048
-0.0796135
-0.081345
-0.0830918
-0.0848709
-0.0866876
-0.0885354
-0.0904093
-0.0923202
-0.0942501
-0.0962251
-0.0982268
-0.100264
-0.102343
-0.104404
-0.106445
-0.108493
0.0379877
0.0302413
0.0173723
0.00817346
0.00360998
0.00207721
0.0011463
-0.000170261
-0.00149195
-0.00232421
-0.00286182
-0.00347981
-0.00420205
-0.00499686
-0.00591049
-0.00681976
-0.00757923
-0.00828488
-0.00904361
-0.00981092
-0.0105691
-0.0113129
-0.0120216
-0.0127503
-0.0135491
-0.0143938
-0.0152119
-0.0159558
-0.0166808
-0.0174463
-0.0182257
-0.0189916
-0.0197574
-0.020526
-0.0212943
-0.0220696
-0.0228534
-0.0236465
-0.0244587
-0.0252942
-0.0261274
-0.0269626
-0.0278275
-0.02869
-0.0295311
-0.0304042
-0.0313105
-0.0322169
-0.0331467
-0.034112
-0.0350919
-0.0360763
-0.0370759
-0.0380894
-0.0391013
-0.0401264
-0.0411854
-0.0422666
-0.0433615
-0.0444862
-0.0456411
-0.0468032
-0.0479791
-0.0491802
-0.0503928
-0.0516123
-0.0528461
-0.0541287
-0.0554562
-0.0568007
-0.0581639
-0.0595371
-0.0609248
-0.0623423
-0.0637896
-0.0652583
-0.0667558
-0.0682712
-0.0698168
-0.0713874
-0.0729853
-0.0746085
-0.0762446
-0.0779047
-0.0796134
-0.0813449
-0.0830917
-0.0848708
-0.0866875
-0.0885354
-0.0904093
-0.0923202
-0.0942501
-0.0962251
-0.0982267
-0.100264
-0.102343
-0.104404
-0.106445
-0.108494
0.036396
0.0298078
0.0175236
0.00846812
0.00383276
0.00217002
0.00119504
-0.000113664
-0.00142831
-0.00227117
-0.00282791
-0.00346169
-0.00419368
-0.0049918
-0.00590235
-0.00680775
-0.00756805
-0.00827772
-0.00903944
-0.00980718
-0.0105643
-0.0113077
-0.0120176
-0.0127475
-0.0135458
-0.0143892
-0.0152072
-0.0159521
-0.0166779
-0.0174434
-0.0182226
-0.0189888
-0.0197551
-0.020524
-0.0212924
-0.0220676
-0.0228515
-0.0236448
-0.0244571
-0.0252928
-0.0261262
-0.0269616
-0.0278265
-0.0286891
-0.0295303
-0.0304035
-0.0313098
-0.0322161
-0.033146
-0.0341113
-0.0350913
-0.0360758
-0.0370754
-0.0380889
-0.0391008
-0.0401259
-0.0411849
-0.0422661
-0.0433611
-0.0444858
-0.0456408
-0.0468028
-0.0479788
-0.0491799
-0.0503925
-0.051612
-0.0528458
-0.0541284
-0.0554559
-0.0568005
-0.0581636
-0.0595368
-0.0609246
-0.062342
-0.0637893
-0.0652581
-0.0667555
-0.068271
-0.0698166
-0.0713872
-0.0729851
-0.0746083
-0.0762445
-0.0779046
-0.0796133
-0.0813448
-0.0830916
-0.0848707
-0.0866874
-0.0885353
-0.0904092
-0.0923201
-0.09425
-0.096225
-0.0982267
-0.100264
-0.102343
-0.104404
-0.106445
-0.108495
0.0348422
0.0293082
0.0176519
0.00875397
0.00405997
0.00226784
0.00124286
-5.79442e-05
-0.00136249
-0.00221464
-0.00279116
-0.00344182
-0.00418436
-0.00498628
-0.00589375
-0.00679493
-0.00755588
-0.00826959
-0.0090344
-0.00980274
-0.010559
-0.0113022
-0.0120138
-0.0127451
-0.0135427
-0.0143843
-0.0152016
-0.0159476
-0.0166744
-0.0174399
-0.0182187
-0.0189851
-0.019752
-0.0205215
-0.02129
-0.0220654
-0.0228494
-0.0236428
-0.0244551
-0.0252909
-0.0261247
-0.0269603
-0.0278252
-0.028688
-0.0295294
-0.0304026
-0.0313088
-0.0322152
-0.0331451
-0.0341104
-0.0350905
-0.0360751
-0.0370748
-0.0380883
-0.0391002
-0.0401253
-0.0411843
-0.0422656
-0.0433606
-0.0444853
-0.0456403
-0.0468025
-0.0479784
-0.0491796
-0.0503922
-0.0516116
-0.0528454
-0.054128
-0.0554556
-0.0568002
-0.0581633
-0.0595365
-0.0609242
-0.0623417
-0.063789
-0.0652578
-0.0667553
-0.0682707
-0.0698164
-0.071387
-0.0729849
-0.0746081
-0.0762443
-0.0779044
-0.0796131
-0.0813447
-0.0830915
-0.0848706
-0.0866873
-0.0885352
-0.0904091
-0.09232
-0.09425
-0.0962249
-0.0982266
-0.100264
-0.102343
-0.104404
-0.106445
-0.108497
0.0333331
0.0287391
0.0177506
0.00903216
0.00429472
0.00237329
0.00129028
-4.28877e-06
-0.00129584
-0.00215552
-0.00275211
-0.00342045
-0.00417418
-0.00498035
-0.00588487
-0.00678169
-0.00754316
-0.00826085
-0.00902872
-0.0097977
-0.0105532
-0.0112966
-0.0120101
-0.0127431
-0.01354
-0.0143794
-0.0151957
-0.0159426
-0.0166704
-0.0174357
-0.0182141
-0.0189807
-0.0197483
-0.0205183
-0.0212873
-0.0220628
-0.022847
-0.0236406
-0.0244528
-0.0252885
-0.0261227
-0.0269586
-0.0278236
-0.0286866
-0.0295284
-0.0304017
-0.0313078
-0.0322141
-0.033144
-0.0341094
-0.0350896
-0.0360743
-0.0370741
-0.0380875
-0.0390995
-0.0401246
-0.0411837
-0.042265
-0.04336
-0.0444847
-0.0456397
-0.046802
-0.047978
-0.0491792
-0.0503917
-0.0516112
-0.052845
-0.0541276
-0.0554551
-0.0567998
-0.0581629
-0.0595361
-0.0609238
-0.0623413
-0.0637887
-0.0652574
-0.0667549
-0.0682704
-0.0698161
-0.0713867
-0.0729846
-0.0746079
-0.076244
-0.0779042
-0.0796129
-0.0813445
-0.0830913
-0.0848704
-0.0866872
-0.0885351
-0.090409
-0.0923199
-0.0942498
-0.0962248
-0.0982266
-0.100264
-0.102343
-0.104404
-0.106446
-0.108499
0.0318728
0.0281046
0.0178177
0.00930364
0.00453732
0.00248675
0.00133668
4.5865e-05
-0.00122948
-0.00209433
-0.0027109
-0.00339766
-0.00416323
-0.00497412
-0.00587582
-0.00676815
-0.00753003
-0.00825172
-0.00902265
-0.00979227
-0.0105471
-0.0112909
-0.0120066
-0.0127415
-0.0135377
-0.0143747
-0.0151898
-0.0159375
-0.0166662
-0.0174312
-0.0182091
-0.0189759
-0.0197441
-0.0205147
-0.021284
-0.0220599
-0.0228445
-0.0236382
-0.0244503
-0.0252859
-0.0261203
-0.0269564
-0.0278214
-0.0286848
-0.0295272
-0.0304007
-0.0313067
-0.032213
-0.0331428
-0.034108
-0.0350883
-0.0360733
-0.0370732
-0.0380866
-0.0390987
-0.0401239
-0.0411829
-0.0422642
-0.0433592
-0.0444839
-0.045639
-0.0468014
-0.0479775
-0.0491787
-0.0503912
-0.0516107
-0.0528444
-0.054127
-0.0554546
-0.0567993
-0.0581624
-0.0595356
-0.0609233
-0.0623408
-0.0637882
-0.0652569
-0.0667544
-0.0682699
-0.0698156
-0.0713863
-0.0729842
-0.0746075
-0.0762437
-0.0779039
-0.0796126
-0.0813442
-0.0830911
-0.0848702
-0.0866869
-0.0885349
-0.0904088
-0.0923198
-0.0942497
-0.0962247
-0.0982264
-0.100264
-0.102343
-0.104404
-0.106446
-0.108501
0.0304693
0.0274126
0.017851
0.00956517
0.00478461
0.00260778
0.00138218
9.19176e-05
-0.00116415
-0.00203139
-0.00266765
-0.00337356
-0.00415168
-0.00496772
-0.00586669
-0.00675435
-0.00751653