/*--------------------------------*- C++ -*----------------------------------*\
| =========                 |                                                 |
| \\      /  F ield         | OpenFOAM: The Open Source CFD Toolbox           |
|  \\    /   O peration     | Version:  v1912                                 |
|   \\  /    A nd           | Website:  www.openfoam.com                      |
|    \\/     M anipulation  |                                                 |
\*---------------------------------------------------------------------------*/
FoamFile
{
    version     2.0;
    format      ascii;
    class       surfaceScalarField;
    location    "1";
    object      phi;
}
// * * * * * * * * * * * * * * * * * * * * * * * * * * * * * * * * * * * * * //

dimensions      [0 3 -1 0 0 0 0];
oriented        oriented;


internalField   nonuniform List<scalar> 
19000
(
1.16928e-06
-1.66399e-07
1.17055e-06
-1.23755e-07
1.17043e-06
-1.3218e-08
1.15642e-06
5.1676e-07
1.14462e-06
-9.32465e-08
1.18447e-06
-9.00225e-07
1.22923e-06
-2.94806e-07
1.18657e-06
-7.82774e-07
1.20944e-06
5.96299e-07
1.17098e-06
5.17281e-07
1.15982e-06
5.61239e-07
1.16487e-06
7.16024e-07
1.14769e-06
1.07013e-07
1.15839e-06
-1.69311e-08
1.14991e-06
-4.57383e-07
1.14111e-06
-4.30157e-07
1.14994e-06
-4.76106e-07
1.12317e-06
-6.93367e-07
1.15634e-06
-2.26578e-07
-7.08185e-07
1.07245e-06
1.22491e-06
-1.67043e-07
1.22718e-06
-1.26034e-07
1.22583e-06
-1.18617e-08
1.21639e-06
5.26199e-07
1.20204e-06
-7.88939e-08
1.23768e-06
-9.35866e-07
1.28259e-06
-3.39722e-07
1.24372e-06
-7.43895e-07
1.25958e-06
5.8043e-07
1.23356e-06
5.43303e-07
1.2072e-06
5.87598e-07
1.22952e-06
6.93705e-07
1.20542e-06
1.31118e-07
1.22342e-06
-3.4929e-08
1.20721e-06
-4.41181e-07
1.21097e-06
-4.33908e-07
1.19922e-06
-4.64359e-07
1.19334e-06
-6.87488e-07
1.19836e-06
-2.31602e-07
-6.67485e-07
1.15766e-06
1.28195e-06
-1.66208e-07
1.28688e-06
-1.30964e-07
1.28373e-06
-8.71046e-09
1.27912e-06
5.30808e-07
1.26319e-06
-6.29679e-08
1.29198e-06
-9.64653e-07
1.33518e-06
-3.82926e-07
1.30503e-06
-7.13744e-07
1.31076e-06
5.74699e-07
1.29816e-06
5.55902e-07
1.26474e-06
6.21022e-07
1.28599e-06
6.72458e-07
1.27364e-06
1.43466e-07
1.28039e-06
-4.16844e-08
1.27051e-06
-4.31298e-07
1.26715e-06
-4.30548e-07
1.25893e-06
-4.56141e-07
1.25128e-06
-6.79832e-07
1.25952e-06
-2.39848e-07
-6.37465e-07
1.2295e-06
1.34123e-06
-1.63335e-07
1.34831e-06
-1.38042e-07
1.3443e-06
-4.70352e-09
1.34292e-06
5.32194e-07
1.32731e-06
-4.73667e-08
1.34786e-06
-9.85197e-07
1.38709e-06
-4.22162e-07
1.3691e-06
-6.95746e-07
1.36765e-06
5.7615e-07
1.36259e-06
5.60954e-07
1.33456e-06
6.49055e-07
1.34793e-06
6.59088e-07
1.34555e-06
1.45849e-07
1.34698e-06
-4.31226e-08
1.33657e-06
-4.20885e-07
1.33292e-06
-4.26895e-07
1.32265e-06
-4.4587e-07
1.3126e-06
-6.69782e-07
1.31735e-06
-2.44602e-07
-6.06492e-07
1.28638e-06
1.40374e-06
-1.58725e-07
1.41107e-06
-1.45371e-07
1.40773e-06
-1.35692e-09
1.40812e-06
5.31803e-07
1.39482e-06
-3.40667e-08
1.40641e-06
-9.96787e-07
1.43954e-06
-4.55295e-07
1.43291e-06
-6.89112e-07
1.43077e-06
5.78285e-07
1.42886e-06
5.62867e-07
1.41126e-06
6.6665e-07
1.41962e-06
6.50733e-07
1.41984e-06
1.45629e-07
1.41956e-06
-4.28411e-08
1.4062e-06
-4.07526e-07
1.40211e-06
-4.22807e-07
1.39047e-06
-4.34232e-07
1.3774e-06
-6.56707e-07
1.38115e-06
-2.48351e-07
-5.73511e-07
1.34817e-06
1.47027e-06
-1.53314e-07
1.47579e-06
-1.50897e-07
1.47413e-06
3.04776e-10
1.47603e-06
5.29902e-07
1.46613e-06
-2.41661e-08
1.46916e-06
-9.99819e-07
1.49416e-06
-4.80295e-07
1.49549e-06
-6.90441e-07
1.49787e-06
5.75904e-07
1.49851e-06
5.62227e-07
1.49025e-06
6.74914e-07
1.49704e-06
6.43939e-07
1.49619e-06
1.46483e-07
1.49455e-06
-4.12017e-08
1.47896e-06
-3.9194e-07
1.47357e-06
-4.17414e-07
1.46143e-06
-4.22093e-07
1.44542e-06
-6.40696e-07
1.4486e-06
-2.51533e-07
-5.38558e-07
1.41364e-06
1.54096e-06
-1.48059e-07
1.54354e-06
-1.53479e-07
1.54364e-06
2.06345e-10
1.54772e-06
5.2582e-07
1.5413e-06
-1.77462e-08
1.53727e-06
-9.95783e-07
1.55258e-06
-4.95607e-07
1.55774e-06
-6.95605e-07
1.56696e-06
5.66685e-07
1.57104e-06
5.58148e-07
1.56981e-06
6.76151e-07
1.57648e-06
6.37269e-07
1.5739e-06
1.4906e-07
1.57103e-06
-3.83272e-08
1.55418e-06
-3.75099e-07
1.54773e-06
-4.10961e-07
1.5355e-06
-4.09862e-07
1.51681e-06
-6.2201e-07
1.51949e-06
-2.54205e-07
-5.02174e-07
1.4831e-06
1.61554e-06
-1.43471e-07
1.61522e-06
-1.53157e-07
1.61651e-06
-1.08463e-09
1.62344e-06
5.18886e-07
1.62003e-06
-1.43302e-08
1.61094e-06
-9.86693e-07
1.61602e-06
-5.00691e-07
1.62139e-06
-7.00971e-07
1.63725e-06
5.50823e-07
1.64502e-06
5.50379e-07
1.64932e-06
6.71856e-07
1.65635e-06
6.30238e-07
1.65251e-06
1.52892e-07
1.64896e-06
-3.47727e-08
1.63168e-06
-3.57821e-07
1.62466e-06
-4.03939e-07
1.61282e-06
-3.98018e-07
1.59181e-06
-6.01004e-07
1.59394e-06
-2.56336e-07
-4.65017e-07
1.55678e-06
1.69369e-06
-1.39588e-07
1.69126e-06
-1.50724e-07
1.69307e-06
-2.90153e-09
1.70289e-06
5.0907e-07
1.70183e-06
-1.32689e-08
1.68956e-06
-9.74421e-07
1.68524e-06
-4.96375e-07
1.68817e-06
-7.03904e-07
1.70875e-06
5.30244e-07
1.71942e-06
5.39709e-07
1.72841e-06
6.62865e-07
1.73629e-06
6.22365e-07
1.73211e-06
1.57072e-07
1.72856e-06
-3.12284e-08
1.71161e-06
-3.40865e-07
1.7043e-06
-3.96629e-07
1.69332e-06
-3.8704e-07
1.67047e-06
-5.78152e-07
1.67203e-06
-2.57902e-07
-4.27772e-07
1.63479e-06
1.77534e-06
-1.3621e-07
1.77175e-06
-1.4713e-07
1.77362e-06
-4.7736e-09
1.78575e-06
4.96939e-07
1.78635e-06
-1.38701e-08
1.77223e-06
-9.60295e-07
1.76062e-06
-4.84768e-07
1.75956e-06
-7.02845e-07
1.78213e-06
5.07674e-07
1.79445e-06
5.2739e-07
1.80746e-06
6.49855e-07
1.81675e-06
6.13079e-07
1.81326e-06
1.60559e-07
1.8103e-06
-2.82681e-08
1.79428e-06
-3.24847e-07
1.78673e-06
-3.89075e-07
1.77689e-06
-3.77201e-07
1.75276e-06
-5.54021e-07
1.75375e-06
-2.58889e-07
-3.91241e-07
1.71722e-06
1.86068e-06
-1.3314e-07
1.85667e-06
-1.4312e-07
1.85833e-06
-6.43123e-09
1.872e-06
4.83265e-07
1.87358e-06
-1.54493e-08
1.8583e-06
-9.45014e-07
1.84222e-06
-4.68687e-07
1.83662e-06
-6.97253e-07
1.85868e-06
4.85618e-07
1.87155e-06
5.14518e-07
1.88778e-06
6.33625e-07
1.89885e-06
6.02011e-07
1.89689e-06
1.6252e-07
1.89482e-06
-2.61961e-08
1.88012e-06
-3.10154e-07
1.87221e-06
-3.81157e-07
1.8635e-06
-3.68495e-07
1.83868e-06
-5.29198e-07
1.83903e-06
-2.59242e-07
-3.56309e-07
1.8041e-06
1.94996e-06
-1.30263e-07
1.94599e-06
-1.39144e-07
1.94727e-06
-7.71672e-09
1.96185e-06
4.68688e-07
1.96382e-06
-1.74168e-08
1.9476e-06
-9.28795e-07
1.92976e-06
-4.50846e-07
1.91994e-06
-6.87438e-07
1.93995e-06
4.65605e-07
1.95272e-06
5.01756e-07
1.97122e-06
6.15125e-07
1.98401e-06
5.89215e-07
1.98399e-06
1.6254e-07
1.9828e-06
-2.49994e-08
1.96957e-06
-2.96933e-07
1.96112e-06
-3.72703e-07
1.95328e-06
-3.6065e-07
1.9283e-06
-5.04224e-07
1.92786e-06
-2.58804e-07
-3.2381e-07
1.89536e-06
2.04344e-06
-1.27516e-07
2.03973e-06
-1.35428e-07
2.04054e-06
-8.53192e-09
2.05565e-06
4.53584e-07
2.05759e-06
-1.93615e-08
2.04041e-06
-9.1161e-07
2.02278e-06
-4.33216e-07
2.00957e-06
-6.74236e-07
2.02716e-06
4.4802e-07
2.03954e-06
4.89371e-07
2.05938e-06
5.95286e-07
2.07348e-06
5.7512e-07
2.07542e-06
1.60597e-07
2.07485e-06
-2.44242e-08
2.06305e-06
-2.85132e-07
2.05394e-06
-3.63602e-07
2.04651e-06
-3.53219e-07
2.02185e-06
-4.79556e-07
2.02035e-06
-2.57304e-07
-2.94385e-07
1.99092e-06
2.14133e-06
-1.24841e-07
2.13797e-06
-1.32069e-07
2.13827e-06
-8.83015e-09
2.15373e-06
4.38117e-07
2.15544e-06
-2.10691e-08
2.13723e-06
-8.93406e-07
2.12082e-06
-4.16801e-07
2.1052e-06
-6.58611e-07
2.12079e-06
4.32428e-07
2.13276e-06
4.77403e-07
2.15325e-06
5.74787e-07
2.16807e-06
5.60308e-07
2.17177e-06
1.56898e-07
2.17146e-06
-2.41212e-08
2.16087e-06
-2.74543e-07
2.15114e-06
-3.5387e-07
2.14361e-06
-3.45682e-07
2.11961e-06
-4.55562e-07
2.11679e-06
-2.54481e-07
-2.68315e-07
2.09072e-06
2.24381e-06
-1.22161e-07
2.24084e-06
-1.291e-07
2.24062e-06
-8.61429e-09
2.25641e-06
4.22325e-07
2.25782e-06
-2.24727e-08
2.23863e-06
-8.74213e-07
2.22363e-06
-4.018e-07
2.20637e-06
-6.41359e-07
2.22077e-06
4.1803e-07
2.23234e-06
4.65831e-07
2.2532e-06
5.53926e-07
2.26821e-06
5.45297e-07
2.27337e-06
1.51744e-07
2.27303e-06
-2.37875e-08
2.26332e-06
-2.64832e-07
2.25312e-06
-3.43663e-07
2.24497e-06
-3.37539e-07
2.22195e-06
-4.3254e-07
2.21778e-06
-2.50307e-07
-2.45356e-07
2.19482e-06
2.3511e-06
-1.19387e-07
2.34853e-06
-1.26525e-07
2.34783e-06
-7.92099e-09
2.36396e-06
4.06196e-07
2.36507e-06
-2.35796e-08
2.34502e-06
-8.54165e-07
2.33117e-06
-3.87946e-07
2.3128e-06
-6.22994e-07
2.32683e-06
4.04003e-07
2.338e-06
4.54658e-07
2.35924e-06
5.32687e-07
2.3741e-06
5.30439e-07
2.38038e-06
1.45466e-07
2.37985e-06
-2.3258e-08
2.3706e-06
-2.55588e-07
2.36018e-06
-3.3324e-07
2.35103e-06
-3.28388e-07
2.32917e-06
-4.10678e-07
2.32379e-06
-2.44932e-07
-2.24974e-07
2.30341e-06
2.46345e-06
-1.16439e-07
2.46127e-06
-1.24346e-07
2.46014e-06
-6.79594e-09
2.47663e-06
3.89709e-07
2.47747e-06
-2.44154e-08
2.45674e-06
-8.33437e-07
2.44363e-06
-3.7484e-07
2.42441e-06
-6.03772e-07
2.43875e-06
3.89666e-07
2.44948e-06
4.43927e-07
2.47125e-06
5.10917e-07
2.48579e-06
5.15899e-07
2.49284e-06
1.3841e-07
2.49212e-06
-2.25346e-08
2.48291e-06
-2.46379e-07
2.47257e-06
-3.229e-07
2.46218e-06
-3.17994e-07
2.4415e-06
-3.89997e-07
2.43519e-06
-2.38628e-07
-2.06579e-07
2.4168e-06
2.58111e-06
-1.13256e-07
2.57933e-06
-1.22561e-07
2.5778e-06
-5.27374e-09
2.59466e-06
3.72849e-07
2.59525e-06
-2.50003e-08
2.574e-06
-8.1219e-07
2.56132e-06
-3.62161e-07
2.54132e-06
-5.83767e-07
2.55644e-06
3.74541e-07
2.56667e-06
4.33704e-07
2.5891e-06
4.88479e-07
2.60331e-06
5.01692e-07
2.6108e-06
1.30921e-07
2.61003e-06
-2.17625e-08
2.60045e-06
-2.36799e-07
2.59046e-06
-3.12916e-07
2.57881e-06
-3.06338e-07
2.5591e-06
-3.70293e-07
2.55226e-06
-2.31782e-07
-1.89673e-07
2.53535e-06
2.70437e-06
-1.098e-07
2.70299e-06
-1.21176e-07
2.70109e-06
-3.3714e-09
2.71832e-06
3.55616e-07
2.71867e-06
-2.53478e-08
2.697e-06
-7.90524e-07
2.68459e-06
-3.4975e-07
2.66378e-06
-5.62955e-07
2.67996e-06
3.58362e-07
2.68962e-06
4.24041e-07
2.71277e-06
4.65326e-07
2.72674e-06
4.87722e-07
2.73432e-06
1.23338e-07
2.73374e-06
-2.11818e-08
2.72345e-06
-2.265e-07
2.714e-06
-3.03474e-07
2.70129e-06
-2.93626e-07
2.68213e-06
-3.51127e-07
2.6752e-06
-2.24851e-07
-1.73932e-07
2.65945e-06
2.83352e-06
-1.06051e-07
2.83255e-06
-1.20203e-07
2.83027e-06
-1.09334e-09
2.84786e-06
3.38028e-07
2.84798e-06
-2.54724e-08
2.82593e-06
-7.68475e-07
2.81377e-06
-3.37591e-07
2.79209e-06
-5.41272e-07
2.80942e-06
3.41032e-07
2.8185e-06
4.14959e-07
2.84232e-06
4.41511e-07
2.85623e-06
4.7381e-07
2.86358e-06
1.15985e-07
2.86347e-06
-2.10649e-08
2.85221e-06
-2.15239e-07
2.84333e-06
-2.94597e-07
2.82997e-06
-2.80271e-07
2.8108e-06
-3.31957e-07
2.80419e-06
-2.18235e-07
-1.59262e-07
2.78952e-06
2.96884e-06
-1.01998e-07
2.96829e-06
-1.19655e-07
2.96564e-06
1.5581e-09
2.98355e-06
3.20118e-07
2.98348e-06
-2.53975e-08
2.96103e-06
-7.46023e-07
2.9492e-06
-3.25765e-07
2.92659e-06
-5.18665e-07
2.94505e-06
3.22576e-07
2.95357e-06
4.06436e-07
2.97792e-06
4.17167e-07
2.992e-06
4.59722e-07
2.99882e-06
1.09168e-07
2.99941e-06
-2.1653e-08
2.98708e-06
-2.0291e-07
2.9786e-06
-2.86113e-07
2.96511e-06
-2.66788e-07
2.9455e-06
-3.12348e-07
2.93939e-06
-2.12118e-07
-1.45773e-07
2.9259e-06
3.11065e-06
-9.76374e-08
3.11053e-06
-1.19541e-07
3.10752e-06
4.57403e-09
3.12569e-06
3.01939e-07
3.12546e-06
-2.51619e-08
3.10255e-06
-7.2311e-07
3.09118e-06
-3.14402e-07
3.06762e-06
-4.95102e-07
3.0871e-06
3.03091e-07
3.09515e-06
3.98396e-07
3.11982e-06
3.92495e-07
3.13434e-06
4.45194e-07
3.14034e-06
1.03172e-07
3.1418e-06
-2.31159e-08
3.12846e-06
-1.89566e-07
3.12001e-06
-2.77668e-07
3.10694e-06
-2.53714e-07
3.08673e-06
-2.92135e-07
3.08094e-06
-2.06336e-07
-1.33739e-07
3.06891e-06
3.25924e-06
-9.29695e-08
3.25957e-06
-1.19866e-07
3.25621e-06
7.93293e-09
3.27458e-06
2.83565e-07
3.27424e-06
-2.48244e-08
3.25079e-06
-6.99657e-07
3.24003e-06
-3.03642e-07
3.21552e-06
-4.70588e-07
3.23588e-06
2.82725e-07
3.24357e-06
3.90705e-07
3.26831e-06
3.67761e-07
3.28356e-06
4.29939e-07
3.28848e-06
9.8255e-08
3.29089e-06
-2.55222e-08
3.27675e-06
-1.7543e-07
3.26785e-06
-2.68769e-07
3.25566e-06
-2.41527e-07
3.23495e-06
-2.7142e-07
3.22908e-06
-2.00466e-07
-1.23475e-07
3.21882e-06
3.41496e-06
-8.79972e-08
3.41572e-06
-1.20625e-07
3.41205e-06
1.15967e-08
3.43053e-06
2.65092e-07
3.43017e-06
-2.44678e-08
3.40608e-06
-6.75567e-07
3.39605e-06
-2.93614e-07
3.37064e-06
-4.45175e-07
3.3917e-06
2.61668e-07
3.39923e-06
3.8317e-07
3.42371e-06
3.43288e-07
3.43995e-06
4.13695e-07
3.44361e-06
9.459e-08
3.4469e-06
-2.88121e-08
3.43233e-06
-1.60859e-07
3.42248e-06
-2.58921e-07
3.41149e-06
-2.30537e-07
3.39063e-06
-2.50554e-07
3.38407e-06
-1.93909e-07
-1.15257e-07
3.37585e-06
3.57814e-06
-8.27276e-08
3.57932e-06
-1.21804e-07
3.57541e-06
1.55082e-08
3.59386e-06
2.46642e-07
3.59359e-06
-2.41985e-08
3.56876e-06
-6.50733e-07
3.55957e-06
-2.84428e-07
3.53336e-06
-4.18963e-07
3.55487e-06
2.40154e-07
3.56251e-06
3.75537e-07
3.58635e-06
3.19441e-07
3.6038e-06
3.9625e-07
3.60613e-06
9.22532e-08
3.61012e-06
-3.28001e-08
3.59556e-06
-1.46295e-07
3.58438e-06
-2.47743e-07
3.57467e-06
-2.20824e-07
3.55413e-06
-2.30015e-07
3.54636e-06
-1.86144e-07
-1.09104e-07
3.54021e-06
3.74915e-06
-7.71725e-08
3.75072e-06
-1.23378e-07
3.74665e-06
1.95876e-08
3.76492e-06
2.28369e-07
3.76486e-06
-2.41438e-08
3.73918e-06
-6.25052e-07
3.7309e-06
-2.76149e-07
3.70407e-06
-3.92124e-07
3.72576e-06
2.18463e-07
3.73378e-06
3.67513e-07
3.75662e-06
2.96601e-07
3.77539e-06
3.77479e-07
3.77645e-06
9.11942e-08
3.78085e-06
-3.71946e-08
3.76676e-06
-1.32205e-07
3.75405e-06
-2.35033e-07
3.74545e-06
-2.1223e-07
3.72577e-06
-2.10331e-07
3.71649e-06
-1.76863e-07
-1.04711e-07
3.71209e-06
3.92836e-06
-7.13492e-08
3.9303e-06
-1.25311e-07
3.92615e-06
2.37303e-08
3.94407e-06
2.10455e-07
3.94437e-06
-2.44462e-08
3.91776e-06
-5.98443e-07
3.9104e-06
-2.68783e-07
3.88317e-06
-3.64897e-07
3.90472e-06
1.96912e-07
3.91345e-06
3.58786e-07
3.93492e-06
2.7513e-07
3.95502e-06
3.57374e-07
3.95499e-06
9.12243e-08
3.95942e-06
-4.162e-08
3.94625e-06
-1.19042e-07
3.93198e-06
-2.20759e-07
3.92417e-06
-2.04418e-07
3.90584e-06
-1.92006e-07
3.89499e-06
-1.6601e-07
-1.01494e-07
3.89177e-06
4.11618e-06
-6.52809e-08
4.11842e-06
-1.27553e-07
4.11435e-06
2.7803e-08
4.13169e-06
1.93118e-07
4.1325e-06
-2.52538e-08
4.10492e-06
-5.70863e-07
4.09839e-06
-2.62256e-07
4.07109e-06
-3.37597e-07
4.09215e-06
1.75851e-07
4.10189e-06
3.49047e-07
4.12169e-06
2.55333e-07
4.143e-06
3.36057e-07
4.14217e-06
9.20544e-08
4.14623e-06
-4.56767e-08
4.13436e-06
-1.07176e-07
4.11869e-06
-2.05079e-07
4.11118e-06
-1.96913e-07
4.09464e-06
-1.7547e-07
4.08243e-06
-1.53791e-07
-9.86658e-08
4.0796e-06
4.31302e-06
-5.8997e-08
4.31551e-06
-1.30039e-07
4.31166e-06
3.16447e-08
4.32818e-06
1.766e-07
4.32963e-06
-2.67069e-08
4.30111e-06
-5.42338e-07
4.29526e-06
-2.56408e-07
4.26826e-06
-3.10597e-07
4.28848e-06
1.55637e-07
4.29949e-06
3.38036e-07
4.31743e-06
2.37391e-07
4.33969e-06
3.13793e-07
4.33842e-06
9.33259e-08
4.34174e-06
-4.89974e-08
4.33141e-06
-9.684e-08
4.31463e-06
-1.88306e-07
4.30692e-06
-1.892e-07
4.29245e-06
-1.61001e-07
4.2793e-06
-1.40637e-07
-9.5415e-08
4.27605e-06
4.51931e-06
-5.25342e-08
4.52196e-06
-1.32691e-07
4.51854e-06
3.50705e-08
4.53398e-06
1.61153e-07
4.53619e-06
-2.89111e-08
4.50683e-06
-5.12983e-07
4.50142e-06
-2.50992e-07
4.47513e-06
-2.84308e-07
4.49414e-06
1.3662e-07
4.50661e-06
3.25569e-07
4.52266e-06
2.21343e-07
4.5455e-06
2.90947e-07
4.54413e-06
9.46958e-08
4.54644e-06
-5.13015e-08
4.53772e-06
-8.81161e-08
4.52028e-06
-1.70869e-07
4.51189e-06
-1.80812e-07
4.49955e-06
-1.48661e-07
4.48608e-06
-1.27164e-07
-9.10491e-08
4.48171e-06
4.73552e-06
-4.59375e-08
4.73824e-06
-1.35409e-07
4.73543e-06
3.78773e-08
4.74955e-06
1.47031e-07
4.75256e-06
-3.19188e-08
4.72257e-06
-4.82997e-07
4.71729e-06
-2.4571e-07
4.69212e-06
-2.59141e-07
4.70964e-06
1.19101e-07
4.72362e-06
3.11597e-07
4.73792e-06
2.07042e-07
4.7609e-06
2.67966e-07
4.75975e-06
9.58486e-08
4.76083e-06
-5.23868e-08
4.75369e-06
-8.09737e-08
4.73605e-06
-1.53231e-07
4.72667e-06
-1.71436e-07
4.71628e-06
-1.38264e-07
4.70315e-06
-1.14035e-07
-8.52176e-08
4.69732e-06
4.96212e-06
-3.92607e-08
4.96479e-06
-1.38076e-07
4.96281e-06
3.9854e-08
4.97538e-06
1.34462e-07
4.97916e-06
-3.57031e-08
4.94884e-06
-4.52675e-07
4.94335e-06
-2.40218e-07
4.91969e-06
-2.35477e-07
4.93552e-06
1.0327e-07
4.95087e-06
2.96244e-07
4.96369e-06
1.9422e-07
4.9864e-06
2.45262e-07
4.98568e-06
9.65598e-08
4.98544e-06
-5.21417e-08
4.97976e-06
-7.52974e-08
4.96241e-06
-1.35873e-07
4.95186e-06
-1.6089e-07
4.94301e-06
-1.2941e-07
4.93088e-06
-1.01907e-07
-7.79618e-08
4.92362e-06
5.19962e-06
-3.25655e-08
5.2021e-06
-1.40558e-07
5.20116e-06
4.0802e-08
5.212e-06
1.23616e-07
5.21645e-06
-4.01535e-08
5.18615e-06
-4.22374e-07
5.18011e-06
-2.34174e-07
5.15824e-06
-2.13613e-07
5.17233e-06
8.91826e-08
5.18879e-06
2.79789e-07
5.20047e-06
1.82536e-07
5.22254e-06
2.23188e-07
5.22241e-06
9.66899e-08
5.22081e-06
-5.0539e-08
5.21641e-06
-7.08962e-08
5.19977e-06
-1.19234e-07
5.18806e-06
-1.49179e-07
5.18023e-06
-1.2158e-07
5.16957e-06
-9.12417e-08
-6.96974e-08
5.1613e-06
5.44855e-06
-2.59221e-08
5.4507e-06
-1.42709e-07
5.45093e-06
4.0569e-08
5.46e-06
1.14546e-07
5.46493e-06
-4.50807e-08
5.43503e-06
-3.9248e-07
5.42813e-06
-2.27275e-07
5.40825e-06
-1.93729e-07
5.42066e-06
7.67699e-08
5.43787e-06
2.62581e-07
5.44872e-06
1.7168e-07
5.46991e-06
2.02006e-07
5.47043e-06
9.61622e-08
5.4675e-06
-4.76068e-08
5.46414e-06
-6.75329e-08
5.44859e-06
-1.03689e-07
5.43588e-06
-1.36461e-07
5.42855e-06
-1.14256e-07
5.4195e-06
-8.21901e-08
-6.10855e-08
5.41089e-06
5.70944e-06
-1.94074e-08
5.7111e-06
-1.44364e-07
5.71261e-06
3.90612e-08
5.71998e-06
1.07171e-07
5.72512e-06
-5.0218e-08
5.69602e-06
-3.63385e-07
5.68806e-06
-2.1931e-07
5.67017e-06
-1.75842e-07
5.68108e-06
6.58607e-08
5.69866e-06
2.45e-07
5.70893e-06
1.61411e-07
5.72906e-06
1.81882e-07
5.73028e-06
9.49362e-08
5.7261e-06
-4.342e-08
5.72345e-06
-6.48918e-08
5.70935e-06
-8.95855e-08
5.6959e-06
-1.23008e-07
5.68863e-06
-1.06984e-07
5.68102e-06
-7.45865e-08
-5.28465e-08
5.67278e-06
5.98289e-06
-1.31035e-08
5.98388e-06
-1.45356e-07
5.9867e-06
3.62393e-08
5.99258e-06
1.01295e-07
5.99762e-06
-5.52633e-08
5.96968e-06
-3.35439e-07
5.96054e-06
-2.10177e-07
5.94454e-06
-1.59833e-07
5.95418e-06
5.62143e-08
5.97177e-06
2.27412e-07
5.98159e-06
1.51591e-07
6.00059e-06
1.62879e-07
6.00253e-06
9.30013e-08
5.99719e-06
-3.80842e-08
5.99494e-06
-6.26414e-08
5.98255e-06
-7.71959e-08
5.96869e-06
-1.09148e-07
5.96113e-06
-9.94248e-08
5.95466e-06
-6.81151e-08
-4.55124e-08
5.94733e-06
6.26948e-06
-7.09613e-09
6.26964e-06
-1.4551e-07
6.27376e-06
3.21134e-08
6.27843e-06
9.66219e-08
6.28307e-06
-5.98956e-08
6.25653e-06
-3.08898e-07
6.24622e-06
-1.99873e-07
6.23191e-06
-1.45516e-07
6.24054e-06
4.75761e-08
6.25781e-06
2.10142e-07
6.26722e-06
1.42184e-07
6.2851e-06
1.44996e-07
6.28776e-06
9.03491e-08
6.28143e-06
-3.17568e-08
6.27922e-06
-6.04284e-08
6.26872e-06
-6.67006e-08
6.25481e-06
-9.52418e-08
6.24678e-06
-9.1393e-08
6.24112e-06
-6.24508e-08
-3.91977e-08
6.2348e-06
6.56985e-06
-1.47372e-09
6.56899e-06
-1.44654e-07
6.57437e-06
2.67307e-08
6.5782e-06
9.27942e-08
6.58212e-06
-6.38172e-08
6.55719e-06
-2.83961e-07
6.54575e-06
-1.88442e-07
6.53289e-06
-1.32651e-07
6.54075e-06
3.97125e-08
6.55749e-06
1.93405e-07
6.56641e-06
1.33264e-07
6.58317e-06
1.28239e-07
6.5866e-06
8.69194e-08
6.57953e-06
-2.4685e-08
6.57695e-06
-5.78555e-08
6.56838e-06
-5.81271e-08
6.55486e-06
-8.17276e-08
6.5463e-06
-8.28255e-08
6.54111e-06
-5.72592e-08
-3.38391e-08
6.53575e-06
6.88464e-06
3.6743e-09
6.8826e-06
-1.42608e-07
6.88918e-06
2.01477e-08
6.89248e-06
8.94972e-08
6.89548e-06
-6.6819e-08
6.87231e-06
-2.60789e-07
6.85981e-06
-1.75946e-07
6.84814e-06
-1.20975e-07
6.85542e-06
3.24278e-08
6.87152e-06
1.77309e-07
6.87978e-06
1.25e-07
6.89537e-06
1.12651e-07
6.8997e-06
8.25886e-08
6.8922e-06
-1.71885e-08
6.88892e-06
-5.45731e-08
6.8821e-06
-5.13089e-08
6.86943e-06
-6.90588e-08
6.86036e-06
-7.37519e-08
6.85539e-06
-5.22948e-08
-2.93052e-08
6.85086e-06
7.21455e-06
8.25869e-09
7.21113e-06
-1.3919e-07
7.21885e-06
1.24279e-08
7.22189e-06
8.6461e-08
7.22381e-06
-6.87389e-08
7.20254e-06
-2.39515e-07
7.18912e-06
-1.62526e-07
7.17828e-06
-1.10137e-07
7.18519e-06
2.55208e-08
7.20061e-06
1.61887e-07
7.20808e-06
1.17532e-07
7.22234e-06
9.83882e-08
7.22766e-06
7.72702e-08
7.22016e-06
-9.69089e-09
7.21591e-06
-5.03234e-08
7.21054e-06
-4.59362e-08
7.19909e-06
-5.76153e-08
7.18968e-06
-6.43434e-08
7.1847e-06
-4.7313e-08
-2.5482e-08
7.18088e-06
7.56029e-06
1.21962e-08
7.55533e-06
-1.34231e-07
7.56411e-06
3.64888e-09
7.56716e-06
8.34122e-08
7.56785e-06
-6.94274e-08
7.54855e-06
-2.20217e-07
7.53442e-06
-1.48399e-07
7.52404e-06
-9.9753e-08
7.53067e-06
1.8882e-08
7.5455e-06
1.47056e-07
7.55215e-06
1.10882e-07
7.56481e-06
8.57283e-08
7.57111e-06
7.09722e-08
7.56405e-06
-2.63067e-09
7.5588e-06
-4.50679e-08
7.5544e-06
-4.15381e-08
7.54444e-06
-4.7658e-08
7.53499e-06
-5.48894e-08
7.5298e-06
-4.2127e-08
-2.2201e-08
7.52652e-06
7.9226e-06
1.54115e-08
7.91597e-06
-1.27606e-07
7.92569e-06
-6.06658e-09
7.92902e-06
8.00811e-08
7.92833e-06
-6.87387e-08
7.91104e-06
-2.02929e-07
7.89656e-06
-1.33916e-07
7.8862e-06
-8.93915e-08
7.89253e-06
1.25465e-08
7.90694e-06
1.32644e-07
7.91286e-06
1.04965e-07
7.92367e-06
7.49147e-08
7.93074e-06
6.39069e-08
7.92455e-06
3.55538e-09
7.91842e-06
-3.89379e-08
7.9145e-06
-3.76187e-08
7.9061e-06
-3.92572e-08
7.89698e-06
-4.57614e-08
7.89147e-06
-3.66239e-08
-1.92452e-08
7.88852e-06
8.30225e-06
1.78442e-08
8.29402e-06
-1.19376e-07
8.30438e-06
-1.64238e-08
8.30824e-06
7.62177e-08
8.30604e-06
-6.65403e-08
8.29077e-06
-1.87662e-07
8.2764e-06
-1.19545e-07
8.26562e-06
-7.86099e-08
8.27145e-06
6.71934e-09
8.28565e-06
1.18448e-07
8.29101e-06
9.9604e-08
8.29986e-06
6.60633e-08
8.3073e-06
5.64604e-08
8.30235e-06
8.51347e-09
8.29562e-06
-3.22086e-08
8.29176e-06
-3.37594e-08
8.28479e-06
-3.22895e-08
8.27633e-06
-3.73023e-08
8.27059e-06
-3.08847e-08
-1.63247e-08
8.26767e-06
8.70005e-06
1.9456e-08
8.6904e-06
-1.09725e-07
8.70099e-06
-2.70183e-08
8.70559e-06
7.16247e-08
8.70183e-06
-6.27839e-08
8.68849e-06
-1.74326e-07
8.67479e-06
-1.05844e-07
8.66332e-06
-6.71415e-08
8.6682e-06
1.84626e-09
8.68233e-06
1.04314e-07
8.68746e-06
9.44756e-08
8.69433e-06
5.91899e-08
8.70168e-06
4.91117e-08
8.69814e-06
1.20531e-08
8.69118e-06
-2.5247e-08
8.68715e-06
-2.97276e-08
8.68132e-06
-2.6466e-08
8.67375e-06
-2.97304e-08
8.66803e-06
-2.51629e-08
-1.31684e-08
8.66487e-06
9.11684e-06
2.02368e-08
9.10601e-06
-9.88938e-08
9.1164e-06
-3.74136e-08
9.12186e-06
6.61673e-08
9.11659e-06
-5.75106e-08
9.10492e-06
-1.62659e-07
9.09247e-06
-9.33985e-08
9.08038e-06
-5.5051e-08
9.08371e-06
-1.48469e-09
9.09774e-06
9.02937e-08
9.10304e-06
8.91737e-08
9.10813e-06
5.40981e-08
9.11487e-06
4.23729e-08
9.11272e-06
1.42049e-08
9.10593e-06
-1.84638e-08
9.10162e-06
-2.5415e-08
9.09666e-06
-2.15024e-08
9.08999e-06
-2.30661e-08
9.08461e-06
-1.9782e-08
-9.70564e-09
9.08115e-06
9.55348e-06
2.02121e-08
9.54178e-06
-8.71883e-08
9.55149e-06
-4.71291e-08
9.55793e-06
5.97363e-08
9.55129e-06
-5.08797e-08
9.54075e-06
-1.52117e-07
9.5302e-06
-8.2846e-08
9.51784e-06
-4.26897e-08
9.5192e-06
-2.84601e-09
9.53272e-06
7.67746e-08
9.53856e-06
8.33332e-08
9.54217e-06
5.04881e-08
9.54792e-06
3.66237e-08
9.54697e-06
1.51526e-08
9.54072e-06
-1.22087e-08
9.53614e-06
-2.08387e-08
9.53182e-06
-1.71838e-08
9.52595e-06
-1.71948e-08
9.5211e-06
-1.49304e-08
-6.15772e-09
9.51755e-06
1.00109e-05
1.94458e-08
9.99868e-06
-7.49702e-08
1.00072e-05
-5.56229e-08
1.00147e-05
5.21664e-08
1.0007e-05
-4.31031e-08
9.99693e-06
-1.4208e-07
9.98869e-06
-7.45999e-08
9.97662e-06
-3.06253e-08
9.97587e-06
-2.09478e-09
9.9883e-06
6.43442e-08
9.99485e-06
7.67855e-08
9.99743e-06
4.79055e-08
1.00019e-05
3.21065e-08
1.00019e-05
1.52134e-08
9.99642e-06
-6.7441e-09
9.99169e-06
-1.61034e-08
9.98785e-06
-1.33412e-08
9.98265e-06
-1.20024e-08
9.97832e-06
-1.0594e-08
-2.88566e-09
9.97504e-06
1.049e-05
1.80452e-08
1.04777e-05
-6.26318e-08
1.04845e-05
-6.24507e-08
1.04934e-05
4.32963e-08
1.04846e-05
-3.42978e-08
1.04744e-05
-1.31874e-07
1.04687e-05
-6.88976e-08
1.04576e-05
-1.9589e-08
1.04549e-05
6.82292e-10
1.04656e-05
5.35683e-08
1.04728e-05
6.96479e-08
1.04749e-05
4.58087e-08
1.04781e-05
2.88724e-08
1.04785e-05
1.48009e-08
1.0474e-05
-2.21442e-09
1.04693e-05
-1.13538e-08
1.04657e-05
-9.8367e-09
1.04612e-05
-7.48901e-09
1.04572e-05
-6.5717e-09
-1.6951e-10
1.04545e-05
1.09919e-05
1.61591e-08
1.09798e-05
-5.05771e-08
1.09846e-05
-6.72415e-08
1.09948e-05
3.31476e-08
1.09853e-05
-2.48548e-08
1.09742e-05
-1.20727e-07
1.09709e-05
-6.56039e-08
1.09618e-05
-1.04477e-08
1.09574e-05
5.08801e-09
1.0966e-05
4.49585e-08
1.09734e-05
6.21927e-08
1.09754e-05
4.37886e-08
1.09776e-05
2.6738e-08
1.0978e-05
1.43339e-08
1.09745e-05
1.37071e-09
1.09699e-05
-6.77863e-09
1.09666e-05
-6.51028e-09
1.09628e-05
-3.71179e-09
1.09589e-05
-2.71839e-09
1.99814e-09
1.09568e-05
1.15175e-05
1.39746e-08
1.15062e-05
-3.92004e-08
1.15086e-05
-6.9648e-08
1.15198e-05
2.19501e-08
1.15107e-05
-1.57951e-08
1.14976e-05
-1.07613e-07
1.14961e-05
-6.40676e-08
1.14897e-05
-4.08212e-09
1.14844e-05
1.03866e-08
1.14906e-05
3.87528e-08
1.14979e-05
5.49312e-08
1.15001e-05
4.15656e-08
1.15014e-05
2.54558e-08
1.15017e-05
1.40379e-08
1.14989e-05
4.15428e-09
1.14947e-05
-2.55418e-09
1.14914e-05
-3.27449e-09
1.14883e-05
-6.0986e-10
1.14847e-05
8.59546e-10
3.91279e-09
1.14828e-05
1.20681e-05
1.17016e-08
1.20578e-05
-2.8906e-08
1.20576e-05
-6.94337e-08
1.20693e-05
1.02261e-08
1.20617e-05
-8.22027e-09
1.20465e-05
-9.24053e-08
1.2045e-05
-6.25882e-08
1.20421e-05
-1.15135e-09
1.2037e-05
1.55108e-08
1.20409e-05
3.48818e-08
1.20474e-05
4.84255e-08
1.20499e-05
3.90684e-08
1.20506e-05
2.47134e-08
1.20506e-05
1.40197e-08
1.20484e-05
6.33989e-09
1.20447e-05
1.15398e-09
1.20415e-05
-6.79238e-11
1.2039e-05
1.93966e-09
1.20359e-05
3.96608e-09
5.88368e-09
1.20339e-05
1.26447e-05
9.56235e-09
1.26359e-05
-2.01107e-08
1.26331e-05
-6.65485e-08
1.26446e-05
-1.33144e-09
1.26393e-05
-2.86238e-09
1.26229e-05
-7.60319e-08
1.26196e-05
-5.93272e-08
1.26198e-05
-1.3519e-09
1.2616e-05
1.93198e-08
1.2618e-05
3.29286e-08
1.26233e-05
4.30532e-08
1.26259e-05
3.64783e-08
1.26264e-05
2.421e-08
1.26261e-05
1.43201e-08
1.26244e-05
8.10675e-09
1.26213e-05
4.25529e-09
1.26181e-05
3.05004e-09
1.26159e-05
4.13487e-09
1.26135e-05
6.45272e-09
7.98936e-09
1.26114e-05
1.32488e-05
7.74202e-09
1.32417e-05
-1.30942e-08
1.32364e-05
-6.12443e-08
1.3247e-05
-1.18867e-08
1.32441e-05
4.18917e-11
1.32278e-05
-5.97408e-08
1.32222e-05
-5.37059e-08
1.32239e-05
-3.10915e-09
1.32222e-05
2.10141e-08
1.32231e-05
3.20477e-08
1.32271e-05
3.90248e-08
1.32296e-05
3.40467e-08
1.323e-05
2.38089e-08
1.32295e-05
1.4827e-08
1.3228e-05
9.61472e-09
1.32254e-05
6.78626e-09
1.32226e-05
5.89482e-09
1.32205e-05
6.27075e-09
1.32187e-05
8.2234e-09
1.00426e-08
1.32166e-05
1.38815e-05
6.35657e-09
1.38763e-05
-7.88151e-09
1.38693e-05
-5.42098e-08
1.38779e-05
-2.04383e-08
1.38773e-05
5.73779e-10
1.38622e-05
-4.4608e-08
1.38545e-05
-4.60563e-08
1.38561e-05
-4.6919e-09
1.38566e-05
2.05264e-08
1.38574e-05
3.12489e-08
1.38602e-05
3.62306e-08
1.38622e-05
3.20119e-08
1.38626e-05
2.34742e-08
1.38619e-05
1.5461e-08
1.38606e-05
1.09764e-08
1.38586e-05
8.81323e-09
1.38561e-05
8.31561e-09
1.3854e-05
8.4129e-09
1.38527e-05
9.49475e-09
1.17048e-08
1.38511e-05
1.45446e-05
5.45773e-09
1.4541e-05
-4.29778e-09
1.45331e-05
-4.63015e-08
1.45388e-05
-2.61647e-08
1.45402e-05
-8.32105e-10
1.45271e-05
-3.15295e-08
1.45181e-05
-3.70708e-08
1.45186e-05
-5.11073e-09
1.45204e-05
1.86693e-08
1.45218e-05
2.98444e-08
1.45239e-05
3.41585e-08
1.45254e-05
3.05211e-08
1.45256e-05
2.32852e-08
1.45249e-05
1.61411e-08
1.45237e-05
1.21982e-08
1.4522e-05
1.0522e-08
1.45201e-05
1.0205e-08
1.45181e-05
1.04229e-08
1.45169e-05
1.06531e-08
1.27465e-08
1.45159e-05
1.52393e-05
5.04305e-09
1.52371e-05
-2.05394e-09
1.5229e-05
-3.82398e-08
1.52317e-05
-2.88864e-08
1.52343e-05
-3.3785e-09
1.52237e-05
-2.09917e-08
1.52143e-05
-2.76895e-08
1.52133e-05
-4.07398e-09
1.52154e-05
1.65703e-08
1.52175e-05
2.77174e-08
1.52195e-05
3.22341e-08
1.52205e-05
2.94855e-08
1.52205e-05
2.32701e-08
1.52198e-05
1.68941e-08
1.52186e-05
1.33011e-08
1.52172e-05
1.19737e-08
1.52158e-05
1.1643e-08
1.52141e-05
1.20925e-08
1.52128e-05
1.19075e-08
1.32377e-08
1.52123e-05
1.59673e-05
5.05533e-09
1.59661e-05
-8.23451e-10
1.59584e-05
-3.05825e-08
1.59585e-05
-2.89285e-08
1.59612e-05
-6.09878e-09
1.59533e-05
-1.30548e-08
1.59443e-05
-1.87071e-08
1.5942e-05
-1.80338e-09
1.59436e-05
1.49985e-08
1.59461e-05
2.52058e-08
1.59481e-05
3.02017e-08
1.5949e-05
2.85675e-08
1.59489e-05
2.34242e-08
1.5948e-05
1.77355e-08
1.5947e-05
1.43001e-08
1.59458e-05
1.31949e-08
1.59447e-05
1.28129e-08
1.59435e-05
1.32528e-08
1.59422e-05
1.31896e-08
1.35459e-08
1.59419e-05
1.67303e-05
5.39921e-09
1.67297e-05
-2.44302e-10
1.67228e-05
-2.37374e-08
1.67207e-05
-2.6811e-08
1.67228e-05
-8.179e-09
1.67172e-05
-7.50073e-09
1.67092e-05
-1.06663e-08
1.67061e-05
1.28598e-09
1.67069e-05
1.42446e-08
1.67092e-05
2.28293e-08
1.67114e-05
2.80247e-08
1.67124e-05
2.75463e-08
1.67123e-05
2.35581e-08
1.67114e-05
1.86707e-08
1.67104e-05
1.52473e-08
1.67094e-05
1.41896e-08
1.67084e-05
1.38173e-08
1.67077e-05
1.39756e-08
1.67067e-05
1.42358e-08
1.39746e-08
1.67062e-05
1.75298e-05
5.96374e-09
1.75295e-05
5.54084e-11
1.75237e-05
-1.7944e-08
1.75201e-05
-2.31818e-08
1.7521e-05
-9.10031e-09
1.75173e-05
-3.84588e-09
1.75106e-05
-3.88653e-09
1.75071e-05
4.74034e-09
1.75071e-05
1.42944e-08
1.75089e-05
2.09565e-08
1.75111e-05
2.58439e-08
1.75123e-05
2.63951e-08
1.75123e-05
2.35206e-08
1.75114e-05
1.95301e-08
1.75105e-05
1.62297e-08
1.75097e-05
1.49814e-08
1.75088e-05
1.4647e-08
1.75083e-05
1.451e-08
1.75077e-05
1.48014e-08
1.45314e-08
1.75072e-05
1.83677e-05
6.63925e-09
1.83673e-05
3.83701e-10
1.83626e-05
-1.32366e-08
1.83582e-05
-1.87347e-08
1.83578e-05
-8.68761e-09
1.83553e-05
-1.41497e-09
1.835e-05
1.44739e-09
1.83465e-05
8.20915e-09
1.83458e-05
1.4991e-08
1.83471e-05
1.97305e-08
1.8349e-05
2.39094e-08
1.83503e-05
2.51287e-08
1.83505e-05
2.32891e-08
1.83499e-05
2.01526e-08
1.83489e-05
1.71855e-08