/*--------------------------------*- C++ -*----------------------------------*\
| =========                 |                                                 |
| \\      /  F ield         | OpenFOAM: The Open Source CFD Toolbox           |
|  \\    /   O peration     | Version:  v1912                                 |
|   \\  /    A nd           | Website:  www.openfoam.com                      |
|    \\/     M anipulation  |                                                 |
\*---------------------------------------------------------------------------*/
FoamFile
{
    version     2.0;
    format      ascii;
    class       volVectorField;
    location    "1";
    object      U;
}
// * * * * * * * * * * * * * * * * * * * * * * * * * * * * * * * * * * * * * //

dimensions      [0 1 -1 0 0 0 0];


internalField   nonuniform List<vector> 
9600
(
(0.909162 -0.00166696 0)
(1.08598 -0.00134186 0)
(0.924101 -0.000155882 0)
(1.07269 0.00657712 0)
(0.913658 -0.00145509 0)
(1.03888 -0.0133554 0)
(0.992038 -0.00432321 0)
(1.10661 -0.0147972 0)
(0.932858 0.0121056 0)
(1.12872 0.010602 0)
(0.887193 0.0129284 0)
(1.08719 0.0182997 0)
(0.912952 0.00257508 0)
(1.04844 -0.000279593 0)
(0.93705 -0.0153305 0)
(1.02879 -0.0155391 0)
(0.926701 -0.0184216 0)
(1.03662 -0.0299327 0)
(0.890608 -0.0095981 0)
(1.07462 -0.0369191 0)
(0.917712 -0.00167817 0)
(1.07723 -0.00135834 0)
(0.933469 -0.000161793 0)
(1.06339 0.00674038 0)
(0.92972 -0.00118787 0)
(1.02838 -0.0141046 0)
(0.996241 -0.00534394 0)
(1.09495 -0.0138345 0)
(0.942549 0.011677 0)
(1.10878 0.0113903 0)
(0.914931 0.0133933 0)
(1.05035 0.0180571 0)
(0.961164 0.0033555 0)
(1.00837 -0.000780811 0)
(0.988604 -0.0147064 0)
(0.985566 -0.0154414 0)
(0.989966 -0.0182441 0)
(0.969665 -0.0296194 0)
(0.979383 -0.00990374 0)
(0.971599 -0.037609 0)
(0.932835 -0.00168036 0)
(1.06114 -0.00139849 0)
(0.949778 -0.000128402 0)
(1.04734 0.00687271 0)
(0.951277 -0.000995065 0)
(1.0141 -0.014643 0)
(1.00216 -0.00607902 0)
(1.07637 -0.0131804 0)
(0.962512 0.011321 0)
(1.07681 0.0119039 0)
(0.952871 0.0141545 0)
(1.01513 0.017452 0)
(0.989957 0.00387458 0)
(0.998059 -0.00120248 0)
(0.995506 -0.0143291 0)
(0.987807 -0.0155262 0)
(0.98522 -0.0180436 0)
(0.977487 -0.0287565 0)
(0.97454 -0.0117379 0)
(0.980911 -0.0317374 0)
(0.951176 -0.00166067 0)
(1.04151 -0.00146853 0)
(0.967673 -7.78749e-05 0)
(1.02975 0.00690567 0)
(0.971168 -0.000780976 0)
(1.00118 -0.0150169 0)
(1.00572 -0.00675012 0)
(1.056 -0.0127786 0)
(0.983763 0.0113281 0)
(1.04891 0.0120597 0)
(0.982028 0.0149317 0)
(1.00163 0.0169638 0)
(1.00291 0.00403413 0)
(1.00218 -0.00130146 0)
(0.999115 -0.0140395 0)
(0.992261 -0.0153878 0)
(0.988484 -0.0175141 0)
(0.979406 -0.02882 0)
(0.975783 -0.0111258 0)
(0.975947 -0.0311956 0)
(0.968941 -0.00161961 0)
(1.02308 -0.00155476 0)
(0.982277 -3.09196e-05 0)
(1.01517 0.00690288 0)
(0.985865 -0.000571363 0)
(0.99323 -0.0152564 0)
(1.00509 -0.00735762 0)
(1.03757 -0.0125768 0)
(0.998617 0.0114333 0)
(1.03204 0.012117 0)
(0.999204 0.0154897 0)
(1.00336 0.01671 0)
(1.0111 0.00404813 0)
(1.00848 -0.00131618 0)
(1.00423 -0.0136207 0)
(0.995459 -0.0152453 0)
(0.993057 -0.0171422 0)
(0.981228 -0.0281814 0)
(0.977855 -0.0113993 0)
(0.974877 -0.0295787 0)
(0.983249 -0.00156616 0)
(1.00925 -0.00163062 0)
(0.991385 -1.37549e-08 0)
(1.00563 0.00688728 0)
(0.995338 -0.000403823 0)
(0.990594 -0.0153565 0)
(1.00177 -0.00785073 0)
(1.02203 -0.0125406 0)
(1.00538 0.011461 0)
(1.02397 0.0121396 0)
(1.00853 0.015785 0)
(1.0097 0.0165378 0)
(1.01764 0.00405629 0)
(1.01368 -0.00128111 0)
(1.00855 -0.0131334 0)
(0.998685 -0.0150833 0)
(0.996015 -0.0166516 0)
(0.984024 -0.0275544 0)
(0.979057 -0.0115898 0)
(0.975514 -0.0278871 0)
(0.992952 -0.00151114 0)
(1.00093 -0.00167551 0)
(0.995516 8.56405e-06 0)
(1.00063 0.00685036 0)
(1.00126 -0.000285682 0)
(0.991523 -0.0153326 0)
(0.998354 -0.00819061 0)
(1.00888 -0.012609 0)
(1.0062 0.0113559 0)
(1.01991 0.0120952 0)
(1.01354 0.0158841 0)
(1.01533 0.0163685 0)
(1.02219 0.00410846 0)
(1.0173 -0.00120994 0)
(1.01139 -0.0125954 0)
(1.00158 -0.0148551 0)
(0.998248 -0.0161761 0)
(0.98682 -0.0268058 0)
(0.980228 -0.0117537 0)
(0.976552 -0.0260593 0)
(0.99848 -0.00146185 0)
(0.997026 -0.0016849 0)
(0.996553 -1.69382e-06 0)
(0.998572 0.00678069 0)
(1.00512 -0.000212902 0)
(0.994014 -0.0152176 0)
(0.996344 -0.0083583 0)
(0.997816 -0.0127117 0)
(1.00376 0.0111032 0)
(1.01646 0.0119651 0)
(1.01555 0.0158401 0)
(1.01868 0.0161905 0)
(1.02446 0.00420595 0)
(1.01924 -0.00111532 0)
(1.01297 -0.012024 0)
(1.00371 -0.0146037 0)
(1.00015 -0.0157179 0)
(0.989306 -0.0259491 0)
(0.981644 -0.0118689 0)
(0.977692 -0.0241789 0)
(1.00106 -0.00142019 0)
(0.995784 -0.00166627 0)
(0.996299 -2.21115e-05 0)
(0.997989 0.00667196 0)
(1.00764 -0.000179575 0)
(0.996687 -0.0150452 0)
(0.995757 -0.00835728 0)
(0.989131 -0.0127891 0)
(0.999837 0.0107293 0)
(1.01218 0.011757 0)
(1.0149 0.015678 0)
(1.01946 0.0159981 0)
(1.02466 0.00432085 0)
(1.01969 -0.00100674 0)
(1.01354 -0.011455 0)
(1.00505 -0.0143425 0)
(1.00162 -0.0152869 0)
(0.991451 -0.0249953 0)
(0.98314 -0.0119478 0)
(0.978963 -0.0223089 0)
(1.00195 -0.00138461 0)
(0.995808 -0.00163046 0)
(0.995819 -4.50715e-05 0)
(0.998007 0.00652614 0)
(1.00911 -0.0001778 0)
(0.998838 -0.0148391 0)
(0.995871 -0.00821348 0)
(0.983304 -0.0128028 0)
(0.995372 0.0102873 0)
(1.00708 0.0114966 0)
(1.01207 0.0154141 0)
(1.01807 0.0157746 0)
(1.02329 0.00443026 0)
(1.01904 -0.000903322 0)
(1.01337 -0.0109152 0)
(1.00572 -0.014069 0)
(1.00255 -0.0148892 0)
(0.99317 -0.0239801 0)
(0.984539 -0.012007 0)
(0.980313 -0.020466 0)
(1.00202 -0.00135281 0)
(0.996319 -0.00158688 0)
(0.99549 -6.67111e-05 0)
(0.998223 0.00635521 0)
(1.00972 -0.000196522 0)
(1.00024 -0.0146135 0)
(0.995993 -0.00796985 0)
(0.980422 -0.012737 0)
(0.990988 0.00983353 0)
(1.00194 0.011215 0)
(1.00809 0.0150645 0)
(1.01533 0.0155081 0)
(1.02107 0.00451037 0)
(1.01774 -0.000826121 0)
(1.01276 -0.0104136 0)
(1.00591 -0.0137807 0)
(1.00296 -0.0145367 0)
(0.994394 -0.0229296 0)
(0.985727 -0.0120461 0)
(0.981627 -0.0186694 0)
(1.00177 -0.0013232 0)
(0.996977 -0.00154214 0)
(0.99534 -8.5082e-05 0)
(0.998475 0.00617046 0)
(1.00975 -0.000225359 0)
(1.00096 -0.0143746 0)
(0.995793 -0.00767617 0)
(0.979978 -0.0125933 0)
(0.987222 0.00940788 0)
(0.997676 0.0109348 0)
(1.00409 0.0146496 0)
(1.01216 0.0151965 0)
(1.01864 0.00453715 0)
(1.0162 -0.000776327 0)
(1.01194 -0.00996099 0)
(1.00577 -0.0134739 0)
(1.00296 -0.0142314 0)
(0.995144 -0.021862 0)
(0.986647 -0.0120438 0)
(0.982794 -0.0169839 0)
(1.00144 -0.00129512 0)
(0.997628 -0.00149966 0)
(0.995304 -9.79548e-05 0)
(0.998694 0.00597624 0)
(1.00947 -0.000256869 0)
(1.00122 -0.0141217 0)
(0.995275 -0.00737557 0)
(0.981075 -0.0123805 0)
(0.984426 0.00903159 0)
(0.994771 0.0106632 0)
(1.0009 0.0141939 0)
(1.00923 0.0148486 0)
(1.01648 0.00450551 0)
(1.0147 -0.00074325 0)
(1.0111 -0.00956058 0)
(1.00549 -0.0131518 0)
(1.00269 -0.013949 0)
(0.995524 -0.0207986 0)
(0.987311 -0.0119895 0)
(0.983752 -0.0154541 0)
(1.00114 -0.00126805 0)
(0.998188 -0.00146086 0)
(0.99533 -0.000104952 0)
(0.998851 0.00577667 0)
(1.00906 -0.000285403 0)
(1.00123 -0.0138525 0)
(0.994615 -0.00709114 0)
(0.982797 -0.012116 0)
(0.982673 0.00870453 0)
(0.993157 0.0104007 0)
(0.998809 0.0137177 0)
(1.00689 0.0144769 0)
(1.01478 0.00442312 0)
(1.01341 -0.000725779 0)
(1.01033 -0.0092026 0)
(1.00517 -0.0128098 0)
(1.00228 -0.0136705 0)
(0.995668 -0.0197667 0)
(0.987782 -0.0118667 0)
(0.984494 -0.0140895 0)
(1.0009 -0.00124139 0)
(0.998608 -0.00142621 0)
(0.995392 -0.000105573 0)
(0.998943 0.00557332 0)
(1.00864 -0.000308822 0)
(1.00115 -0.013567 0)
(0.994006 -0.00682924 0)
(0.984484 -0.0118179 0)
(0.981811 0.00841002 0)
(0.992457 0.0101481 0)
(0.99769 0.0132318 0)
(1.00521 0.0140926 0)
(1.01353 0.00429566 0)
(1.01238 -0.000713911 0)
(1.00964 -0.00888294 0)
(1.00488 -0.0124434 0)
(1.00185 -0.0133735 0)
(0.995704 -0.0187886 0)
(0.98815 -0.0116747 0)
(0.985057 -0.012876 0)
(1.00074 -0.00121424 0)
(0.998881 -0.00139586 0)
(0.995479 -0.000100026 0)
(0.998983 0.00536606 0)
(1.00825 -0.000326888 0)
(1.00105 -0.0132662 0)
(0.993567 -0.00658907 0)
(0.985816 -0.0114961 0)
(0.981596 0.0081328 0)
(0.992276 0.0099041 0)
(0.997251 0.0127382 0)
(1.00409 0.0137111 0)
(1.01265 0.00413001 0)
(1.01162 -0.000695455 0)
(1.00904 -0.00858726 0)
(1.00465 -0.0120671 0)
(1.00145 -0.0130349 0)
(0.995714 -0.017868 0)
(0.988488 -0.0114241 0)
(0.985507 -0.0117976 0)
(1.00064 -0.00118566 0)
(0.999031 -0.00136978 0)
(0.99558 -8.90529e-05 0)
(0.998991 0.00515456 0)
(1.00789 -0.000340399 0)
(1.00096 -0.0129532 0)
(0.993327 -0.00636479 0)
(0.986745 -0.0111562 0)
(0.981788 0.0078564 0)
(0.992341 0.0096679 0)
(0.997201 0.012233 0)
(1.00341 0.0133414 0)
(1.012 0.00393964 0)
(1.01103 -0.000671644 0)
(1.00851 -0.00829442 0)
(1.00445 -0.0116961 0)
(1.00111 -0.012641 0)
(0.995741 -0.0169996 0)
(0.988841 -0.0111298 0)
(0.985902 -0.0108266 0)
(1.00058 -0.00115497 0)
(0.9991 -0.00134809 0)
(0.995687 -7.29685e-05 0)
(0.998982 0.00493821 0)
(1.00754 -0.000349684 0)
(1.00087 -0.0126312 0)
(0.99325 -0.0061502 0)
(0.98737 -0.0108 0)
(0.982202 0.00756754 0)
(0.992503 0.00944298 0)
(0.99733 0.0117119 0)
(1.00301 0.01298 0)
(1.01148 0.00373195 0)
(1.01055 -0.000644829 0)
(1.00803 -0.00799318 0)
(1.00428 -0.0113375 0)
(1.00082 -0.0121881 0)
(0.995791 -0.016168 0)
(0.989226 -0.0108181 0)
(0.986284 -0.00993483 0)
(1.00055 -0.00112158 0)
(0.999126 -0.00133105 0)
(0.995795 -5.2508e-05 0)
(0.998968 0.00471725 0)
(1.00721 -0.00035581 0)
(1.0008 -0.0123017 0)
(0.993278 -0.00594046 0)
(0.987824 -0.0104301 0)
(0.982715 0.00725953 0)
(0.992686 0.00923255 0)
(0.997512 0.0111732 0)
(1.00274 0.0126247 0)
(1.01101 0.00351731 0)
(1.0101 -0.000618842 0)
(1.00757 -0.00766919 0)
(1.0041 -0.011002 0)
(1.00058 -0.0116837 0)
(0.995858 -0.0153609 0)
(0.989639 -0.0105 0)
(0.986671 -0.00910085 0)
(1.00053 -0.00108541 0)
(0.999137 -0.00131808 0)
(0.995902 -2.74883e-05 0)
(0.998954 0.00449124 0)
(1.00688 -0.000358213 0)
(1.00072 -0.0119667 0)
(0.993357 -0.00573488 0)
(0.988209 -0.010044 0)
(0.98326 0.00692688 0)
(0.992853 0.00903595 0)
(0.997687 0.0106193 0)
(1.00252 0.0122728 0)
(1.01055 0.00330613 0)
(1.00967 -0.00060511 0)
(1.00712 -0.00730913 0)
(1.00392 -0.0106988 0)
(1.00037 -0.0111476 0)
(0.995929 -0.0145552 0)
(0.990075 -0.0101978 0)
(0.987069 -0.00831359 0)
(1.0005 -0.00104624 0)
(0.999145 -0.00130953 0)
(0.996008 2.46863e-06 0)
(0.998942 0.00426026 0)
(1.00655 -0.000357299 0)
(1.00064 -0.0116258 0)
(0.993453 -0.00553478 0)
(0.988583 -0.00964182 0)
(0.983813 0.00656844 0)
(0.99299 0.0088506 0)
(0.997835 0.0100508 0)
(1.00231 0.0119187 0)
(1.01008 0.0031072 0)
(1.00923 -0.000616352 0)
(1.00667 -0.00690477 0)
(1.00373 -0.0104176 0)
(1.00018 -0.01061 0)
(0.995996 -0.0137232 0)
(0.990525 -0.0099316 0)
(0.987481 -0.00758673 0)
(1.00048 -0.00100383 0)
(0.999157 -0.00130615 0)
(0.996113 3.67219e-05 0)
(0.998933 0.00402597 0)
(1.00623 -0.000354765 0)
(1.00056 -0.0112783 0)
(0.993552 -0.00534034 0)
(0.988966 -0.00922146 0)
(0.984369 0.00618747 0)
(0.993095 0.00867491 0)
(0.997957 0.00947165 0)
(1.0021 0.0115573 0)
(1.00961 0.00293287 0)
(1.00881 -0.000649554 0)
(1.00622 -0.00646671 0)
(1.00354 -0.0101334 0)
(1.00002 -0.0100902 0)
(0.99605 -0.0128605 0)
(0.99098 -0.00968693 0)
(0.987909 -0.00693433 0)
(1.00046 -0.000958428 0)
(0.999173 -0.0013075 0)
(0.996218 7.48563e-05 0)
(0.998926 0.00378919 0)
(1.00591 -0.000349422 0)
(1.00048 -0.0109244 0)
(0.993649 -0.00515353 0)
(0.989361 -0.00878209 0)
(0.984933 0.00578848 0)
(0.993178 0.00850683 0)
(0.998061 0.0088896 0)
(1.00188 0.0111788 0)
(1.00912 0.00277992 0)
(1.00839 -0.000715412 0)
(1.00577 -0.0060007 0)
(1.00334 -0.00983266 0)
(0.999888 -0.00960284 0)
(0.996094 -0.0119722 0)
(0.991435 -0.00943577 0)
(0.988357 -0.00637154 0)
(1.00043 -0.000909897 0)
(0.999193 -0.00131379 0)
(0.996322 0.000117291 0)
(0.998921 0.00354942 0)
(1.00559 -0.000343381 0)
(1.0004 -0.0105603 0)
(0.993745 -0.00498008 0)
(0.98976 -0.00832463 0)
(0.985506 0.00537513 0)
(0.993251 0.00834456 0)
(0.998152 0.00831066 0)
(1.00167 0.0107785 0)
(1.00862 0.00265892 0)
(1.00799 -0.000814997 0)
(1.00532 -0.00551168 0)
(1.00314 -0.00950609 0)
(0.999789 -0.00916071 0)
(0.99613 -0.0110609 0)
(0.991882 -0.00915951 0)
(0.988829 -0.0059228 0)
(1.00041 -0.000858232 0)
(0.999216 -0.00132496 0)
(0.996426 0.000162862 0)
(0.998915 0.00330981 0)
(1.00528 -0.000337586 0)
(1.00033 -0.0101854 0)
(0.993845 -0.00482016 0)
(0.990159 -0.00785102 0)
(0.986089 0.00494938 0)
(0.993322 0.00818662 0)
(0.998238 0.00774309 0)
(1.00145 0.0103464 0)
(1.00811 0.00258224 0)
(1.00761 -0.00093657 0)
(1.00488 -0.00502492 0)
(1.00294 -0.00912781 0)
(0.999726 -0.008773 0)
(0.996163 -0.0101562 0)
(0.992312 -0.00883021 0)
(0.989326 -0.00558533 0)
(1.00038 -0.000803743 0)
(0.999244 -0.00134035 0)
(0.99653 0.000210838 0)
(0.998909 0.00307167 0)
(1.00497 -0.000334696 0)
(1.00026 -0.00979694 0)
(0.99395 -0.00467658 0)
(0.99055 -0.00736503 0)
(0.986679 0.00451759 0)
(0.993401 0.00802188 0)
(0.998319 0.00719577 0)
(1.00124 0.00987487 0)
(1.00759 0.00254135 0)
(1.00723 -0.00107412 0)
(1.00445 -0.00454934 0)
(1.00273 -0.00869291 0)
(0.999698 -0.00843322 0)
(0.996202 -0.00928582 0)
(0.992718 -0.00843041 0)
(0.989848 -0.00534475 0)
(1.00035 -0.000746387 0)
(0.999274 -0.00136006 0)
(0.996634 0.000261497 0)
(0.998903 0.0028349 0)
(1.00466 -0.000336688 0)
(1.00019 -0.00939418 0)
(0.994065 -0.00455021 0)
(0.990934 -0.00686935 0)
(0.987273 0.00408659 0)
(0.993491 0.00784013 0)
(0.998396 0.00667753 0)
(1.00104 0.00936779 0)
(1.00706 0.0025338 0)
(1.00686 -0.00121305 0)
(1.00402 -0.00409941 0)
(1.0025 -0.00820479 0)
(0.999704 -0.00813077 0)
(0.996254 -0.00846179 0)
(0.99309 -0.00795272 0)
(0.990389 -0.00518632 0)
(1.00032 -0.000686368 0)
(0.999309 -0.00138348 0)
(0.996741 0.000310719 0)
(0.998895 0.002606 0)
(1.00435 -0.000343602 0)
(1.00012 -0.00897809 0)
(0.99419 -0.00443762 0)
(0.991308 -0.00637192 0)
(0.987871 0.0036611 0)
(0.993594 0.00764015 0)
(0.99847 0.00619849 0)
(1.00085 0.00883481 0)
(1.00652 0.0025475 0)
(1.0065 -0.00134412 0)
(1.00361 -0.00368859 0)
(1.00226 -0.00766142 0)
(0.999736 -0.00784956 0)
(0.99633 -0.00771352 0)
(0.993422 -0.00739453 0)
(0.990939 -0.00506586 0)
(1.00029 -0.000624155 0)
(0.999346 -0.00140979 0)
(0.996849 0.000358243 0)
(0.998888 0.00238592 0)
(1.00405 -0.000360258 0)
(1.00006 -0.00854395 0)
(0.994327 -0.00433702 0)
(0.991673 -0.00587926 0)
(0.988471 0.00325322 0)
(0.993711 0.00741447 0)
(0.998538 0.00576501 0)
(1.00067 0.0082766 0)
(1.00597 0.00257788 0)
(1.00614 -0.0014541 0)
(1.00323 -0.00332822 0)
(1.002 -0.00706585 0)
(0.999785 -0.00756544 0)
(0.996437 -0.0070628 0)
(0.993715 -0.00677762 0)
(0.991479 -0.00493276 0)
(1.00026 -0.000559667 0)
(0.999386 -0.00143876 0)
(0.99696 0.000402989 0)
(0.998882 0.00217814 0)
(1.00375 -0.000388668 0)
(0.999998 -0.00809527 0)
(0.994475 -0.00424371 0)
(0.992031 -0.00539367 0)
(0.98907 0.00286574 0)
(0.993841 0.00715773 0)
(0.998597 0.00536883 0)
(1.0005 0.00769866 0)
(1.00543 0.00261742 0)
(1.00579 -0.00153566 0)
(1.00287 -0.00302021 0)
(1.00171 -0.00643875 0)
(0.999838 -0.00725932 0)
(0.996581 -0.00651074 0)
(0.993975 -0.00613038 0)
(0.991993 -0.00474479 0)
(1.00023 -0.000493916 0)
(0.999429 -0.00146877 0)
(0.997072 0.000440999 0)
(0.998876 0.0019882 0)
(1.00346 -0.000429021 0)
(0.999934 -0.00763607 0)
(0.994632 -0.00415443 0)
(0.992384 -0.00492337 0)
(0.989664 0.00250705 0)
(0.993984 0.00686636 0)
(0.998648 0.0050162 0)
(1.00036 0.00711303 0)
(1.00489 0.00264806 0)
(1.00544 -0.00158869 0)
(1.00255 -0.00276022 0)
(1.00142 -0.00579708 0)
(0.999885 -0.00691483 0)
(0.996763 -0.00605165 0)
(0.994216 -0.00548956 0)
(0.992461 -0.00447152 0)
(1.0002 -0.000426906 0)
(0.999475 -0.0014992 0)
(0.997188 0.000470121 0)
(0.99887 0.00181489 0)
(1.00318 -0.000480331 0)
(0.999869 -0.00717037 0)
(0.994798 -0.00406716 0)
(0.992733 -0.00447891 0)
(0.990252 0.00218423 0)
(0.994139 0.00654223 0)
(0.998691 0.00470496 0)
(1.00024 0.00652831 0)
(1.00436 0.00266865 0)
(1.00509 -0.00160473 0)
(1.00227 -0.00254919 0)
(1.00112 -0.00515409 0)
(0.999914 -0.00652481 0)
(0.996981 -0.00566995 0)
(0.994455 -0.00489583 0)
(0.992873 -0.00410762 0)
(1.00018 -0.000359095 0)
(0.999524 -0.00152905 0)
(0.997306 0.000487584 0)
(0.998864 0.00166386 0)
(1.00291 -0.000540505 0)
(0.999806 -0.00670278 0)
(0.994972 -0.00397296 0)
(0.993079 -0.00406415 0)
(0.990831 0.00189163 0)
(0.994305 0.00619488 0)
(0.998725 0.00441829 0)
(1.00013 0.00596131 0)
(1.00385 0.00267978 0)
(1.00475 -0.00157844 0)
(1.00203 -0.00238886 0)
(1.00082 -0.00453183 0)
(0.999917 -0.00607955 0)
(0.997226 -0.00533772 0)
(0.994708 -0.00438051 0)
(0.993231 -0.00367479 0)
(1.00015 -0.000291733 0)
(0.999576 -0.00155543 0)
(0.997428 0.000491405 0)
(0.998858 0.00153786 0)
(1.00265 -0.000608885 0)
(0.999745 -0.00623775 0)
(0.995152 -0.00386343 0)
(0.993422 -0.00368709 0)
(0.991399 0.00163463 0)
(0.994481 0.00582879 0)
(0.998751 0.00415291 0)
(1.00004 0.00541464 0)
(1.00335 0.00267532 0)
(1.0044 -0.00151291 0)
(1.00184 -0.00227304 0)
(1.00054 -0.00394565 0)
(0.999889 -0.00558468 0)
(0.997484 -0.00503038 0)
(0.994989 -0.00395046 0)
(0.993551 -0.00321947 0)
(1.00012 -0.00022541 0)
(0.999631 -0.00157693 0)
(0.997554 0.000480548 0)
(0.99885 0.00143211 0)
(1.0024 -0.000681326 0)
(0.999688 -0.00578459 0)
(0.995336 -0.0037384 0)
(0.993764 -0.00334898 0)
(0.991955 0.00141025 0)
(0.994664 0.00545253 0)
(0.99877 0.00390192 0)
(0.999971 0.0048901 0)
(1.00288 0.00265391 0)
(1.00405 -0.00140662 0)
(1.00168 -0.0021809 0)
(1.00028 -0.00341043 0)
(0.999829 -0.00505947 0)
(0.997742 -0.00472695 0)
(0.995301 -0.0035893 0)
(0.993849 -0.00278991 0)
(1.0001 -0.000160667 0)
(0.999687 -0.00159186 0)
(0.997686 0.000453301 0)
(0.998841 0.00134698 0)
(1.00217 -0.000752246 0)
(0.999636 -0.00534703 0)
(0.995524 -0.00359388 0)
(0.994103 -0.00304421 0)
(0.992499 0.00120946 0)
(0.994856 0.00507554 0)
(0.998781 0.0036647 0)
(0.999919 0.0043886 0)
(1.00244 0.0026152 0)
(1.00368 -0.00126092 0)
(1.00155 -0.00210917 0)
(1.00005 -0.00293529 0)
(0.999741 -0.00451673 0)
(0.997988 -0.00440684 0)
(0.995641 -0.00328111 0)
(0.994149 -0.0024103 0)
(1.00007 -9.8558e-05 0)
(0.999745 -0.00159822 0)
(0.997825 0.000409077 0)
(0.998832 0.00128092 0)
(1.00195 -0.000820721 0)
(0.99959 -0.00492933 0)
(0.995713 -0.00342985 0)
(0.994439 -0.00276963 0)
(0.993031 0.00103261 0)
(0.995055 0.00470094 0)
(0.998784 0.00343606 0)
(0.999882 0.00391718 0)
(1.00203 0.00255642 0)
(1.00331 -0.00107835 0)
(1.00145 -0.00204668 0)
(0.999871 -0.00253124 0)
(0.999633 -0.00396023 0)
(0.99821 -0.00406774 0)
(0.995999 -0.00301197 0)
(0.994462 -0.00208382 0)
(1.00005 -4.01998e-05 0)
(0.999803 -0.00159425 0)
(0.99797 0.000350797 0)
(0.998822 0.00122619 0)
(1.00174 -0.000880152 0)
(0.999552 -0.00453527 0)
(0.995903 -0.00324612 0)
(0.994771 -0.00252495 0)
(0.993549 0.000870251 0)
(0.995262 0.00433513 0)
(0.998781 0.00321535 0)
(0.999861 0.0034758 0)
(1.00166 0.0024718 0)
(1.00294 -0.000866854 0)
(1.00136 -0.00197713 0)
(0.999734 -0.00220048 0)
(0.999513 -0.00340621 0)
(0.9984 -0.00371052 0)
(0.996367 -0.00276867 0)
(0.994794 -0.0018013 0)
(1.00003 1.35902e-05 0)
(0.999861 -0.00157891 0)
(0.998121 0.000278231 0)
(0.998815 0.00118226 0)
(1.00154 -0.000929423 0)
(0.999523 -0.00416645 0)
(0.996093 -0.00304316 0)
(0.995096 -0.00230536 0)
(0.994055 0.000717556 0)
(0.995475 0.00398636 0)
(0.998771 0.00301322 0)
(0.999852 0.00305703 0)
(1.00133 0.00236165 0)
(1.00257 -0.000635684 0)
(1.00128 -0.00188489 0)
(0.999646 -0.00193547 0)
(0.999392 -0.00288653 0)
(0.998552 -0.00332716 0)
(0.996736 -0.00253864 0)
(0.995149 -0.00155828 0)
(1.00001 6.23414e-05 0)
(0.999917 -0.00154893 0)
(0.99828 0.000192352 0)
(0.998809 0.00114251 0)
(1.00135 -0.000965718 0)
(0.999505 -0.0038252 0)
(0.996282 -0.0028235 0)
(0.995412 -0.00210091 0)
(0.994548 0.000575314 0)
(0.995698 0.00365393 0)
(0.998755 0.00283177 0)
(0.999852 0.0026723 0)
(1.00105 0.00222733 0)
(1.00219 -0.000394669 0)
(1.00119 -0.00175738 0)
(0.999603 -0.00173358 0)
(0.999285 -0.00241741 0)
(0.998668 -0.00291892 0)
(0.997092 -0.00231467 0)
(0.995523 -0.00135524 0)
(0.999993 0.000105386 0)
(0.999971 -0.0015025 0)
(0.998444 9.36685e-05 0)
(0.998807 0.00110324 0)
(1.00117 -0.000983693 0)
(0.999499 -0.00351609 0)
(0.99647 -0.00258998 0)
(0.995716 -0.0019091 0)
(0.995026 0.000437241 0)
(0.99593 0.00333128 0)
(0.998733 0.00266961 0)
(0.999857 0.00232774 0)
(1.00082 0.00206389 0)
(1.00184 -0.000164022 0)
(1.0011 -0.00159425 0)
(0.999598 -0.00157417 0)
(0.999203 -0.00200576 0)
(0.998752 -0.00250179 0)
(0.997424 -0.00208155 0)
(0.995914 -0.00118829 0)
(0.999978 0.000141733 0)
(1.00002 -0.00143928 0)
(0.998614 -1.49665e-05 0)
(0.99881 0.00106304 0)
(1.001 -0.000984888 0)
(0.999505 -0.00323729 0)
(0.996659 -0.00234822 0)
(0.996006 -0.0017215 0)
(0.995489 0.000301736 0)
(0.996174 0.00301503 0)
(0.998709 0.00252537 0)
(0.999861 0.00202631 0)
(1.00064 0.00187111 0)
(1.0015 3.54866e-05 0)
(1.00099 -0.00139498 0)
(0.999621 -0.00143419 0)
(0.999154 -0.0016569 0)
(0.998812 -0.00209668 0)
(0.997722 -0.00182914 0)
(0.996313 -0.00104703 0)
(0.999965 0.000170012 0)
(1.00007 -0.00135593 0)
(0.998786 -0.000135092 0)
(0.998819 0.00101698 0)
(1.00084 -0.000965356 0)
(0.999523 -0.00298994 0)
(0.996849 -0.0021048 0)
(0.996279 -0.00152865 0)
(0.995933 0.00017626 0)
(0.99643 0.00270344 0)
(0.998685 0.00239969 0)
(0.999859 0.00177806 0)
(1.00051 0.0016625 0)
(1.0012 0.000197425 0)
(1.00087 -0.0011706 0)
(0.999661 -0.00129819 0)
(0.999142 -0.00137185 0)
(0.99886 -0.00171918 0)
(0.997982 -0.00155462 0)
(0.996705 -0.000910244 0)
(0.999955 0.000190321 0)
(1.0001 -0.00125647 0)
(0.99896 -0.000260684 0)
(0.998836 0.000962781 0)
(1.00069 -0.00092259 0)
(0.999553 -0.00277608 0)
(0.997043 -0.00186712 0)
(0.996533 -0.00132341 0)
(0.996355 6.887e-05 0)
(0.9967 0.00239319 0)
(0.998668 0.00228254 0)
(0.999846 0.0015816 0)
(1.0004 0.00145457 0)
(1.00093 0.000324934 0)
(1.00074 -0.000932656 0)
(0.999707 -0.00115258 0)
(0.999164 -0.00113686 0)
(0.998912 -0.00138439 0)
(0.998206 -0.00127294 0)
(0.997074 -0.000758729 0)
(0.999948 0.000202293 0)
(1.00014 -0.00114131 0)
(0.999134 -0.000388819 0)
(0.998863 0.000897317 0)
(1.00054 -0.000855088 0)
(0.999592 -0.00258923 0)
(0.997244 -0.00164902 0)
(0.996769 -0.00110483 0)
(0.996748 -9.36132e-06 0)
(0.996981 0.00208285 0)
(0.998662 0.00215993 0)
(0.999822 0.00143143 0)
(1.00034 0.00125481 0)
(1.00072 0.000408897 0)
(1.00061 -0.000698311 0)
(0.999752 -0.000994917 0)
(0.999214 -0.000934249 0)
(0.998975 -0.00109408 0)
(0.998407 -0.00100791 0)
(0.997408 -0.000583414 0)
(0.999943 0.000205249 0)
(1.00016 -0.00101401 0)
(0.999303 -0.000511625 0)
(0.998902 0.000818885 0)
(1.0004 -0.00076764 0)
(0.999638 -0.00242334 0)
(0.997455 -0.00145757 0)
(0.99699 -0.000879804 0)
(0.997109 -5.39876e-05 0)
(0.997269 0.00177952 0)
(0.998674 0.00202655 0)
(0.999788 0.00132901 0)
(1.00029 0.00108063 0)
(1.00055 0.000449814 0)
(1.00048 -0.000484433 0)
(0.999792 -0.000829012 0)
(0.999286 -0.000752156 0)
(0.999051 -0.000836191 0)
(0.998596 -0.000772258 0)
(0.997709 -0.000391481 0)
(0.99994 0.000200989 0)
(1.00017 -0.000881725 0)
(0.999465 -0.000621458 0)
(0.998955 0.000728516 0)
(1.00026 -0.000661896 0)
(0.999688 -0.00226994 0)
(0.997677 -0.00130208 0)
(0.997198 -0.000654144 0)
(0.997433 -5.90587e-05 0)
(0.99756 0.00149525 0)
(0.99871 0.00187802 0)
(0.999749 0.0012572 0)
(1.00025 0.00094136 0)
(1.00042 0.000460392 0)
(1.00037 -0.000294074 0)
(0.999828 -0.000658049 0)
(0.999375 -0.000590234 0)
(0.999137 -0.000606338 0)
(0.998781 -0.000569414 0)
(0.997984 -0.000207209 0)
(0.99994 0.000189547 0)
(1.00017 -0.000745698 0)
(0.999618 -0.000715035 0)
(0.999021 0.000622238 0)
(1.00014 -0.000539773 0)
(0.999736 -0.00211715 0)
(0.997913 -0.00119227 0)
(0.997401 -0.000442899 0)
(0.99772 -2.04437e-05 0)
(0.997845 0.0012461 0)
(0.998772 0.00171307 0)
(0.999711 0.00119967 0)
(1.00022 0.000835655 0)
(1.00033 0.000451234 0)
(1.00028 -0.000131406 0)
(0.999858 -0.000484847 0)
(0.999476 -0.000448142 0)
(0.999233 -0.000401744 0)
(0.998961 -0.000385851 0)
(0.998248 -5.60655e-05 0)
(0.999942 0.000172154 0)
(1.00017 -0.000610767 0)
(0.999758 -0.000784989 0)
(0.999102 0.000496771 0)
(1.00002 -0.000406235 0)
(0.999777 -0.00195463 0)
(0.998158 -0.00112347 0)
(0.997606 -0.000257295 0)
(0.99797 5.52987e-05 0)
(0.998115 0.00103956 0)
(0.998855 0.00153528 0)
(0.999681 0.00114787 0)
(1.00019 0.000765432 0)
(1.00027 0.000436079 0)
(1.00022 -2.04927e-06 0)
(0.999884 -0.00031466 0)
(0.999583 -0.000315206 0)
(0.999341 -0.000224359 0)
(0.999132 -0.000209854 0)
(0.998511 5.78646e-05 0)
(0.999946 0.000150973 0)
(1.00015 -0.00048177 0)
(0.999881 -0.000827012 0)
(0.999196 0.00035484 0)
(0.999908 -0.000270931 0)
(0.999805 -0.00176369 0)
(0.99841 -0.00109214 0)
(0.997818 -0.000114849 0)
(0.998187 0.000159968 0)
(0.998363 0.000883741 0)
(0.998958 0.00135948 0)
(0.999664 0.00109102 0)
(1.00017 0.000723384 0)
(1.00024 0.000424691 0)
(1.00018 9.80452e-05 0)
(0.999912 -0.000156448 0)
(0.999692 -0.000187189 0)
(0.99946 -7.94978e-05 0)
(0.99929 -3.96837e-05 0)
(0.998771 0.000149242 0)
(0.999951 0.00012793 0)
(1.00013 -0.000362341 0)
(0.999986 -0.000838943 0)
(0.999301 0.000205472 0)
(0.999818 -0.000153952 0)
(0.999816 -0.00153134 0)
(0.998659 -0.00107531 0)
(0.998045 -3.20534e-05 0)
(0.998381 0.000268883 0)
(0.998584 0.000784241 0)
(0.999073 0.00119696 0)
(0.999662 0.00102572 0)
(1.00015 0.000696391 0)
(1.00022 0.000422629 0)
(1.00017 0.000179703 0)
(0.999945 -1.63291e-05 0)
(0.999797 -6.25609e-05 0)
(0.999593 3.66854e-05 0)
(0.99944 0.000121542 0)
(0.999016 0.000242665 0)
(0.999958 0.000104982 0)
(1.00011 -0.000257307 0)
(1.00007 -0.000817822 0)
(0.999414 5.24947e-05 0)
(0.999751 -6.45148e-05 0)
(0.999811 -0.00127742 0)
(0.998892 -0.00103618 0)
(0.998285 -1.23236e-05 0)
(0.998561 0.000359624 0)
(0.998776 0.000729647 0)
(0.99919 0.00105899 0)
(0.999677 0.000958414 0)
(1.00014 0.000677614 0)
(1.00022 0.000426318 0)
(1.00018 0.000243327 0)
(0.999987 0.000105561 0)
(0.999898 5.96987e-05 0)
(0.999736 0.000132967 0)
(0.999589 0.000254826 0)
(0.999234 0.000348034 0)
(0.999964 8.49051e-05 0)
(1.00008 -0.000171946 0)
(1.00013 -0.000762819 0)
(0.99953 -9.60699e-05 0)
(0.99971 -1.06109e-05 0)
(0.999795 -0.00102158 0)
(0.9991 -0.000958343 0)
(0.998533 -4.05939e-05 0)
(0.998739 0.000412635 0)
(0.998945 0.000705525 0)
(0.999304 0.000954026 0)
(0.999705 0.000894292 0)
(1.00014 0.000664391 0)
(1.00023 0.000438188 0)
(1.00022 0.000294389 0)
(1.00004 0.000206896 0)
(0.999992 0.000179628 0)
(0.999879 0.000220067 0)
(0.999748 0.000349481 0)
(0.999424 0.00046103 0)
(0.999972 6.88882e-05 0)
(1.00005 -0.000107214 0)
(1.00017 -0.000683306 0)
(0.999642 -0.000223396 0)
(0.999698 1.06468e-05 0)
(0.999775 -0.000780222 0)
(0.999276 -0.0008354 0)
(0.998777 -7.94032e-05 0)
(0.998923 0.000414253 0)
(0.999097 0.000689832 0)
(0.999411 0.000879933 0)
(0.999744 0.00083844 0)
(1.00014 0.000655476 0)
(1.00025 0.000457064 0)
(1.00026 0.000339422 0)
(1.00011 0.000285518 0)
(1.00008 0.000286457 0)
(1.00001 0.000310516 0)
(0.999918 0.000413494 0)
(0.999599 0.000561237 0)
(0.999978 5.74702e-05 0)
(1.00003 -6.05484e-05 0)
(1.0002 -0.000591054 0)
(0.999748 -0.000317263 0)
(0.999712 2.35991e-06 0)
(0.999761 -0.000566547 0)
(0.999422 -0.000685921 0)
(0.999005 -9.92559e-05 0)
(0.99911 0.000383307 0)
(0.999245 0.000663051 0)
(0.999512 0.000827466 0)
(0.999788 0.000795621 0)
(1.00016 0.000648311 0)
(1.00027 0.000477084 0)
(1.00031 0.000381717 0)
(1.00019 0.000348325 0)
(1.00018 0.000368849 0)
(1.00013 0.000404648 0)
(1.00009 0.000463545 0)
(0.999777 0.000626102 0)
(0.999985 5.11796e-05 0)
(1.00001 -3.04576e-05 0)
(1.00021 -0.000495047 0)
(0.999841 -0.000369876 0)
(0.999749 -3.12914e-05 0)
(0.999757 -0.000387616 0)
(0.999541 -0.000529896 0)
(0.999211 -9.1136e-05 0)
(0.999296 0.000342245 0)
(0.999392 0.000619001 0)
(0.999612 0.000781283 0)
(0.999836 0.000767338 0)
(1.00018 0.000646861 0)
(1.0003 0.000499343 0)
(1.00037 0.000421546 0)
(1.00028 0.000403111 0)
(1.00029 0.000429655 0)
(1.00025 0.00048763 0)
(1.00025 0.00051923 0)
(0.999964 0.000657389 0)
(0.999991 4.94158e-05 0)
(0.999993 -1.34852e-05 0)
(1.00021 -0.000400814 0)
(0.99992 -0.000383358 0)
(0.999803 -7.2741e-05 0)
(0.999769 -0.000251194 0)
(0.99964 -0.00037574 0)
(0.999391 -5.55184e-05 0)
(0.999473 0.000305026 0)
(0.99954 0.000565405 0)
(0.999716 0.00073201 0)
(0.999891 0.000743199 0)
(1.0002 0.000651188 0)
(1.00033 0.000524062 0)
(1.00043 0.000454754 0)
(1.00036 0.000453308 0)
(1.0004 0.000477819 0)
(1.00036 0.000546666 0)
(1.00038 0.000584033 0)
(1.00015 0.000671782 0)
(0.999997 5.16575e-05 0)
(0.999982 -5.24108e-06 0)
(1.0002 -0.000315306 0)
(0.999984 -0.00036431 0)
(0.999868 -0.000108657 0)
(0.999798 -0.000152434 0)
(0.999728 -0.000234825 0)
(0.999547 -4.97607e-06 0)
(0.999635 0.000283571 0)
(0.999685 0.000511295 0)
(0.999825 0.000679482 0)
(0.999954 0.000716657 0)
(1.00023 0.00065586 0)
(1.00037 0.000552943 0)
(1.00049 0.000485918 0)
(1.00045 0.000494114 0)
(1.00052 0.000520938 0)
(1.00049 0.000582256 0)
(1.00051 0.000642666 0)
(1.00033 0.000688205 0)
(1 5.66991e-05 0)
(0.999975 -1.65858e-06 0)
(1.0002 -0.000241105 0)
(1.00003 -0.00032235 0)
(0.999936 -0.000130247 0)
(0.999843 -8.47152e-05 0)
(0.999808 -0.000111421 0)
(0.999682 5.47585e-05 0)
(0.999781 0.000278658 0)
(0.999824 0.000464732 0)
(0.99994 0.000627276 0)
(1.00003 0.000687532 0)
(1.00028 0.000656341 0)
(1.0004 0.000581413 0)
(1.00055 0.000519378 0)
(1.00054 0.000523146 0)
(1.00062 0.000558296 0)
(1.00061 0.000605613 0)
(1.00063 0.000679974 0)
(1.00048 0.000717431 0)
(1.00001 6.3263e-05 0)
(0.999973 1.68499e-06 0)
(1.00019 -0.00018046 0)
(1.00007 -0.000267665 0)
(1 -0.000132584 0)
(0.999902 -3.99799e-05 0)
(0.999887 -1.2138e-05 0)
(0.999799 0.000120072 0)
(0.99991 0.000288544 0)
(0.999953 0.000432958 0)
(1.00006 0.000578017 0)
(1.00011 0.00065537 0)
(1.00033 0.000651066 0)
(1.00044 0.000603688 0)
(1.00061 0.000554184 0)
(1.00063 0.000550234 0)
(1.00073 0.000585202 0)
(1.00073 0.000626167 0)
(1.00075 0.00069303 0)
(1.00061 0.000749066 0)
(1.00001 7.03336e-05 0)
(0.999974 6.25734e-06 0)
(1.00019 -0.000131972 0)
(1.0001 -0.000207939 0)
(1.00007 -0.00011522 0)
(0.99997 -7.32006e-06 0)