/*--------------------------------*- C++ -*----------------------------------*\
| =========                 |                                                 |
| \\      /  F ield         | OpenFOAM: The Open Source CFD Toolbox           |
|  \\    /   O peration     | Version:  v1912                                 |
|   \\  /    A nd           | Website:  www.openfoam.com                      |
|    \\/     M anipulation  |                                                 |
\*---------------------------------------------------------------------------*/
FoamFile
{
    version     2.0;
    format      ascii;
    class       surfaceScalarField;
    location    "2.3";
    object      phi;
}
// * * * * * * * * * * * * * * * * * * * * * * * * * * * * * * * * * * * * * //

dimensions      [0 3 -1 0 0 0 0];
oriented        oriented;


internalField   nonuniform List<scalar> 
19000
(
1.16414e-06
-3.22265e-07
1.17458e-06
-8.6169e-07
1.19488e-06
5.05333e-07
1.16266e-06
1.67607e-06
1.11569e-06
2.39006e-07
1.13357e-06
-5.23329e-07
1.15247e-06
-1.72434e-06
1.14807e-06
-1.87902e-06
1.19331e-06
-8.75951e-07
1.21047e-06
-3.82416e-07
1.21026e-06
1.17104e-07
1.22434e-06
1.09021e-06
1.21351e-06
7.73e-07
1.1992e-06
3.772e-07
1.2004e-06
3.90301e-07
1.17295e-06
-3.76917e-07
1.19569e-06
1.03692e-07
1.14079e-06
-6.23725e-07
1.1558e-06
-1.38122e-07
-6.26924e-07
1.05812e-06
1.22066e-06
-3.18668e-07
1.23065e-06
-8.71675e-07
1.24706e-06
4.88925e-07
1.22866e-06
1.69447e-06
1.18045e-06
2.87222e-07
1.19165e-06
-5.34535e-07
1.2026e-06
-1.73529e-06
1.19811e-06
-1.87452e-06
1.24633e-06
-9.24175e-07
1.26783e-06
-4.03918e-07
1.26464e-06
1.20299e-07
1.2863e-06
1.06855e-06
1.27022e-06
7.89075e-07
1.26425e-06
3.83172e-07
1.25607e-06
3.98486e-07
1.243e-06
-3.63847e-07
1.24521e-06
1.01478e-07
1.21983e-06
-5.98347e-07
1.20449e-06
-1.22782e-07
-5.7725e-07
1.15482e-06
1.27884e-06
-3.14723e-07
1.2905e-06
-8.83335e-07
1.30091e-06
4.78514e-07
1.29341e-06
1.70197e-06
1.25233e-06
3.28294e-07
1.25433e-06
-5.36534e-07
1.25523e-06
-1.73619e-06
1.25483e-06
-1.87412e-06
1.29982e-06
-9.69166e-07
1.32632e-06
-4.30418e-07
1.32288e-06
1.2374e-07
1.34237e-06
1.04906e-06
1.33335e-06
7.98091e-07
1.32669e-06
3.89834e-07
1.32575e-06
3.99432e-07
1.31069e-06
-3.48786e-07
1.31415e-06
9.8013e-08
1.29177e-06
-5.7597e-07
1.28202e-06
-1.13028e-07
-5.33679e-07
1.23845e-06
1.33874e-06
-3.09364e-07
1.3527e-06
-8.97288e-07
1.3585e-06
4.72715e-07
1.35616e-06
1.7043e-06
1.32791e-06
3.56544e-07
1.32233e-06
-5.30947e-07
1.31202e-06
-1.72588e-06
1.31527e-06
-1.87737e-06
1.35438e-06
-1.00828e-06
1.38326e-06
-4.59298e-07
1.38401e-06
1.22989e-07
1.39891e-06
1.03416e-06
1.39767e-06
7.99334e-07
1.3941e-06
3.93403e-07
1.39474e-06
3.98797e-07
1.37912e-06
-3.33166e-07
1.37866e-06
9.84705e-08
1.35336e-06
-5.50673e-07
1.34599e-06
-1.05648e-07
-4.86463e-07
1.29877e-06
1.4012e-06
-3.02215e-07
1.41614e-06
-9.12228e-07
1.42059e-06
4.68273e-07
1.41993e-06
1.70495e-06
1.40607e-06
3.70407e-07
1.39573e-06
-5.20609e-07
1.37468e-06
-1.70483e-06
1.37825e-06
-1.88094e-06
1.4113e-06
-1.04133e-06
1.43892e-06
-4.86915e-07
1.44549e-06
1.1642e-07
1.46071e-06
1.01894e-06
1.46416e-06
7.95885e-07
1.46446e-06
3.93102e-07
1.46662e-06
3.96637e-07
1.44924e-06
-3.15785e-07
1.4477e-06
1.00009e-07
1.41854e-06
-5.21513e-07
1.41331e-06
-1.00423e-07
-4.37751e-07
1.3646e-06
1.46704e-06
-2.93574e-07
1.48041e-06
-9.25607e-07
1.48568e-06
4.63012e-07
1.4865e-06
1.70413e-06
1.48584e-06
3.71064e-07
1.47381e-06
-5.08578e-07
1.44268e-06
-1.6737e-06
1.44337e-06
-1.88162e-06
1.47183e-06
-1.06979e-06
1.49619e-06
-5.11279e-07
1.50685e-06
1.05756e-07
1.5263e-06
9.9949e-07
1.53357e-06
7.8862e-07
1.53692e-06
3.89754e-07
1.54003e-06
3.9352e-07
1.52102e-06
-2.96771e-07
1.51853e-06
1.025e-07
1.48553e-06
-4.88518e-07
1.48208e-06
-9.69653e-08
-3.88888e-07
1.43321e-06
1.53654e-06
-2.83895e-07
1.54584e-06
-9.34909e-07
1.55236e-06
4.56496e-07
1.55647e-06
1.70001e-06
1.56684e-06
3.60698e-07
1.55549e-06
-4.97228e-07
1.51535e-06
-1.63357e-06
1.51114e-06
-1.87742e-06
1.53669e-06
-1.09534e-06
1.55817e-06
-5.32753e-07
1.57089e-06
9.30286e-08
1.59538e-06
9.75005e-07
1.60638e-06
7.7762e-07
1.61187e-06
3.84266e-07
1.61492e-06
3.90464e-07
1.59393e-06
-2.75774e-07
1.59105e-06
1.05372e-07
1.55482e-06
-4.52285e-07
1.55287e-06
-9.50129e-08
-3.40933e-07
1.50491e-06
1.60965e-06
-2.73421e-07
1.61344e-06
-9.38695e-07
1.62116e-06
4.48775e-07
1.63059e-06
1.69059e-06
1.6493e-06
3.41984e-07
1.63983e-06
-4.87756e-07
1.59241e-06
-1.58615e-06
1.58238e-06
-1.86739e-06
1.60587e-06
-1.11882e-06
1.62631e-06
-5.53198e-07
1.641e-06
7.83404e-08
1.66999e-06
9.46011e-07
1.68365e-06
7.63965e-07
1.68964e-06
3.78272e-07
1.69141e-06
3.88701e-07
1.66784e-06
-2.52207e-07
1.66501e-06
1.08197e-07
1.62648e-06
-4.13755e-07
1.62589e-06
-9.44242e-08
-2.94672e-07
1.57963e-06
1.68641e-06
-2.62261e-07
1.68465e-06
-9.36931e-07
1.69413e-06
4.39296e-07
1.70982e-06
1.6749e-06
1.7335e-06
3.18308e-07
1.72619e-06
-4.8045e-07
1.67394e-06
-1.5339e-06
1.65784e-06
-1.85128e-06
1.6789e-06
-1.13988e-06
1.70017e-06
-5.74463e-07
1.71833e-06
6.01749e-08
1.75125e-06
9.13097e-07
1.76547e-06
7.49746e-07
1.76974e-06
3.74003e-07
1.76918e-06
3.8926e-07
1.7427e-06
-2.2573e-07
1.74036e-06
1.10538e-07
1.70067e-06
-3.74067e-07
1.70143e-06
-9.51786e-08
-2.50717e-07
1.65747e-06
1.76714e-06
-2.50682e-07
1.76076e-06
-9.30553e-07
1.77292e-06
4.27142e-07
1.79455e-06
1.65327e-06
1.81933e-06
2.93522e-07
1.8141e-06
-4.75217e-07
1.76005e-06
-1.47985e-06
1.73809e-06
-1.82932e-06
1.75538e-06
-1.15717e-06
1.77815e-06
-5.97239e-07
1.8012e-06
3.71276e-08
1.83747e-06
8.76828e-07
1.85018e-06
7.37032e-07
1.85091e-06
3.73275e-07
1.84776e-06
3.92413e-07
1.81865e-06
-1.96621e-07
1.81732e-06
1.11861e-07
1.77767e-06
-3.34414e-07
1.77977e-06
-9.72746e-08
-2.09634e-07
1.73868e-06
1.85231e-06
-2.39244e-07
1.84248e-06
-9.20725e-07
1.85758e-06
4.12045e-07
1.88409e-06
1.62676e-06
1.90664e-06
2.70971e-07
1.90331e-06
-4.71894e-07
1.85066e-06
-1.4272e-06
1.82348e-06
-1.80214e-06
1.83509e-06
-1.16878e-06
1.85847e-06
-6.20614e-07
1.88629e-06
9.30591e-09
1.9251e-06
8.38013e-07
1.93528e-06
7.26858e-07
1.93194e-06
3.76613e-07
1.92699e-06
3.97364e-07
1.8962e-06
-1.65834e-07
1.89647e-06
1.11591e-07
1.85794e-06
-2.95887e-07
1.86126e-06
-1.0059e-07
-1.72005e-07
1.82363e-06
1.94225e-06
-2.28654e-07
1.92982e-06
-9.08293e-07
1.94693e-06
3.94927e-07
1.97725e-06
1.59644e-06
1.99568e-06
2.52546e-07
1.994e-06
-4.7022e-07
1.94541e-06
-1.37861e-06
1.91411e-06
-1.77084e-06
1.91824e-06
-1.17291e-06
1.93991e-06
-6.42283e-07
1.97046e-06
-2.1239e-08
2.01065e-06
7.97818e-07
2.01874e-06
7.18768e-07
2.01236e-06
3.8299e-07
2.00735e-06
4.0238e-07
1.97631e-06
-1.34796e-07
1.97863e-06
1.09272e-07
1.94209e-06
-2.59349e-07
1.94628e-06
-1.04773e-07
-1.38386e-07
1.91266e-06
2.03701e-06
-2.19475e-07
2.02241e-06
-8.93691e-07
2.03984e-06
3.7749e-07
2.07328e-06
1.56301e-06
2.08735e-06
2.38476e-07
2.0869e-06
-4.69771e-07
2.04381e-06
-1.33552e-06
2.00975e-06
-1.73678e-06
2.00544e-06
-1.1686e-06
2.02255e-06
-6.59398e-07
2.05233e-06
-5.10145e-08
2.09247e-06
7.57679e-07
2.10021e-06
7.11024e-07
2.09298e-06
3.90215e-07
2.09003e-06
4.05339e-07
2.06025e-06
-1.05016e-07
2.06476e-06
1.04759e-07
2.03078e-06
-2.25369e-07
2.03522e-06
-1.09211e-07
-1.0922e-07
2.00605e-06
2.13645e-06
-2.11926e-07
2.11991e-06
-8.77144e-07
2.13606e-06
3.61337e-07
2.17225e-06
1.52681e-06
2.18285e-06
2.27879e-07
2.18312e-06
-4.70037e-07
2.14554e-06
-1.29794e-06
2.10994e-06
-1.70118e-06
2.09746e-06
-1.15612e-06
2.1078e-06
-6.69732e-07
2.13316e-06
-7.63731e-08
2.1718e-06
7.19032e-07
2.18143e-06
7.014e-07
2.17583e-06
3.95816e-07
2.17669e-06
4.04477e-07
2.14933e-06
-7.76575e-08
2.15579e-06
9.83023e-08
2.12462e-06
-1.94203e-07
2.12851e-06
-1.13099e-07
-8.47432e-08
2.10403e-06
2.24043e-06
-2.05869e-07
2.2222e-06
-8.58909e-07
2.23616e-06
3.47374e-07
2.27484e-06
1.48814e-06
2.28317e-06
2.19542e-07
2.28371e-06
-4.70576e-07
2.25061e-06
-1.26483e-06
2.21426e-06
-1.66484e-06
2.19497e-06
-1.13683e-06
2.19773e-06
-6.72493e-07
2.21629e-06
-9.49334e-08
2.25238e-06
6.82936e-07
2.26564e-06
6.88139e-07
2.26348e-06
3.97982e-07
2.26901e-06
3.98949e-07
2.24466e-06
-5.33086e-08
2.25243e-06
9.05298e-08
2.2241e-06
-1.65875e-07
2.2266e-06
-1.15596e-07
-6.49221e-08
2.20678e-06
2.34895e-06
-2.00943e-07
2.32939e-06
-8.39349e-07
2.34101e-06
3.3575e-07
2.38186e-06
1.44729e-06
2.38895e-06
2.12459e-07
2.38947e-06
-4.71102e-07
2.35939e-06
-1.23475e-06
2.3226e-06
-1.62805e-06
2.29826e-06
-1.11248e-06
2.2941e-06
-6.68332e-07
2.30544e-06
-1.06278e-07
2.33856e-06
6.49812e-07
2.35619e-06
6.70508e-07
2.35816e-06
3.96012e-07
2.36817e-06
3.88943e-07
2.34688e-06
-3.20176e-08
2.35516e-06
8.22515e-08
2.32954e-06
-1.40255e-07
2.32994e-06
-1.16002e-07
-4.94466e-08
2.31447e-06
2.46216e-06
-1.96711e-07
2.4417e-06
-8.18886e-07
2.45133e-06
3.26119e-07
2.49402e-06
1.4046e-06
2.50048e-06
2.05992e-07
2.50084e-06
-4.71455e-07
2.47242e-06
-1.20633e-06
2.43515e-06
-1.59078e-06
2.40743e-06
-1.08476e-06
2.39783e-06
-6.58733e-07
2.40318e-06
-1.11636e-07
2.43355e-06
6.19452e-07
2.45531e-06
6.48744e-07
2.46114e-06
3.90181e-07
2.47469e-06
3.75389e-07
2.45618e-06
-1.35012e-08
2.4642e-06
7.42287e-08
2.44108e-06
-1.17132e-07
2.43911e-06
-1.14029e-07
-3.76269e-08
2.42729e-06
2.58036e-06
-1.92775e-07
2.55938e-06
-7.97908e-07
2.56756e-06
3.17942e-07
2.61179e-06
1.36036e-06
2.61797e-06
1.99816e-07
2.61804e-06
-4.7153e-07
2.59029e-06
-1.17858e-06
2.55232e-06
-1.55281e-06
2.52253e-06
-1.05496e-06
2.50914e-06
-6.45346e-07
2.51051e-06
-1.13002e-07
2.53871e-06
5.91245e-07
2.56382e-06
6.2364e-07
2.57272e-06
3.8128e-07
2.58856e-06
3.5955e-07
2.57244e-06
2.61434e-09
2.57964e-06
6.70286e-08
2.55877e-06
-9.62596e-08
2.55448e-06
-1.09739e-07
-2.86067e-08
2.54546e-06
2.70387e-06
-1.8882e-07
2.68267e-06
-7.76708e-07
2.68993e-06
3.10685e-07
2.73553e-06
1.31476e-06
2.74155e-06
1.93802e-07
2.74124e-06
-4.71217e-07
2.71349e-06
-1.15083e-06
2.67462e-06
-1.51394e-06
2.64369e-06
-1.02403e-06
2.6279e-06
-6.29556e-07
2.62727e-06
-1.12369e-07
2.65406e-06
5.64449e-07
2.68154e-06
5.96167e-07
2.6926e-06
3.70213e-07
2.70947e-06
3.42687e-07
2.69539e-06
1.66848e-08
2.7015e-06
6.09215e-08
2.68258e-06
-7.73421e-08
2.6762e-06
-1.03357e-07
-2.16365e-08
2.66923e-06
2.83308e-06
-1.84632e-07
2.81186e-06
-7.55489e-07
2.81863e-06
3.03916e-07
2.86549e-06
1.2679e-06
2.87138e-06
1.87913e-07
2.87055e-06
-4.70386e-07
2.84249e-06
-1.12278e-06
2.80254e-06
-1.47398e-06
2.77115e-06
-9.92642e-07
2.75392e-06
-6.12332e-07
2.75284e-06
-1.11286e-07
2.77892e-06
5.38367e-07
2.80783e-06
5.67259e-07
2.82028e-06
3.57757e-07
2.83711e-06
3.2586e-07
2.82478e-06
2.90153e-08
2.82978e-06
5.59244e-08
2.81253e-06
-6.00925e-08
2.8044e-06
-9.52306e-08
-1.61218e-08
2.79889e-06
2.96835e-06
-1.80085e-07
2.94724e-06
-7.34377e-07
2.9538e-06
2.97355e-07
3.00184e-06
1.21986e-06
3.00763e-06
1.82126e-07
3.00614e-06
-4.68894e-07
2.97765e-06
-1.09429e-06
2.93654e-06
-1.43287e-06
2.90518e-06
-9.61286e-07
2.8871e-06
-5.94255e-07
2.88654e-06
-1.10717e-07
2.91245e-06
5.12453e-07
2.94198e-06
5.37733e-07
2.95525e-06
3.44479e-07
2.9713e-06
3.09817e-07
2.96043e-06
3.98832e-08
2.96447e-06
5.18798e-08
2.94868e-06
-4.42942e-08
2.93919e-06
-8.57487e-08
-1.1637e-08
2.93471e-06
3.11005e-06
-1.75133e-07
3.08913e-06
-7.13455e-07
3.09561e-06
2.90873e-07
3.14473e-06
1.17074e-06
3.15048e-06
1.76378e-07
3.14819e-06
-4.66608e-07
3.11929e-06
-1.06539e-06
3.07702e-06
-1.3906e-06
3.04607e-06
-9.3033e-07
3.02743e-06
-5.75623e-07
3.02779e-06
-1.11071e-07
3.05391e-06
4.86326e-07
3.08337e-06
5.08281e-07
3.09713e-06
3.30717e-07
3.112e-06
2.94942e-07
3.10232e-06
4.95626e-08
3.10565e-06
4.85525e-08
3.0912e-06
-2.98441e-08
3.08071e-06
-7.52608e-08
-7.92122e-09
3.077e-06
3.25855e-06
-1.69776e-07
3.23788e-06
-6.92783e-07
3.24428e-06
2.8447e-07
3.29432e-06
1.1207e-06
3.30016e-06
1.7054e-07
3.29697e-06
-4.63418e-07
3.26773e-06
-1.03615e-06
3.22434e-06
-1.34721e-06
3.19404e-06
-9.00027e-07
3.17497e-06
-5.56554e-07
3.17622e-06
-1.12327e-07
3.20278e-06
4.59774e-07
3.23161e-06
4.79452e-07
3.24571e-06
3.16614e-07
3.25937e-06
2.81284e-07
3.25063e-06
5.83005e-08
3.25346e-06
4.57266e-08
3.24036e-06
-1.67518e-08
3.22913e-06
-6.40312e-08
-4.8403e-09
3.22605e-06
3.41419e-06
-1.64034e-07
3.39382e-06
-6.72417e-07
3.40008e-06
2.78212e-07
3.45082e-06
1.06996e-06
3.45694e-06
1.64424e-07
3.45275e-06
-4.59228e-07
3.42325e-06
-1.00665e-06
3.37884e-06
-1.30279e-06
3.34931e-06
-8.70503e-07
3.32986e-06
-5.37098e-07
3.33172e-06
-1.14189e-07
3.35879e-06
4.32703e-07
3.38661e-06
4.51633e-07
3.40102e-06
3.022e-07
3.41367e-06
2.68638e-07
3.40567e-06
6.62922e-08
3.40813e-06
4.3276e-08
3.39646e-06
-5.08979e-09
3.38471e-06
-5.22822e-08
-2.29379e-09
3.38217e-06
3.57731e-06
-1.57931e-07
3.5573e-06
-6.52406e-07
3.56334e-06
2.72168e-07
3.61452e-06
1.01878e-06
3.62114e-06
1.57805e-07
3.61587e-06
-4.53956e-07
3.58619e-06
-9.76972e-07
3.54088e-06
-1.25748e-06
3.51212e-06
-8.41743e-07
3.49235e-06
-5.17329e-07
3.49442e-06
-1.16264e-07
3.52199e-06
4.05139e-07
3.54861e-06
4.25013e-07
3.5633e-06
2.87504e-07
3.57525e-06
2.56695e-07
3.56791e-06
7.36302e-08
3.57e-06
4.11861e-08
3.55985e-06
5.06258e-09
3.54779e-06
-4.02267e-08
-1.48855e-10
3.54564e-06
3.74825e-06
-1.51475e-07
3.72864e-06
-6.32795e-07
3.73445e-06
2.66354e-07
3.78577e-06
9.67457e-07
3.79311e-06
1.50462e-07
3.78668e-06
-4.47521e-07
3.75688e-06
-9.47168e-07
3.71084e-06
-1.21144e-06
3.68272e-06
-8.13622e-07
3.66278e-06
-4.97387e-07
3.6647e-06
-1.18184e-07
3.69266e-06
3.77176e-07
3.71807e-06
3.99608e-07
3.73296e-06
2.72613e-07
3.7445e-06
2.45151e-07
3.73779e-06
8.03372e-08
3.73948e-06
3.95014e-08
3.73085e-06
1.36859e-08
3.71873e-06
-2.81017e-08
1.77842e-09
3.7168e-06
3.92738e-06
-1.44671e-07
3.9082e-06
-6.13611e-07
3.91384e-06
2.60714e-07
3.96497e-06
9.16327e-07
3.97323e-06
1.422e-07
3.96557e-06
-4.39857e-07
3.93568e-06
-9.17276e-07
3.88913e-06
-1.1649e-06
3.86143e-06
-7.85926e-07
3.84154e-06
-4.77492e-07
3.84303e-06
-1.19678e-07
3.87121e-06
3.48995e-07
3.89554e-06
3.75282e-07
3.91047e-06
2.57688e-07
3.92182e-06
2.33797e-07
3.91578e-06
8.63745e-08
3.91696e-06
3.83204e-08
3.90989e-06
2.07584e-08
3.89791e-06
-1.61237e-08
3.7164e-09
3.89598e-06
4.1151e-06
-1.37521e-07
4.09635e-06
-5.9486e-07
4.10194e-06
2.55124e-07
4.15255e-06
8.65712e-07
4.16187e-06
1.32886e-07
4.15294e-06
-4.30927e-07
4.12297e-06
-8.87308e-07
4.07617e-06
-1.1181e-06
4.04864e-06
-7.5839e-07
4.02902e-06
-4.57873e-07
4.02996e-06
-1.20619e-07
4.05809e-06
3.20859e-07
4.08155e-06
3.51831e-07
4.09634e-06
2.42892e-07
4.10759e-06
2.22548e-07
4.10231e-06
9.16584e-08
4.1029e-06
3.77269e-08
4.09733e-06
2.63276e-08
4.08576e-06
-4.55514e-09
5.95428e-09
4.08353e-06
4.31182e-06
-1.3004e-07
4.29348e-06
-5.76515e-07
4.29918e-06
2.49418e-07
4.34896e-06
8.15931e-07
4.3594e-06
1.22445e-07
4.34922e-06
-4.20742e-07
4.31915e-06
-8.5724e-07
4.27241e-06
-1.07136e-06
4.24475e-06
-7.30727e-07
4.22562e-06
-4.38745e-07
4.22599e-06
-1.20994e-07
4.25376e-06
2.93093e-07
4.27655e-06
3.29044e-07
4.2911e-06
2.28336e-07
4.30223e-06
2.11416e-07
4.29776e-06
9.61348e-08
4.29774e-06
3.77469e-08
4.2936e-06
3.04657e-08
4.28263e-06
6.41313e-09
8.70369e-09
4.27988e-06
4.51799e-06
-1.22257e-07
4.5e-06
-5.58525e-07
4.50601e-06
2.43409e-07
4.55465e-06
7.67288e-07
4.56623e-06
1.10863e-07
4.55487e-06
-4.09377e-07
4.52462e-06
-8.26989e-07
4.47829e-06
-1.02503e-06
4.45023e-06
-7.02671e-07
4.43174e-06
-4.20258e-07
4.43164e-06
-1.20893e-07
4.45868e-06
2.66053e-07
4.48096e-06
3.06761e-07
4.49522e-06
2.14079e-07
4.50619e-06
2.00446e-07
4.50253e-06
9.97944e-08
4.50196e-06
3.83186e-08
4.49908e-06
3.33494e-08
4.48898e-06
1.65086e-08
1.21628e-08
4.48552e-06
4.73408e-06
-1.1422e-07
4.71637e-06
-5.4082e-07
4.72287e-06
2.36915e-07
4.77009e-06
7.20065e-07
4.78276e-06
9.819e-08
4.77037e-06
-3.96985e-07
4.7398e-06
-7.96418e-07
4.69424e-06
-9.79469e-07
4.66562e-06
-6.7405e-07
4.64782e-06
-4.02457e-07
4.64739e-06
-1.20461e-07
4.67338e-06
2.40066e-07
4.6952e-06
2.84933e-07
4.70919e-06
2.00096e-07
4.71993e-06
1.89702e-07
4.71706e-06
1.02664e-07
4.71601e-06
3.93688e-08
4.7142e-06
3.51642e-08
4.70528e-06
2.54236e-08
1.65128e-08
4.70093e-06
4.96057e-06
-1.05993e-07
4.94307e-06
-5.23315e-07
4.95022e-06
2.29756e-07
4.99578e-06
6.74505e-07
5.00941e-06
8.45611e-08
4.99623e-06
-3.838e-07
4.96515e-06
-7.6534e-07
4.92072e-06
-9.35034e-07
4.89149e-06
-6.44825e-07
4.87431e-06
-3.85271e-07
4.87371e-06
-1.19868e-07
4.89842e-06
2.15356e-07
4.9197e-06
2.63657e-07
4.93348e-06
1.86314e-07
4.94398e-06
1.792e-07
4.94183e-06
1.04815e-07
4.94039e-06
4.08129e-08
4.93941e-06
3.61401e-08
4.93199e-06
3.28459e-08
2.1797e-08
4.9267e-06
5.19797e-06
-9.76501e-08
5.18058e-06
-5.05922e-07
5.18857e-06
2.21762e-07
5.23226e-06
6.30817e-07
5.24663e-06
7.01905e-08
5.23295e-06
-3.70116e-07
5.20117e-06
-7.33562e-07
5.1581e-06
-8.91968e-07
5.12841e-06
-6.15128e-07
5.11167e-06
-3.68534e-07
5.1111e-06
-1.19301e-07
5.13439e-06
1.92071e-07
5.15495e-06
2.43098e-07
5.16858e-06
1.7268e-07
5.17894e-06
1.68837e-07
5.17735e-06
1.06412e-07
5.17557e-06
4.25945e-08
5.17521e-06
3.6495e-08
5.16942e-06
3.86405e-08
2.77207e-08
5.16349e-06
5.44681e-06
-8.92728e-08
5.42944e-06
-4.88547e-07
5.43842e-06
2.12774e-07
5.48007e-06
5.89171e-07
5.49492e-06
5.53405e-08
5.48104e-06
-3.56236e-07
5.44844e-06
-7.00967e-07
5.40682e-06
-8.50346e-07
5.37695e-06
-5.85255e-07
5.36042e-06
-3.52002e-07
5.36004e-06
-1.18923e-07
5.38188e-06
1.70228e-07
5.4015e-06
2.23478e-07
5.41501e-06
1.59176e-07
5.42531e-06
1.58539e-07
5.42422e-06
1.07494e-07
5.42211e-06
4.47072e-08
5.42213e-06
3.64753e-08
5.41797e-06
4.28055e-08
3.37311e-08
5.41196e-06
5.70763e-06
-8.09488e-08
5.69018e-06
-4.71091e-07
5.7003e-06
2.02652e-07
5.73978e-06
5.49692e-07
5.75482e-06
4.0297e-08
5.74103e-06
-3.42443e-07
5.7076e-06
-6.67538e-07
5.66735e-06
-8.101e-07
5.63769e-06
-5.5559e-07
5.62109e-06
-3.35407e-07
5.62101e-06
-1.18837e-07
5.64155e-06
1.49685e-07
5.65997e-06
2.0506e-07
5.6732e-06
1.45945e-07
5.68365e-06
1.48091e-07
5.68302e-06
1.08124e-07
5.68057e-06
4.71479e-08
5.68079e-06
3.62553e-08
5.67812e-06
4.54808e-08
3.92469e-08
5.6726e-06
5.98101e-06
-7.27709e-08
5.96336e-06
-4.53441e-07
5.97473e-06
1.91289e-07
6.01199e-06
5.12432e-07
6.02691e-06
2.53787e-08
6.01347e-06
-3.29003e-07
5.97928e-06
-6.33349e-07
5.94022e-06
-7.71047e-07
5.9112e-06
-5.2656e-07
5.89429e-06
-3.18505e-07
5.89454e-06
-1.19085e-07
5.91395e-06
1.30276e-07
5.93101e-06
1.88001e-07
5.94372e-06
1.33238e-07
5.95447e-06
1.37338e-07
5.95439e-06
1.08207e-07
5.95157e-06
4.9965e-08
5.95185e-06
3.59722e-08
5.95042e-06
4.69113e-08
4.37679e-08
5.9459e-06
6.26755e-06
-6.48349e-08
6.24958e-06
-4.35473e-07
6.26225e-06
1.78619e-07
6.29733e-06
4.7736e-07
6.3118e-06
1.09059e-08
6.29891e-06
-3.16112e-07
6.26412e-06
-5.98564e-07
6.226e-06
-7.32927e-07
6.19803e-06
-4.98585e-07
6.18068e-06
-3.01161e-07
6.18118e-06
-1.19585e-07
6.19969e-06
1.11767e-07
6.21534e-06
1.72357e-07
6.2272e-06
1.21372e-07
6.23836e-06
1.26185e-07
6.23899e-06
1.07572e-07
6.23575e-06
5.32102e-08
6.23599e-06
3.57269e-08
6.23549e-06
4.74131e-08
4.70226e-08
6.23223e-06
6.56787e-06
-5.72385e-08
6.54945e-06
-4.17054e-07
6.56344e-06
1.64633e-07
6.59644e-06
4.44365e-07
6.61016e-06
-2.82021e-09
6.59793e-06
-3.03883e-07
6.56279e-06
-5.63419e-07
6.52531e-06
-6.95455e-07
6.49874e-06
-4.72012e-07
6.48098e-06
-2.83402e-07
6.48146e-06
-1.20062e-07
6.49938e-06
9.38486e-08
6.51369e-06
1.58048e-07
6.52442e-06
1.10637e-07
6.53587e-06
1.14738e-07
6.53744e-06
1.06003e-07
6.53385e-06
5.67978e-08
6.53387e-06
3.57094e-08
6.53403e-06
4.72487e-08
4.90133e-08
6.53204e-06
6.88263e-06
-5.00778e-08
6.86362e-06
-3.98045e-07
6.87886e-06
1.49389e-07
6.90999e-06
4.13239e-07
6.92268e-06
-1.55074e-08
6.91116e-06
-2.92365e-07
6.87593e-06
-5.28193e-07
6.83888e-06
-6.58401e-07
6.81392e-06
-4.47056e-07
6.79591e-06
-2.6539e-07
6.79598e-06
-1.20125e-07
6.81357e-06
7.62521e-08
6.8268e-06
1.44824e-07
6.83619e-06
1.01245e-07
6.84761e-06
1.03317e-07
6.85038e-06
1.03234e-07
6.84661e-06
6.05661e-08
6.84621e-06
3.61051e-08
6.84688e-06
4.65786e-08
5.00109e-08
6.84589e-06
7.2125e-06
-4.34442e-08
7.19276e-06
-3.78303e-07
7.20914e-06
1.33013e-07
7.23869e-06
3.83686e-07
7.25006e-06
-2.68816e-08
7.23928e-06
-2.8158e-07
7.20425e-06
-4.93165e-07
7.16749e-06
-6.21638e-07
7.14421e-06
-4.23777e-07
7.12621e-06
-2.47392e-07
7.12538e-06
-1.1929e-07
7.14283e-06
5.8801e-08
7.15536e-06
1.32291e-07
7.16333e-06
9.32741e-08
7.17437e-06
9.228e-08
7.17854e-06
9.90632e-08
7.17486e-06
6.42487e-08
7.1738e-06
3.71598e-08
7.1749e-06
4.54769e-08
5.0357e-08
7.17456e-06
7.5582e-06
-3.74198e-08
7.5376e-06
-3.57698e-07
7.55493e-06
1.15682e-07
7.58327e-06
3.55344e-07
7.59306e-06
-3.66738e-08
7.58304e-06
-2.71554e-07
7.54846e-06
-4.58586e-07
7.51189e-06
-5.85072e-07
7.49027e-06
-4.02152e-07
7.47264e-06
-2.29764e-07
7.47044e-06
-1.17095e-07
7.4877e-06
4.15415e-08
7.50011e-06
1.19878e-07
7.50666e-06
8.67306e-08
7.51704e-06
8.18953e-08
7.52276e-06
9.33503e-08
7.51957e-06
6.74323e-08
7.51762e-06
3.91069e-08
7.51901e-06
4.40877e-08
5.01343e-08
7.51924e-06
7.92046e-06
-3.2073e-08
7.89888e-06
-3.36111e-07
7.91699e-06
9.75696e-08
7.94449e-06
3.27841e-07
7.95245e-06
-4.46334e-08
7.94319e-06
-2.62296e-07
7.90927e-06
-4.24663e-07
7.8728e-06
-5.48597e-07
7.8528e-06
-3.82155e-07
7.83592e-06
-2.12886e-07
7.83211e-06
-1.13282e-07
7.84874e-06
2.49114e-08
7.86165e-06
1.06964e-07
7.86709e-06
8.12955e-08
7.87642e-06
7.25624e-08
7.88383e-06
8.59423e-08
7.88211e-06
6.91482e-08
7.87964e-06
4.15768e-08
7.88125e-06
4.24799e-08
4.95866e-08
7.8818e-06
8.30006e-06
-2.74506e-08
8.27744e-06
-3.13492e-07
8.29609e-06
7.89193e-08
8.32316e-06
3.00773e-07
8.32908e-06
-5.05514e-08
8.3205e-06
-2.5372e-07
8.28749e-06
-3.9165e-07
8.25098e-06
-5.12087e-07
8.23253e-06
-3.63713e-07
8.21685e-06
-1.97205e-07
8.2113e-06
-1.07734e-07
8.22676e-06
9.45692e-09
8.24048e-06
9.32456e-08
8.24539e-06
7.6378e-08
8.25342e-06
6.45347e-08
8.26221e-06
7.71502e-08
8.26288e-06
6.84786e-08
8.26145e-06
4.30116e-08
8.2635e-06
4.04245e-08
4.92037e-08
8.26389e-06
8.69779e-06
-2.35751e-08
8.67422e-06
-2.8992e-07
8.69304e-06
6.00922e-08
8.72005e-06
2.73763e-07
8.72384e-06
-5.43408e-08
8.71574e-06
-2.45617e-07
8.68398e-06
-3.59893e-07
8.64733e-06
-4.7544e-07
8.63017e-06
-3.46546e-07
8.61618e-06
-1.83221e-07
8.60902e-06
-1.00571e-07
8.62259e-06
-4.1089e-09
8.6372e-06
7.86375e-08
8.64227e-06
7.1308e-08
8.64888e-06
5.79214e-08
8.65821e-06
6.78219e-08
8.66063e-06
6.60569e-08
8.65905e-06
4.45894e-08
8.66054e-06
3.89361e-08
4.8014e-08
8.66173e-06
9.11448e-06
-2.0437e-08
9.09019e-06
-2.65633e-07
9.10872e-06
4.15658e-08
9.13594e-06
2.46547e-07
9.13773e-06
-5.61351e-08
9.12976e-06
-2.37644e-07
9.09964e-06
-3.29772e-07
9.06293e-06
-4.38732e-07
9.04648e-06
-3.301e-07
9.03457e-06
-1.71307e-07
9.02635e-06
-9.23576e-08
9.03719e-06
-1.49485e-08
9.05244e-06
6.3393e-08
9.05824e-06
6.55111e-08
9.06336e-06
5.27999e-08
9.07202e-06
5.91589e-08
9.07543e-06
6.26513e-08
9.07379e-06
4.62221e-08
9.07418e-06
3.85481e-08
4.59548e-08
9.07624e-06
9.55102e-06
-1.79936e-08
9.52636e-06
-2.4098e-07
9.54404e-06
2.38863e-08
9.57156e-06
2.19028e-07
9.57173e-06
-5.63002e-08
9.56346e-06
-2.29381e-07
9.53534e-06
-3.01645e-07
9.49871e-06
-4.02106e-07
9.48237e-06
-3.13761e-07
9.47267e-06
-1.61605e-07
9.46411e-06
-8.37945e-08
9.47183e-06
-2.26767e-08
9.4869e-06
4.8326e-08
9.49364e-06
5.87682e-08
9.49746e-06
4.89818e-08
9.50442e-06
5.22e-08
9.50849e-06
5.85792e-08
9.50737e-06
4.7349e-08
9.50669e-06
3.92253e-08
4.33524e-08
9.50929e-06
1.00083e-05
-1.61682e-08
9.98384e-06
-2.16512e-07
1e-05
7.69816e-09
1.00277e-05
1.91327e-07
1.00268e-05
-5.53391e-08
1.00179e-05
-2.20498e-07
9.99193e-06
-2.75688e-07
9.95572e-06
-3.65897e-07
9.93873e-06
-2.96768e-07
9.93116e-06
-1.54034e-07
9.92291e-06
-7.55474e-08
9.92765e-06
-2.74131e-08
9.94134e-06
3.46306e-08
9.94895e-06
5.11605e-08
9.95189e-06
4.60402e-08
9.95696e-06
4.71346e-08
9.9611e-06
5.444e-08
9.96099e-06
4.74543e-08
9.9598e-06
4.04106e-08
4.06651e-08
9.96249e-06
1.04873e-05
-1.48549e-08
1.04637e-05
-1.92878e-07
1.04778e-05
-6.3666e-09
1.05053e-05
1.63751e-07
1.05038e-05
-5.38167e-08
1.04941e-05
-2.10819e-07
1.04703e-05
-2.5188e-07
1.0435e-05
-3.30604e-07
1.04167e-05
-2.78431e-07
1.04109e-05
-1.48196e-07
1.04034e-05
-6.81075e-08
1.04055e-05
-2.95004e-08
1.04169e-05
2.32234e-08
1.0425e-05
4.307e-08
1.04278e-05
4.32809e-08
1.04315e-05
4.33618e-08
1.04355e-05
5.04965e-08
1.04366e-05
4.63447e-08
1.04356e-05
4.13902e-08
3.85878e-08
1.04377e-05
1.09891e-05
-1.39223e-08
1.09668e-05
-1.70592e-07
1.09784e-05
-1.79411e-08
1.10054e-05
1.36757e-07
1.10038e-05
-5.22823e-08
1.09933e-05
-2.00328e-07
1.09714e-05
-2.29963e-07
1.09376e-05
-2.96816e-07
1.09179e-05
-2.58698e-07
1.09128e-05
-1.43114e-07
1.09066e-05
-6.18649e-08
1.09066e-05
-2.9519e-08
1.09154e-05
1.44683e-08
1.09234e-05
3.5034e-08
1.09267e-05
3.99371e-08
1.09301e-05
4.00079e-08
1.09338e-05
4.67939e-08
1.09359e-05
4.42682e-08
1.09358e-05
4.14085e-08
3.755e-08
1.09369e-05
1.15147e-05
-1.32436e-08
1.14941e-05
-1.49993e-07
1.15031e-05
-2.69316e-08
1.1529e-05
1.10877e-07
1.15278e-05
-5.11574e-08
1.15167e-05
-1.89206e-07
1.14965e-05
-2.09742e-07
1.14646e-05
-2.64959e-07
1.14438e-05
-2.37855e-07
1.14386e-05
-1.37956e-07
1.14338e-05
-5.70016e-08
1.14325e-05
-2.82905e-08
1.1439e-05
8.05092e-09
1.14464e-05
2.75703e-08
1.14504e-05
3.59957e-08
1.14537e-05
3.66899e-08
1.14571e-05
4.33332e-08
1.14596e-05
4.18191e-08
1.14608e-05
4.02386e-08
3.70231e-08
1.14613e-05
1.20653e-05
-1.26947e-08
1.20466e-05
-1.31314e-07
1.20531e-05
-3.3443e-08
1.20774e-05
8.66247e-08
1.20768e-05
-5.06438e-08
1.20654e-05
-1.77771e-07
1.20467e-05
-1.91027e-07
1.2017e-05
-2.35293e-07
1.19956e-05
-2.16424e-07
1.199e-05
-1.32308e-07
1.19862e-05
-5.32852e-08
1.19845e-05
-2.65487e-08
1.1989e-05
3.55483e-09
1.19956e-05
2.09462e-08
1.19998e-05
3.18358e-08
1.2003e-05
3.34439e-08
1.20064e-05
3.99245e-08
1.20088e-05
3.94107e-08
1.20108e-05
3.82357e-08
3.61824e-08
1.20117e-05
1.26421e-05
-1.21742e-08
1.26254e-05
-1.14658e-07
1.26297e-05
-3.77644e-08
1.26519e-05
6.44791e-08
1.2652e-05
-5.07476e-08
1.26406e-05
-1.664e-07
1.26233e-05
-1.73689e-07
1.25959e-05
-2.07935e-07
1.25745e-05
-1.94988e-07
1.25681e-05
-1.25925e-07
1.25652e-05
-5.04143e-08
1.25633e-05
-2.46247e-08
1.25662e-05
6.73849e-10
1.25719e-05
1.52799e-08
1.25761e-05
2.76258e-08
1.25792e-05
3.03294e-08
1.25825e-05
3.65897e-08
1.2585e-05
3.69454e-08
1.25872e-05
3.60503e-08
3.46211e-08
1.25887e-05
1.32464e-05
-1.1613e-08
1.32317e-05
-9.99827e-08
1.32343e-05
-4.03189e-08
1.32539e-05
4.48054e-08
1.32545e-05
-5.13299e-08
1.32435e-05
-1.55405e-07
1.32275e-05
-1.577e-07
1.32025e-05
-1.82876e-07
1.31815e-05
-1.74015e-07
1.31744e-05
-1.18823e-07
1.3172e-05
-4.80268e-08
1.317e-05
-2.26368e-08
1.31716e-05
-9.28748e-10
1.31762e-05
1.07417e-08
1.31803e-05
2.34498e-08
1.31834e-05
2.72255e-08
1.31866e-05
3.34734e-08
1.31891e-05
3.43562e-08
1.31913e-05
3.39346e-08
3.25584e-08
1.31933e-05
1.38795e-05
-1.09694e-08
1.38667e-05
-8.71491e-08
1.3868e-05
-4.15818e-08
1.38849e-05
2.78366e-08
1.38857e-05
-5.21508e-08
1.38753e-05
-1.44997e-07
1.38607e-05
-1.43116e-07
1.38379e-05
-1.60059e-07
1.38177e-05
-1.53786e-07
1.38101e-05
-1.11182e-07
1.38079e-05
-4.58775e-08
1.38059e-05
-2.06018e-08
1.38064e-05
-1.48962e-09
1.38099e-05
7.30639e-09
1.38138e-05
1.9559e-08
1.3817e-05
2.396e-08
1.38199e-05
3.0551e-08
1.38225e-05
3.18154e-08
1.38246e-05
3.18444e-08
3.03172e-08
1.38268e-05
1.45429e-05
-1.02172e-08
1.45317e-05
-7.59807e-08
1.45321e-05
-4.19261e-08
1.45463e-05
1.35803e-08
1.45471e-05
-5.28956e-08
1.45374e-05
-1.35294e-07
1.45242e-05
-1.29918e-07
1.45036e-05
-1.39482e-07
1.44843e-05
-1.34457e-07
1.44762e-05
-1.03144e-07
1.44743e-05
-4.39813e-08
1.44723e-05
-1.85369e-08
1.44719e-05
-1.12906e-09
1.44743e-05
4.89785e-09
1.44778e-05
1.61093e-08
1.44811e-05
2.06088e-08
1.44841e-05
2.7563e-08
1.44865e-05
2.94842e-08
1.44885e-05
2.98253e-08
2.79938e-08
1.44908e-05
1.5238e-05
-9.34834e-09
1.52283e-05
-6.62732e-08
1.5228e-05
-4.15895e-08
1.52396e-05
1.92956e-09
1.52399e-05
-5.32181e-08
1.5231e-05
-1.26324e-07
1.52191e-05
-1.1807e-07
1.52008e-05
-1.21196e-07
1.51826e-05
-1.16169e-07
1.51742e-05
-9.47956e-08
1.51726e-05
-4.23751e-08
1.51707e-05
-1.66377e-08
1.51695e-05
7.73983e-11
1.51709e-05
3.4409e-09
1.51739e-05
1.31412e-08
1.51771e-05
1.74591e-08
1.51802e-05
2.4379e-08
1.51827e-05
2.70798e-08
1.51843e-05
2.81321e-08
2.56201e-08
1.51867e-05
1.59664e-05
-8.37793e-09
1.59579e-05
-5.78122e-08
1.5957e-05
-4.067e-08
1.59661e-05
-7.20406e-09
1.59657e-05
-5.27763e-08
1.59573e-05
-1.17925e-07
1.59468e-05
-1.07592e-07
1.59309e-05
-1.05267e-07
1.59139e-05
-9.91559e-08
1.59052e-05
-8.61528e-08
1.59039e-05
-4.10662e-08
1.59026e-05
-1.52921e-08
1.59007e-05
1.89776e-09
1.59011e-05
3.07297e-09
1.59036e-05
1.06521e-08
1.59065e-05
1.45114e-08
1.59096e-05
2.1281e-08
1.59125e-05
2.4228e-08
1.59139e-05
2.6706e-08
2.35349e-08
1.5916e-05
1.67296e-05
-7.33619e-09
1.67221e-05
-5.03534e-08
1.67207e-05
-3.9247e-08
1.67275e-05
-1.39866e-08
1.67259e-05
-5.11952e-08
1.67176e-05
-1.09619e-07
1.67084e-05
-9.84067e-08
1.66949e-05
-9.1828e-08
1.66796e-05
-8.3837e-08
1.66707e-05
-7.72634e-08
1.66696e-05
-3.99245e-08
1.66692e-05
-1.48433e-08
1.66672e-05
3.82693e-09
1.66665e-05
3.74645e-09
1.66683e-05
8.89192e-09
1.66711e-05
1.16813e-08
1.6674e-05
1.84658e-08
1.66771e-05
2.10498e-08
1.66788e-05
2.50011e-08
2.20279e-08
1.66803e-05
1.75293e-05
-6.27169e-09
1.75225e-05
-4.36062e-08
1.75208e-05
-3.7478e-08
1.75254e-05
-1.86503e-08
1.75227e-05
-4.84684e-08
1.75141e-05
-1.00995e-07
1.75057e-05
-9.00353e-08
1.74947e-05
-8.08044e-08
1.74814e-05
-7.05445e-08
1.74725e-05
-6.83344e-08
1.74712e-05
-3.86473e-08
1.74718e-05
-1.54476e-08
1.74705e-05
5.1518e-09
1.7469e-05
5.21619e-09
1.74697e-05
8.16142e-09
1.74724e-05
9.02589e-09
1.74751e-05
1.58041e-08
1.74781e-05
1.79835e-08
1.74805e-05
2.26148e-08
2.09187e-08
1.74816e-05
1.83673e-05
-5.24476e-09
1.8361e-05
-3.73315e-08
1.8359e-05
-3.54632e-08
1.83619e-05
-2.15587e-08
1.83582e-05
-4.47719e-08
1.83494e-05
-9.21184e-08
1.83416e-05
-8.22549e-08
1.83324e-05
-7.16436e-08
1.8321e-05
-5.91393e-08
1.83123e-05
-5.96057e-08
1.83104e-05
-3.67369e-08
1.83119e-05
-1.69768e-08
1.83118e-05
5.23075e-09
1.83102e-05
6.85219e-09
1.83099e-05
8.42703e-09
1.83119e-05
7.02643e-09
1.83147e-05
1.30778e-08
1.83174e-05
1.52344e-08
1.83202e-05