/*--------------------------------*- C++ -*----------------------------------*\
| =========                 |                                                 |
| \\      /  F ield         | OpenFOAM: The Open Source CFD Toolbox           |
|  \\    /   O peration     | Version:  v1912                                 |
|   \\  /    A nd           | Website:  www.openfoam.com                      |
|    \\/     M anipulation  |                                                 |
\*---------------------------------------------------------------------------*/
FoamFile
{
    version     2.0;
    format      ascii;
    class       volVectorField;
    location    "9.85";
    object      U;
}
// * * * * * * * * * * * * * * * * * * * * * * * * * * * * * * * * * * * * * //

dimensions      [0 1 -1 0 0 0 0];


internalField   nonuniform List<vector> 
9600
(
(0.835042 -0.00147309 0)
(1.13703 -0.00329154 0)
(0.808264 0.0143573 0)
(1.41288 0.0138386 0)
(0.439442 -0.0234045 0)
(1.3124 0.019667 0)
(0.811901 0.0115099 0)
(1.1504 0.016678 0)
(0.855437 0.0112887 0)
(1.20229 0.010038 0)
(0.795213 0.0150744 0)
(1.21211 0.0026728 0)
(0.767418 -0.00357896 0)
(1.21719 0.00259815 0)
(0.833536 -4.75995e-05 0)
(1.17945 0.00831929 0)
(0.827162 0.011795 0)
(1.16465 0.0191509 0)
(0.846799 0.019113 0)
(1.13624 0.0185198 0)
(0.841444 -0.0013615 0)
(1.13328 -0.00292304 0)
(0.809536 0.0118327 0)
(1.40762 0.0178773 0)
(0.474094 -0.0228313 0)
(1.30832 0.0168326 0)
(0.827755 0.0127249 0)
(1.14862 0.016805 0)
(0.870369 0.0103371 0)
(1.19494 0.0111951 0)
(0.818975 0.0145326 0)
(1.1937 0.00383853 0)
(0.808243 -0.0042377 0)
(1.18949 0.00159235 0)
(0.880247 0.000364985 0)
(1.1396 0.00866169 0)
(0.892183 0.0124141 0)
(1.09326 0.0180492 0)
(0.948062 0.0209799 0)
(1.02017 0.0166854 0)
(0.854798 -0.0012632 0)
(1.12405 -0.00256945 0)
(0.814061 0.0094084 0)
(1.39594 0.0207995 0)
(0.536693 -0.0225504 0)
(1.2933 0.0135381 0)
(0.866313 0.0141402 0)
(1.14098 0.0164717 0)
(0.905238 0.00940083 0)
(1.17547 0.0122605 0)
(0.873779 0.0142128 0)
(1.15855 0.00417602 0)
(0.880454 -0.00445423 0)
(1.13791 0.000559897 0)
(0.953473 0.00136261 0)
(1.08312 0.00859385 0)
(0.962138 0.0133646 0)
(1.03396 0.0170543 0)
(0.994825 0.0221628 0)
(0.998715 0.0168305 0)
(0.875129 -0.00119858 0)
(1.1082 -0.00213079 0)
(0.823622 0.00714223 0)
(1.37421 0.0230583 0)
(0.625469 -0.0219929 0)
(1.26019 0.0107835 0)
(0.923249 0.0154163 0)
(1.12614 0.0161769 0)
(0.952004 0.00886 0)
(1.14399 0.0128054 0)
(0.943256 0.0143023 0)
(1.11673 0.00421683 0)
(0.950403 -0.00410821 0)
(1.08541 -0.000617227 0)
(1.00894 0.00230693 0)
(1.04845 0.0085725 0)
(0.999618 0.0143007 0)
(1.01456 0.0167425 0)
(1.00506 0.022547 0)
(1.00444 0.0176077 0)
(0.900797 -0.00114756 0)
(1.08639 -0.0016069 0)
(0.840351 0.00485256 0)
(1.33894 0.0247935 0)
(0.72891 -0.0210743 0)
(1.20805 0.00819392 0)
(0.983738 0.0164739 0)
(1.10819 0.0161082 0)
(0.995279 0.00865902 0)
(1.108 0.0129242 0)
(1.00235 0.0146324 0)
(1.08196 0.00428177 0)
(0.99457 -0.00349032 0)
(1.04852 -0.00161653 0)
(1.0315 0.00279463 0)
(1.03761 0.00889667 0)
(1.01647 0.0150832 0)
(1.01571 0.0168734 0)
(1.0115 0.0226631 0)
(1.01227 0.0181922 0)
(0.928473 -0.0010993 0)
(1.0614 -0.0010449 0)
(0.864841 0.00265784 0)
(1.28926 0.0257582 0)
(0.827792 -0.0197951 0)
(1.14528 0.00574913 0)
(1.03092 0.0171675 0)
(1.09216 0.0162245 0)
(1.02357 0.0087605 0)
(1.0761 0.0127706 0)
(1.03714 0.0149624 0)
(1.0592 0.00459557 0)
(1.01317 -0.00279517 0)
(1.02645 -0.00222518 0)
(1.03065 0.00285172 0)
(1.0333 0.0091675 0)
(1.02512 0.0156294 0)
(1.02251 0.0171566 0)
(1.02005 0.0226441 0)
(1.02105 0.0186417 0)
(0.95408 -0.00104805 0)
(1.0376 -0.000497316 0)
(0.894267 0.00071256 0)
(1.22909 0.0259972 0)
(0.906159 -0.0182935 0)
(1.08568 0.00372049 0)
(1.05533 0.0173834 0)
(1.07863 0.0165126 0)
(1.03497 0.00913163 0)
(1.052 0.0124929 0)
(1.0484 0.0151817 0)
(1.04517 0.00511761 0)
(1.01696 -0.00203908 0)
(1.01279 -0.00247788 0)
(1.01979 0.00262438 0)
(1.02567 0.00907102 0)
(1.02734 0.0157989 0)
(1.02774 0.0173702 0)
(1.02703 0.0224957 0)
(1.02775 0.0190937 0)
(0.974267 -0.000992509 0)
(1.01924 -1.70941e-05 0)
(0.923173 -0.000864176 0)
(1.1665 0.0257208 0)
(0.958742 -0.0167493 0)
(1.03997 0.00223268 0)
(1.05755 0.0171423 0)
(1.06485 0.0168983 0)
(1.03443 0.0096646 0)
(1.03517 0.0122127 0)
(1.04429 0.015282 0)
(1.03522 0.00568172 0)
(1.01497 -0.00123265 0)
(1.00398 -0.0024594 0)
(1.00784 0.00232274 0)
(1.01488 0.00865061 0)
(1.02312 0.0155315 0)
(1.02758 0.0173931 0)
(1.02899 0.0222627 0)
(1.02962 0.0195774 0)
(0.987601 -0.000941549 0)
(1.00845 0.000364619 0)
(0.946738 -0.00200916 0)
(1.11047 0.0251598 0)
(0.989195 -0.0153281 0)
(1.01095 0.00125191 0)
(1.04494 0.0166086 0)
(1.04923 0.017246 0)
(1.02832 0.0102177 0)
(1.02377 0.0119949 0)
(1.0335 0.0153013 0)
(1.02699 0.00614356 0)
(1.01177 -0.000438055 0)
(0.999022 -0.00224088 0)
(0.99905 0.00210968 0)
(1.00439 0.00809653 0)
(1.01488 0.0149587 0)
(1.02204 0.017249 0)
(1.02544 0.0219438 0)
(1.02665 0.0200105 0)
(0.994751 -0.000908268 0)
(1.00436 0.000646207 0)
(0.963266 -0.00271853 0)
(1.06714 0.0244768 0)
(1.00437 -0.0141154 0)
(0.995248 0.00070522 0)
(1.02697 0.0159775 0)
(1.03333 0.0174441 0)
(1.02127 0.0106827 0)
(1.01625 0.0118574 0)
(1.0222 0.0152826 0)
(1.02021 0.00643723 0)
(1.00916 0.000278602 0)
(0.997231 -0.00189461 0)
(0.99446 0.00203043 0)
(0.996737 0.00760737 0)
(1.00611 0.014297 0)
(1.01391 0.0170085 0)
(1.01855 0.0215063 0)
(1.0208 0.0203065 0)
(0.997675 -0.000900084 0)
(1.00417 0.000846465 0)
(0.973962 -0.00305979 0)
(1.03801 0.0237603 0)
(1.01039 -0.0131156 0)
(0.987891 0.000498237 0)
(1.01119 0.0153752 0)
(1.02011 0.0174526 0)
(1.01561 0.0110174 0)
(1.01151 0.0117877 0)
(1.01352 0.0152531 0)
(1.01532 0.00656634 0)
(1.00771 0.000876924 0)
(0.997612 -0.00149189 0)
(0.993342 0.00207313 0)
(0.992604 0.00731243 0)
(0.999304 0.0136845 0)
(1.00624 0.0167351 0)
(1.01119 0.0209816 0)
(1.01439 0.0204437 0)
(0.998467 -0.00091375 0)
(1.00503 0.00098139 0)
(0.981076 -0.00313956 0)
(1.0207 0.0230551 0)
(1.01153 -0.0122822 0)
(0.985097 0.00050425 0)
(1.00119 0.01484 0)
(1.01136 0.0173025 0)
(1.01197 0.011239 0)
(1.00884 0.0117594 0)
(1.00824 0.0152224 0)
(1.01244 0.00656378 0)
(1.00735 0.00135788 0)
(0.999124 -0.00107744 0)
(0.99437 0.0022088 0)
(0.991365 0.0072305 0)
(0.995325 0.013175 0)
(1.00075 0.0164972 0)
(1.00532 0.0204463 0)
(1.00904 0.0204247 0)
(0.998581 -0.000938631 0)
(1.00531 0.00105831 0)
(0.98632 -0.00305185 0)
(1.01134 0.0223852 0)
(1.01042 -0.0115547 0)
(0.984739 0.000601072 0)
(0.996804 0.01436 0)
(1.00681 0.0170586 0)
(1.01009 0.0113899 0)
(1.00769 0.0117485 0)
(1.00584 0.0151868 0)
(1.01115 0.00647513 0)
(1.0077 0.00173865 0)
(1.00094 -0.000662497 0)
(0.996366 0.00239233 0)
(0.991983 0.0073191 0)
(0.993869 0.0127916 0)
(0.997819 0.0163321 0)
(1.00169 0.0199521 0)
(1.00551 0.0202604 0)
(0.998688 -0.000963102 0)
(1.00464 0.00108488 0)
(0.990404 -0.00287061 0)
(1.00656 0.0217623 0)
(1.00865 -0.0108884 0)
(0.98568 0.000706037 0)
(0.996009 0.0139148 0)
(1.00496 0.0167761 0)
(1.00933 0.0115069 0)
(1.00751 0.0117359 0)
(1.00535 0.0151442 0)
(1.01081 0.00634838 0)
(1.00831 0.00204066 0)
(1.00255 -0.000247927 0)
(0.998542 0.00257804 0)
(0.993549 0.00752395 0)
(0.994198 0.0125235 0)
(0.997057 0.0162236 0)
(1.00022 0.0195247 0)
(1.00388 0.0199866 0)
(0.998948 -0.000978783 0)
(1.00333 0.0010709 0)
(0.993408 -0.00264508 0)
(1.00427 0.021185 0)
(1.00712 -0.0102575 0)
(0.987204 0.000782776 0)
(0.99673 0.0134947 0)
(1.0043 0.0164859 0)
(1.00908 0.0116088 0)
(1.00782 0.0117106 0)
(1.00588 0.0150955 0)
(1.01086 0.00622157 0)
(1.00893 0.00228545 0)
(1.00372 0.000168092 0)
(1.00045 0.00274025 0)
(0.995415 0.00778867 0)
(0.995539 0.0123364 0)
(0.997813 0.0161309 0)
(1.00042 0.0191778 0)
(1.00381 0.0196494 0)
(0.999336 -0.000981874 0)
(1.00179 0.00102907 0)
(0.995322 -0.00240483 0)
(1.00335 0.0206348 0)
(1.00621 -0.00964642 0)
(0.988839 0.000827742 0)
(0.997699 0.0130991 0)
(1.00386 0.0161995 0)
(1.00891 0.011699 0)
(1.00827 0.0116626 0)
(1.00678 0.015044 0)
(1.01095 0.00611571 0)
(1.00943 0.00248572 0)
(1.00445 0.000591377 0)
(1.00188 0.0028658 0)
(0.997162 0.00806038 0)
(0.997221 0.0122026 0)
(0.999367 0.0160167 0)
(1.00159 0.0189079 0)
(1.00466 0.0192871 0)
(0.999812 -0.000971693 0)
(1.00027 0.000973239 0)
(0.996295 -0.00216756 0)
(1.00319 0.0200881 0)
(1.00595 -0.00904387 0)
(0.990351 0.000853193 0)
(0.998417 0.01273 0)
(1.00322 0.0159194 0)
(1.00856 0.0117721 0)
(1.00872 0.0115842 0)
(1.00772 0.0149897 0)
(1.01093 0.00604406 0)
(1.0098 0.00265018 0)
(1.00478 0.00102883 0)
(1.0028 0.00295255 0)
(0.998565 0.00830183 0)
(0.998755 0.0121062 0)
(1.0011 0.0158522 0)
(1.00303 0.018696 0)
(1.0058 0.0189321 0)
(1.00034 -0.000949373 0)
(0.998895 0.000916072 0)
(0.996577 -0.00194383 0)
(1.00336 0.0195251 0)
(1.00616 -0.00844281 0)
(0.991672 0.000875315 0)
(0.998817 0.0123909 0)
(1.00227 0.0156472 0)
(1.00794 0.0118164 0)
(1.00917 0.0114688 0)
(1.00858 0.014934 0)
(1.01075 0.00601501 0)
(1.01003 0.00278368 0)
(1.00481 0.00148712 0)
(1.00327 0.00301142 0)
(0.999571 0.00849225 0)
(0.999884 0.0120382 0)
(1.00262 0.0156241 0)
(1.00431 0.0185147 0)
(1.00682 0.0186092 0)
(1.00086 -0.000916874 0)
(0.997785 0.000866746 0)
(0.996391 -0.00173707 0)
(1.00365 0.0189312 0)
(1.00663 -0.00783961 0)
(0.992792 0.000907435 0)
(0.998989 0.0120871 0)
(1.00109 0.0153861 0)
(1.00707 0.0118191 0)
(1.00963 0.0113095 0)
(1.00934 0.0148818 0)
(1.0104 0.00603325 0)
(1.01011 0.00289125 0)
(1.00464 0.00196969 0)
(1.0034 0.00305444 0)
(1.00026 0.00861914 0)
(1.00057 0.0119936 0)
(1.00379 0.0153407 0)
(1.00523 0.0183408 0)
(1.00753 0.0183336 0)
(1.00132 -0.000877597 0)
(0.997013 0.000832744 0)
(0.995908 -0.00154671 0)
(1.00394 0.0182978 0)
(1.00717 -0.00723172 0)
(0.993707 0.000958701 0)
(0.999061 0.0118203 0)
(0.999852 0.0151417 0)
(1.00601 0.0117708 0)
(1.01006 0.0111011 0)
(1.00998 0.0148346 0)
(1.00993 0.00610571 0)
(1.01006 0.00297875 0)
(1.00437 0.00247162 0)
(1.00335 0.00309266 0)
(1.00077 0.00868117 0)
(1.00094 0.0119676 0)
(1.00464 0.0150186 0)
(1.00582 0.0181539 0)
(1.00794 0.0181131 0)
(1.0017 -0.000835693 0)
(0.996587 0.000819812 0)
(0.995263 -0.00137098 0)
(1.00419 0.0176194 0)
(1.00765 -0.00661715 0)
(0.994427 0.00103341 0)
(0.999146 0.0115845 0)
(0.99876 0.0149201 0)
(1.00489 0.0116692 0)
(1.01038 0.0108408 0)
(1.01049 0.0147951 0)
(1.00943 0.00623229 0)
(1.00989 0.00304869 0)
(1.00411 0.00298444 0)
(1.00322 0.00313487 0)
(1.00122 0.00868589 0)
(1.00113 0.0119558 0)
(1.00525 0.014677 0)
(1.00618 0.0179369 0)
(1.00812 0.0179475 0)
(1.00197 -0.000794475 0)
(0.99645 0.000830712 0)
(0.994565 -0.00120778 0)
(1.00442 0.0168965 0)
(1.00799 -0.00599679 0)
(0.994991 0.00113135 0)
(0.999317 0.0113718 0)
(0.99796 0.0147238 0)
(1.0038 0.011523 0)
(1.01049 0.0105278 0)
(1.01084 0.0147623 0)
(1.009 0.00641038 0)
(1.00963 0.00310234 0)
(1.00396 0.00349694 0)
(1.00311 0.00318446 0)
(1.00168 0.0086377 0)
(1.00127 0.0119558 0)
(1.0057 0.0143371 0)
(1.00639 0.0176777 0)
(1.00816 0.017829 0)
(1.00216 -0.00075713 0)
(0.996529 0.000867167 0)
(0.993885 -0.00105267 0)
(1.0046 0.0161323 0)
(1.00816 -0.00537155 0)
(0.995441 0.00124746 0)
(0.999581 0.0111753 0)
(0.997513 0.0145551 0)
(1.00284 0.0113471 0)
(1.01037 0.0101643 0)
(1.011 0.0147216 0)
(1.00875 0.00664306 0)
(1.00932 0.00314607 0)
(1.00398 0.00399676 0)
(1.00303 0.0032504 0)
(1.00212 0.00854069 0)
(1.00141 0.0119639 0)
(1.006 0.0140189 0)
(1.00656 0.0173665 0)
(1.00808 0.0177492 0)
(1.00228 -0.000726147 0)
(0.996773 0.000930615 0)
(0.993271 -0.000904974 0)
(1.00473 0.0153311 0)
(1.00817 -0.004741 0)
(0.995805 0.00138007 0)
(0.999889 0.0109803 0)
(0.997403 0.0144175 0)
(1.00208 0.0111585 0)
(1.01 0.009761 0)
(1.01094 0.0146521 0)
(1.00871 0.00692358 0)
(1.00899 0.00318685 0)
(1.00417 0.00447403 0)
(1.003 0.00334533 0)
(1.0025 0.00840249 0)
(1.00155 0.0119711 0)
(1.00613 0.0137397 0)
(1.00669 0.0169984 0)
(1.00794 0.0176924 0)
(1.0023 -0.000703479 0)
(0.997146 0.00102046 0)
(0.992776 -0.000762387 0)
(1.00479 0.0144984 0)
(1.00805 -0.00410849 0)
(0.996099 0.00152888 0)
(1.00016 0.0107757 0)
(0.99757 0.0143041 0)
(1.00157 0.0109769 0)
(1.00944 0.00933317 0)
(1.01064 0.0145354 0)
(1.00885 0.00723835 0)
(1.00866 0.00323331 0)
(1.00451 0.00492294 0)
(1.00299 0.00348401 0)
(1.00275 0.0082306 0)
(1.00166 0.0119716 0)
(1.00605 0.0135137 0)
(1.00679 0.016577 0)
(1.00773 0.0176154 0)
(1.00224 -0.000690723 0)
(0.997609 0.00113436 0)
(0.992475 -0.000621363 0)
(1.00477 0.0136415 0)
(1.00781 -0.00347874 0)
(0.996336 0.00169312 0)
(1.00033 0.0105596 0)
(0.997931 0.0141988 0)
(1.00133 0.0108229 0)
(1.00878 0.00889852 0)
(1.01012 0.0143535 0)
(1.0091 0.00757746 0)
(1.00838 0.00329296 0)
(1.00493 0.00533621 0)
(1.00303 0.00368567 0)
(1.00285 0.00803339 0)
(1.00169 0.0119578 0)
(1.00575 0.0133468 0)
(1.00682 0.0161176 0)
(1.00746 0.0174653 0)
(1.00208 -0.00068819 0)
(0.998106 0.00126787 0)
(0.992453 -0.000480935 0)
(1.00464 0.012771 0)
(1.00745 -0.00285532 0)
(0.99654 0.00187399 0)
(1.00037 0.0103226 0)
(0.998405 0.0140908 0)
(1.00135 0.0107079 0)
(1.00812 0.00847761 0)
(1.00942 0.0140959 0)
(1.00936 0.00792472 0)
(1.00816 0.00336654 0)
(1.00537 0.0057089 0)
(1.00311 0.00396728 0)
(1.00281 0.00782557 0)
(1.00166 0.0119197 0)
(1.00526 0.0132346 0)
(1.00678 0.0156382 0)
(1.00718 0.0171979 0)
(1.00184 -0.000695259 0)
(0.998573 0.0014129 0)
(0.992771 -0.00033732 0)
(1.00441 0.0118992 0)
(1.00696 -0.00224486 0)
(0.996744 0.0020734 0)
(1.0003 0.010063 0)
(0.998922 0.0139626 0)
(1.00159 0.0106355 0)
(1.00757 0.00809195 0)
(1.00863 0.013759 0)
(1.00953 0.00826384 0)
(1.00801 0.00346003 0)
(1.00576 0.00604029 0)
(1.00325 0.00433767 0)
(1.0027 0.00762784 0)
(1.00159 0.0118459 0)
(1.00466 0.0131717 0)
(1.00665 0.0151753 0)
(1.00691 0.0167872 0)
(1.00154 -0.000710101 0)
(0.998951 0.00156056 0)
(0.993429 -0.000189835 0)
(1.0041 0.0110434 0)
(1.00634 -0.00165584 0)
(0.996978 0.00229236 0)
(1.00014 0.009782 0)
(0.999427 0.0137967 0)
(1.002 0.0106053 0)
(1.00721 0.00775903 0)
(1.00786 0.0133484 0)
(1.00951 0.00858571 0)
(1.00791 0.00357826 0)
(1.00604 0.00631778 0)
(1.00344 0.0047915 0)
(1.0026 0.00746964 0)
(1.00155 0.0117259 0)
(1.00405 0.0131432 0)
(1.00645 0.0147668 0)
(1.00672 0.0162465 0)
(1.00122 -0.000729178 0)
(0.999201 0.00169968 0)
(0.994361 -3.79481e-05 0)
(1.00375 0.0102207 0)
(1.00561 -0.00109437 0)
(0.99726 0.00252322 0)
(0.999962 0.00948551 0)
(0.999883 0.0135822 0)
(1.00248 0.0106098 0)
(1.00706 0.00749098 0)
(1.00719 0.0128783 0)
(1.00929 0.00888482 0)
(1.00784 0.00372731 0)
(1.00622 0.00653261 0)
(1.00365 0.00531083 0)
(1.00255 0.00737151 0)
(1.00161 0.0115504 0)
(1.00354 0.0131299 0)
(1.00622 0.0144318 0)
(1.00663 0.0156085 0)
(1.00093 -0.000749602 0)
(0.99932 0.0018224 0)
(0.995447 0.000116409 0)
(1.00341 0.00944335 0)
(1.00483 -0.000565104 0)
(0.997588 0.00276451 0)
(0.999815 0.00918 0)
(1.00027 0.01331 0)
(1.00296 0.0106362 0)
(1.00708 0.0072983 0)
(1.0067 0.0123699 0)
(1.00888 0.00915579 0)
(1.00777 0.00391111 0)
(1.0063 0.00667941 0)
(1.00385 0.00587477 0)
(1.00258 0.00735084 0)
(1.00178 0.0113193 0)
(1.00321 0.0131049 0)
(1.006 0.0141851 0)
(1.00665 0.0149408 0)
(1.00067 -0.000768976 0)
(0.99933 0.00192526 0)
(0.996549 0.00026756 0)
(1.00311 0.00872705 0)
(1.00404 -7.46472e-05 0)
(0.997944 0.0030112 0)
(0.999739 0.00887372 0)
(1.00059 0.01298 0)
(1.00335 0.0106693 0)
(1.00723 0.00717694 0)
(1.00641 0.0118452 0)
(1.00832 0.00939494 0)
(1.00768 0.00413483 0)
(1.00632 0.00675531 0)
(1.00401 0.0064589 0)
(1.00268 0.00742494 0)
(1.00206 0.0110435 0)
(1.00308 0.0130329 0)
(1.0058 0.0140118 0)
(1.00675 0.0143314 0)
(1.00048 -0.000785148 0)
(0.999267 0.00200679 0)
(0.99755 0.00041308 0)
(1.00289 0.00807298 0)
(1.00331 0.000377581 0)
(0.998299 0.00325405 0)
(0.999756 0.00858016 0)
(1.00085 0.0125946 0)
(1.00361 0.0106999 0)
(1.00741 0.00711783 0)
(1.00632 0.0113172 0)
(1.00771 0.00960498 0)
(1.00755 0.0044082 0)
(1.00634 0.00676134 0)
(1.00414 0.00702163 0)
(1.00282 0.00759726 0)
(1.00243 0.0107403 0)
(1.00315 0.012896 0)
(1.00566 0.0138813 0)
(1.00688 0.0138384 0)
(1.00036 -0.000798471 0)
(0.999171 0.00207099 0)
(0.998379 0.000548868 0)
(1.00274 0.00747811 0)
(1.00267 0.000785219 0)
(0.998627 0.00348733 0)
(0.999867 0.00829881 0)
(1.00106 0.0121664 0)
(1.00371 0.0107182 0)
(1.00757 0.00710948 0)
(1.00637 0.0107935 0)
(1.00709 0.00978462 0)
(1.00735 0.00473983 0)
(1.00639 0.00671422 0)
(1.00424 0.00752569 0)
(1.00297 0.00786093 0)
(1.00283 0.0104339 0)
(1.00337 0.0126897 0)
(1.00559 0.0137549 0)
(1.007 0.0134719 0)
(1.00029 -0.000807925 0)
(0.999072 0.00211849 0)
(0.999011 0.000673499 0)
(1.00265 0.00694055 0)
(1.00214 0.00114917 0)
(0.998912 0.0037053 0)
(1.00006 0.00803848 0)
(1.00124 0.0117135 0)
(1.00368 0.0107137 0)
(1.00767 0.00714689 0)
(1.00652 0.0102854 0)
(1.00653 0.00992165 0)
(1.0071 0.00512139 0)
(1.00648 0.00663763 0)
(1.00434 0.00795098 0)
(1.00312 0.0081993 0)
(1.00324 0.0101476 0)
(1.00369 0.0124164 0)
(1.00559 0.0136113 0)
(1.0071 0.0132046 0)
(1.00026 -0.000815037 0)
(0.998989 0.00215622 0)
(0.999461 0.000786474 0)
(1.00262 0.00644473 0)
(1.00172 0.00148871 0)
(0.999149 0.00390416 0)
(1.0003 0.00779921 0)
(1.0014 0.011246 0)
(1.00355 0.0106824 0)
(1.00769 0.00721825 0)
(1.0067 0.00980334 0)
(1.00605 0.0100214 0)
(1.0068 0.00554743 0)
(1.00661 0.00653957 0)
(1.00446 0.00827285 0)
(1.00325 0.00860026 0)
(1.00363 0.00990979 0)
(1.0041 0.0120708 0)
(1.00565 0.0134399 0)
(1.00716 0.0129986 0)
(1.00025 -0.000819961 0)
(0.998931 0.00218521 0)
(0.999759 0.000886882 0)
(1.00262 0.00598867 0)
(1.00139 0.00180226 0)
(0.999344 0.00407984 0)
(1.00058 0.00757463 0)
(1.00154 0.0107771 0)
(1.00336 0.010625 0)
(1.00764 0.00731004 0)
(1.00689 0.00933773 0)
(1.00565 0.010074 0)
(1.00646 0.00602321 0)
(1.00676 0.00644907 0)
(1.00464 0.00846479 0)
(1.00336 0.00904351 0)
(1.00396 0.00976269 0)
(1.00456 0.0116586 0)
(1.00579 0.0132243 0)
(1.0072 0.0128238 0)
(1.00026 -0.000823401 0)
(0.998898 0.00220987 0)
(0.999947 0.000980726 0)
(1.00264 0.00555951 0)
(1.00114 0.00209487 0)
(0.999504 0.00423778 0)
(1.00086 0.00736318 0)
(1.00167 0.0103106 0)
(1.00313 0.0105411 0)
(1.00752 0.00742259 0)
(1.00706 0.00889977 0)
(1.00535 0.0100619 0)
(1.00609 0.00652701 0)
(1.00692 0.00640901 0)
(1.00488 0.00852713 0)
(1.00347 0.00947873 0)
(1.00422 0.00972969 0)
(1.00503 0.0112048 0)
(1.00599 0.0129445 0)
(1.00722 0.0126666 0)
(1.00027 -0.000825293 0)
(0.998886 0.00222547 0)
(1.00006 0.00107282 0)
(1.00265 0.00514839 0)
(1.00096 0.00237659 0)
(0.999639 0.00437574 0)
(1.00113 0.0071705 0)
(1.0018 0.009851 0)
(1.0029 0.0104208 0)
(1.00734 0.0075512 0)
(1.00721 0.00849748 0)
(1.00512 0.00999317 0)
(1.00572 0.00702475 0)
(1.00705 0.00643085 0)
(1.0052 0.00848005 0)
(1.00358 0.00986128 0)
(1.00438 0.00982552 0)
(1.00548 0.0107597 0)
(1.00626 0.0125748 0)
(1.00725 0.0125068 0)
(1.00028 -0.000824371 0)
(0.998891 0.00223628 0)
(1.00011 0.0011664 0)
(1.00266 0.00474108 0)
(1.00082 0.00264488 0)
(0.999757 0.00449913 0)
(1.00137 0.00697844 0)
(1.00193 0.00942572 0)
(1.00267 0.0102691 0)
(1.00712 0.00767364 0)
(1.00734 0.0081397 0)
(1.00496 0.00987188 0)
(1.00534 0.00750734 0)
(1.00715 0.00651717 0)
(1.00557 0.00833945 0)
(1.00374 0.0101322 0)
(1.00445 0.0100399 0)
(1.00586 0.0104223 0)
(1.00659 0.0121257 0)
(1.00729 0.0123324 0)
(1.00029 -0.000821533 0)
(0.998909 0.00223242 0)
(1.00013 0.00127239 0)
(1.00265 0.00433644 0)
(1.00072 0.00288891 0)
(0.999858 0.00462499 0)
(1.00158 0.00678977 0)
(1.00206 0.00900407 0)
(1.00246 0.0101051 0)
(1.00687 0.00780789 0)
(1.00744 0.00780466 0)
(1.00487 0.00970346 0)
(1.00497 0.00794576 0)
(1.00718 0.00668354 0)
(1.00598 0.00816316 0)
(1.00396 0.01027 0)
(1.00445 0.0102907 0)
(1.00615 0.0102257 0)
(1.00694 0.0116564 0)
(1.00736 0.0121083 0)
(1.00029 -0.000811326 0)
(0.998937 0.0022122 0)
(1.00013 0.00139741 0)
(1.00263 0.00391898 0)
(1.00064 0.00310851 0)
(0.999947 0.00474827 0)
(1.00175 0.00660587 0)
(1.0022 0.00860602 0)
(1.00228 0.00990213 0)
(1.00658 0.00793333 0)
(1.00751 0.00753844 0)
(1.00485 0.0094685 0)
(1.00462 0.00834708 0)
(1.00715 0.00688423 0)
(1.0064 0.00794266 0)
(1.00424 0.0102852 0)
(1.00442 0.0105361 0)
(1.00632 0.0101464 0)
(1.00729 0.0112095 0)
(1.00748 0.0118254 0)
(1.00029 -0.000800609 0)
(0.998974 0.00217828 0)
(1.0001 0.00152879 0)
(1.00261 0.00352559 0)
(1.00058 0.00329087 0)
(1.00002 0.0048771 0)
(1.0019 0.00643652 0)
(1.00233 0.00821874 0)
(1.00213 0.00968392 0)
(1.00629 0.00804843 0)
(1.00756 0.00729691 0)
(1.00489 0.00920474 0)
(1.00431 0.0086648 0)
(1.00704 0.0071727 0)
(1.00682 0.00771971 0)
(1.00462 0.0100712 0)
(1.00439 0.010716 0)
(1.00638 0.0100847 0)
(1.00758 0.0107183 0)
(1.00763 0.0113894 0)
(1.00028 -0.000776592 0)
(0.999018 0.00211404 0)
(1.00006 0.00167607 0)
(1.00257 0.00316138 0)
(1.00054 0.00341427 0)
(1.00008 0.00502929 0)
(1.002 0.00627692 0)
(1.00247 0.00784087 0)
(1.00201 0.00944455 0)
(1.00596 0.00816144 0)
(1.00757 0.00710449 0)
(1.00498 0.00893397 0)
(1.00405 0.00884315 0)
(1.00686 0.00746463 0)
(1.00716 0.00756856 0)
(1.00506 0.00970993 0)
(1.0044 0.0107165 0)
(1.00632 0.010034 0)
(1.00781 0.0101999 0)
(1.00787 0.0108628 0)
(1.00027 -0.000753911 0)
(0.999071 0.0020429 0)
(1 0.00181866 0)
(1.00252 0.00284055 0)
(1.00053 0.00348347 0)
(1.00012 0.00516674 0)
(1.00206 0.00613437 0)
(1.00261 0.00749032 0)
(1.00194 0.00917586 0)
(1.00564 0.00825465 0)
(1.00754 0.00698354 0)
(1.0051 0.00857726 0)
(1.00384 0.00902533 0)
(1.00662 0.00773926 0)
(1.00743 0.00740912 0)
(1.00553 0.0093751 0)
(1.00446 0.01052 0)
(1.00618 0.010014 0)
(1.00794 0.00979948 0)
(1.0082 0.0103822 0)
(1.00025 -0.000714198 0)
(0.99913 0.00192953 0)
(0.999926 0.00197221 0)
(1.00246 0.00257175 0)
(1.00054 0.00347738 0)
(1.00015 0.00529812 0)
(1.00209 0.00603833 0)
(1.00274 0.00712975 0)
(1.0019 0.00889081 0)
(1.00531 0.00834391 0)
(1.00746 0.00688212 0)
(1.00527 0.0082759 0)
(1.00371 0.00904434 0)
(1.00631 0.00799299 0)
(1.00762 0.00738315 0)
(1.006 0.00897444 0)
(1.00457 0.0103346 0)
(1.00602 0.0100873 0)
(1.00799 0.00966127 0)
(1.00858 0.0100776 0)
(1.00023 -0.000670636 0)
(0.999197 0.00180672 0)
(0.999841 0.00211813 0)
(1.00239 0.00235685 0)
(1.00058 0.00340768 0)
(1.00018 0.00541639 0)
(1.00207 0.00595746 0)
(1.00286 0.00679128 0)
(1.0019 0.00858837 0)
(1.00499 0.00839991 0)
(1.00734 0.00684405 0)
(1.00543 0.00796304 0)
(1.00362 0.00895989 0)
(1.00604 0.00827324 0)
(1.0077 0.00738249 0)
(1.00646 0.00855014 0)
(1.00482 0.010097 0)
(1.00587 0.0101102 0)
(1.00795 0.00963447 0)
(1.00883 0.0097738 0)
(1.0002 -0.000621211 0)
(0.999272 0.00166904 0)
(0.999748 0.00224046 0)
(1.0023 0.00222686 0)
(1.00063 0.0032743 0)
(1.00021 0.00549018 0)
(1.00202 0.00592886 0)
(1.00296 0.00649471 0)
(1.00193 0.00824725 0)
(1.00468 0.00841527 0)
(1.00716 0.00686026 0)
(1.0056 0.0076446 0)
(1.00365 0.00887471 0)
(1.00571 0.00847586 0)
(1.00765 0.007429 0)
(1.0069 0.00822806 0)
(1.00512 0.00974096 0)
(1.00577 0.0101089 0)
(1.00784 0.0096169 0)
(1.00908 0.00946744 0)
(1.00018 -0.000555719 0)
(0.999356 0.00150714 0)
(0.999654 0.00235565 0)
(1.00219 0.00214288 0)
(1.00072 0.00311181 0)
(1.00026 0.00550928 0)
(1.00193 0.00593855 0)
(1.00302 0.00623197 0)
(1.002 0.00788206 0)
(1.0044 0.00840947 0)
(1.00695 0.00691608 0)
(1.00575 0.00738875 0)
(1.00369 0.00867961 0)
(1.00543 0.00861336 0)
(1.00755 0.00762516 0)
(1.00725 0.00798553 0)
(1.00552 0.0094199 0)
(1.00575 0.0101129 0)
(1.00765 0.00965547 0)
(1.00915 0.00932249 0)
(1.00015 -0.00049486 0)
(0.999447 0.00135669 0)
(0.999565 0.00242353 0)
(1.00207 0.00213551 0)
(1.00081 0.00293938 0)
(1.00033 0.00545569 0)
(1.00181 0.00597028 0)
(1.00306 0.00602379 0)
(1.00211 0.00752845 0)
(1.00416 0.00832954 0)
(1.00668 0.00697622 0)
(1.00588 0.00717166 0)
(1.00383 0.00849996 0)
(1.00519 0.00873157 0)
(1.00735 0.00775349 0)
(1.00752 0.00786777 0)
(1.00597 0.00910053 0)
(1.0058 0.00996284 0)
(1.00743 0.00967917 0)
(1.0091 0.0091949 0)
(1.00012 -0.000422363 0)
(0.999545 0.00120336 0)
(0.999487 0.00246335 0)
(1.00193 0.00217535 0)
(1.0009 0.00276211 0)
(1.00043 0.00533638 0)
(1.00169 0.00600731 0)
(1.00305 0.00588778 0)
(1.00222 0.00716217 0)
(1.00396 0.00818179 0)
(1.0064 0.00706057 0)
(1.00597 0.00704975 0)
(1.00399 0.00825898 0)
(1.00498 0.00870947 0)
(1.00713 0.00792554 0)
(1.00771 0.00784448 0)
(1.0064 0.00874092 0)
(1.00594 0.00970808 0)
(1.00721 0.00962909 0)
(1.00894 0.00906547 0)
(1.00008 -0.000353782 0)
(0.999647 0.0010627 0)
(0.999426 0.0024601 0)
(1.00178 0.00224848 0)
(1.001 0.00262332 0)
(1.00056 0.00513352 0)
(1.00156 0.00602607 0)
(1.003 0.00582125 0)
(1.00233 0.00683177 0)
(1.00381 0.00800169 0)
(1.00611 0.00710782 0)
(1.00601 0.00692929 0)
(1.00418 0.00800196 0)
(1.00487 0.0086958 0)
(1.00689 0.00807387 0)
(1.00776 0.00780891 0)
(1.00677 0.0084071 0)
(1.00615 0.00937895 0)
(1.00702 0.00951275 0)
(1.00872 0.00895875 0)
(1.00005 -0.000284335 0)
(0.999752 0.000938357 0)
(0.999384 0.002417 0)
(1.00161 0.00234144 0)
(1.00107 0.00252017 0)
(1.00072 0.00488584 0)
(1.00147 0.00600319 0)
(1.00291 0.00581404 0)
(1.00244 0.00655146 0)
(1.0037 0.00776343 0)
(1.00583 0.00711237 0)
(1.00601 0.00686975 0)
(1.00439 0.00777795 0)
(1.00479 0.00859537 0)
(1.00663 0.00811072 0)
(1.00774 0.00779263 0)
(1.00709 0.0081592 0)
(1.00643 0.00901546 0)
(1.0069 0.00932973 0)
(1.00845 0.00886113 0)
(1.00002 -0.000220691 0)
(0.999855 0.000832393 0)
(0.999366 0.00233882 0)
(1.00145 0.00243768 0)
(1.00112 0.00247912 0)
(1.0009 0.00461156 0)
(1.0014 0.00590812 0)
(1.0028 0.00583392 0)
(1.00252 0.00632951 0)
(1.00363 0.00750729 0)
(1.00556 0.00707873 0)
(1.00597 0.0068256 0)
(1.0046 0.00754356 0)
(1.00477 0.00842592 0)
(1.0064 0.0081255 0)
(1.00765 0.00780106 0)
(1.00732 0.00795328 0)
(1.0067 0.00862359 0)
(1.00685 0.00906259 0)
(1.00817 0.00875587 0)
(0.999993 -0.000163981 0)
(0.999955 0.000751378 0)
(0.999369 0.00222915 0)
(1.0013 0.00252799 0)
(1.00115 0.00248843 0)
(1.0011 0.00432032 0)
(1.00138 0.00574574 0)
(1.00269 0.00586578 0)
(1.00257 0.00617579 0)
(1.00358 0.00725561 0)
(1.00532 0.00699853 0)
(1.0059 0.00678039 0)
(1.00479 0.00733136 0)
(1.00479 0.00822651 0)
(1.00619 0.00808189 0)
(1.00751 0.00776826 0)
(1.00745 0.00778091 0)
(1.00697 0.00827459 0)
(1.00691 0.00874951 0)
(1.00793 0.00862868 0)
(0.999966 -0.000115247 0)
(1.00005 0.000695102 0)
(0.999394 0.00209442 0)
(1.00116 0.00259884 0)
(1.00115 0.00254803 0)
(1.00128 0.00406266 0)
(1.00141 0.00550624 0)
(1.00258 0.00586069 0)
(1.00259 0.00606232 0)
(1.00354 0.00702032 0)
(1.00511 0.0068962 0)
(1.00582 0.00673247 0)
(1.00496 0.00712625 0)
(1.00485 0.00799343 0)
(1.00602 0.00798423 0)
(1.00734 0.00772051 0)
(1.00751 0.00765855 0)
(1.00719 0.00798986 0)
(1.00701 0.00839427 0)
(1.00773 0.00842513 0)
(0.999942 -7.7215e-05 0)
(1.00013 0.000667475 0)
(0.999437 0.00195362 0)
(1.00105 0.00263993 0)
(1.00113 0.0026325 0)
(1.00145 0.00385445 0)
(1.00148 0.00521198 0)
(1.0025 0.00580863 0)
(1.0026 0.00597867 0)
(1.00351 0.00681047 0)
(1.00492 0.00676911 0)
(1.00571 0.00666466 0)
(1.0051 0.00692905 0)
(1.00494 0.00774351 0)
(1.00588 0.00785405 0)
(1.00717 0.00763844 0)
(1.00751 0.00751713 0)
(1.00734 0.00773729 0)
(1.00713 0.00805365 0)
(1.00761 0.00817967 0)
(0.999921 -4.75004e-05 0)
(1.0002 0.0006573 0)
(0.999491 0.00181698 0)
(1.00096 0.00264897 0)
(1.00109 0.00272031 0)
(1.00159 0.00371155 0)
(1.00157 0.00491468 0)
(1.00246 0.00568051 0)
(1.00258 0.0058866 0)
(1.00347 0.00661512 0)
(1.00475 0.00661762 0)
(1.00559 0.00658873 0)
(1.00521 0.00676068 0)
(1.00505 0.00747591 0)
(1.00578 0.00767631 0)
(1.00699 0.00752596 0)
(1.00746 0.00736412 0)
(1.00744 0.00751468 0)
(1.00726 0.00775896 0)
(1.00755 0.00790877 0)
(0.999903 -2.63758e-05 0)
(1.00026 0.000662694 0)
(0.999553 0.00169296 0)
(1.00091 0.00262531 0)
(1.00104 0.00279388 0)
(1.00169 0.00362701 0)
(1.00168 0.00463414 0)
(1.00245 0.00548463 0)
(1.00258 0.00576683 0)
(1.00342 0.00643744 0)
(1.00461 0.00646373 0)
(1.00547 0.00649005 0)
(1.00528 0.0066004 0)
(1.00516 0.00720213 0)
(1.00573 0.00745127 0)
(1.00681 0.00739764 0)
(1.00739 0.00722088 0)
(1.0075 0.0072875 0)
(1.00736 0.00746198 0)
(1.00752 0.00761893 0)
(0.999888 -1.27249e-05 0)
(1.00031 0.000681849 0)
(0.999615 0.00158405 0)
(1.00088 0.00257314 0)
(1.00099 0.0028428 0)
(1.00176 0.0035732 0)
(1.00177 0.00439499 0)
(1.00247 0.00526459 0)
(1.00258 0.00560657 0)
(1.00338 0.00625956 0)
(1.00447 0.00630576 0)
(1.00535 0.00636451 0)
(1.00532 0.00643568 0)
(1.00526 0.00695087 0)
(1.00571 0.00720318 0)
(1.00666 0.00722261 0)
(1.00727 0.0070709 0)
(1.0075 0.0070733 0)
(1.00744 0.00716928 0)
(1.00753 0.00733489 0)
(0.999875 -3.59398e-06 0)
(1.00035 0.000704854 0)
(0.999674 0.0014944 0)
(1.00087 0.00250218 0)
(1.00096 0.00286294 0)
(1.00181 0.00352571 0)
(1.00185 0.00419492 0)
(1.00251 0.00503744 0)
(1.0026 0.00541172 0)
(1.00334 0.00606716 0)
(1.00435 0.00613899 0)
(1.00523 0.00623307 0)
(1.00534 0.00627004 0)
(1.00534 0.0067089 0)
(1.0057 0.00695202 0)
(1.00654 0.00700008 0)
(1.00716 0.00688623 0)
(1.00746 0.00689275 0)
(1.0075 0.00689862 0)
(1.00755 0.00704193 0)
(0.999866 3.26892e-07 0)
(1.00038 0.00072953 0)
(0.999726 0.00142425 0)
(1.00087 0.00241627 0)
(1.00092 0.00285568 0)
(1.00183 0.00347654 0)
(1.00192 0.00402322 0)
(1.00255 0.00481413 0)
(1.00263 0.00520173 0)
(1.00332 0.00586261 0)
(1.00423 0.00595673 0)
(1.0051 0.00608616 0)
(1.00533 0.0061053 0)
(1.0054 0.0064575 0)
(1.0057 0.00669758 0)
(1.00643 0.00677883 0)
(1.00706 0.006656 0)
(1.00738 0.00670272 0)
(1.00749 0.0066552 0)
(1.00758 0.00673821 0)
(0.999858 3.50217e-06 0)
(1.0004 0.000746588 0)
(0.999767 0.00137133 0)
(1.00089 0.00232304 0)
(1.0009 0.00282025 0)
(1.00184 0.00342057 0)
(1.00196 0.00387495 0)
(1.00259 0.00460521 0)
(1.00268 0.00497704 0)
(1.0033 0.00564554 0)
(1.00413 0.00576366 0)
(1.00498 0.0059127 0)
(1.00529 0.00593863 0)
(1.00544 0.00621912 0)
(1.00572 0.00642119 0)
(1.00632 0.00657093 0)
(1.00697 0.00641773 0)
(1.00732 0.0064644 0)
(1.00744 0.00644303 0)
(1.00759 0.00644642 0)
(0.999852 4.93061e-06 0)
(1.00041 0.000757988 0)
(0.999798 0.00132974 0)
(1.00091 0.00223142 0)
(1.00089 0.00276137 0)
(1.00185 0.00335172 0)
(1.00199 0.00373528 0)
(1.00262 0.00441131 0)
(1.00272 0.00475006 0)
(1.0033 0.00541453 0)
(1.00404 0.00556508 0)
(1.00487 0.0057224 0)
(1.00524 0.00574456 0)
(1.00545 0.00600058 0)
(1.00574 0.00612896 0)