/*--------------------------------*- C++ -*----------------------------------*\
| =========                 |                                                 |
| \\      /  F ield         | OpenFOAM: The Open Source CFD Toolbox           |
|  \\    /   O peration     | Version:  v1912                                 |
|   \\  /    A nd           | Website:  www.openfoam.com                      |
|    \\/     M anipulation  |                                                 |
\*---------------------------------------------------------------------------*/
FoamFile
{
    version     2.0;
    format      ascii;
    class       volScalarField;
    location    "8.15";
    object      p;
}
// * * * * * * * * * * * * * * * * * * * * * * * * * * * * * * * * * * * * * //

dimensions      [0 2 -2 0 0 0 0];


internalField   nonuniform List<scalar> 
9600
(
-9.20482e-11
-0.00270999
-0.00203518
0.00238278
-0.00460346
-0.00435125
0.00276971
0.00154265
-0.0010555
-0.0015919
-0.00057285
-0.00527019
-0.0087415
-0.00624694
-0.0126203
-0.0138118
-0.0163915
-0.0174682
-0.0193788
-0.0210544
2.58313e-06
-0.00271632
-0.00202088
0.00235676
-0.00457508
-0.00432517
0.00272751
0.00157238
-0.00104012
-0.00162121
-0.000548709
-0.00528614
-0.00870032
-0.00641006
-0.0125921
-0.0138308
-0.0163622
-0.0174505
-0.0193586
-0.0210073
5.22916e-06
-0.00272399
-0.00201182
0.00232469
-0.00452684
-0.00428079
0.00267599
0.00159753
-0.00103025
-0.00165859
-0.000524419
-0.00530707
-0.00865992
-0.00654943
-0.0125295
-0.0138513
-0.016297
-0.0174253
-0.0193446
-0.0209013
5.99132e-06
-0.00273289
-0.0020061
0.00228258
-0.00447479
-0.00421653
0.00260649
0.00159093
-0.00103156
-0.00170971
-0.000521881
-0.00534039
-0.00861717
-0.00670171
-0.0124595
-0.0138611
-0.0162296
-0.0174153
-0.0193381
-0.0208131
4.90211e-06
-0.00274301
-0.00200286
0.00222713
-0.00441754
-0.00413636
0.00251368
0.00155759
-0.00104454
-0.00177758
-0.000540514
-0.00538655
-0.00856092
-0.00687345
-0.0123896
-0.0138677
-0.0161776
-0.0174115
-0.0193355
-0.0207485
2.38311e-06
-0.00275411
-0.00200177
0.00215729
-0.00435258
-0.00404806
0.00239773
0.0015076
-0.00106806
-0.00185932
-0.000575706
-0.00544659
-0.00848949
-0.00706363
-0.012318
-0.0138762
-0.0161313
-0.0173986
-0.0193405
-0.0206839
-1.22172e-06
-0.00276601
-0.00200249
0.00207428
-0.00428053
-0.00395848
0.00226264
0.00144744
-0.00110029
-0.00194932
-0.000623276
-0.00552008
-0.00840806
-0.00726201
-0.0122431
-0.0138809
-0.0160808
-0.017379
-0.0193497
-0.0206076
-5.63565e-06
-0.00277863
-0.00200465
0.00198041
-0.00420356
-0.00387214
0.00211357
0.00138108
-0.00113807
-0.00204195
-0.000678766
-0.0056058
-0.00832234
-0.00745975
-0.0121661
-0.0138761
-0.0160324
-0.0173558
-0.0193556
-0.0205302
-1.06419e-05
-0.00279201
-0.00200799
0.00187808
-0.0041236
-0.0037908
0.00195492
0.00131134
-0.00117805
-0.00213374
-0.000739815
-0.00570064
-0.00823693
-0.00765078
-0.0120889
-0.0138631
-0.0159924
-0.0173253
-0.0193588
-0.0204635
-1.61138e-05
-0.00280628
-0.00201235
0.00176936
-0.0040418
-0.00371464
0.00178968
0.00123976
-0.00121809
-0.00222402
-0.000805879
-0.00579985
-0.00815357
-0.00783035
-0.0120139
-0.0138438
-0.0159591
-0.0172856
-0.0193626
-0.020407
-2.20209e-05
-0.00282165
-0.00201763
0.0016558
-0.00395892
-0.00364322
0.00161983
0.00116683
-0.00125755
-0.00231424
-0.000876848
-0.005899
-0.00807318
-0.00799491
-0.011944
-0.013816
-0.0159306
-0.0172388
-0.0193646
-0.0203567
-2.84071e-05
-0.00283837
-0.00202375
0.00153852
-0.00387564
-0.00357581
0.00144691
0.00109233
-0.00129699
-0.00240652
-0.000952361
-0.0059954
-0.00799662
-0.00814309
-0.0118814
-0.0137775
-0.0159078
-0.0171862
-0.0193598
-0.0203157
-3.53615e-05
-0.00285668
-0.00203065
0.00141833
-0.00379254
-0.00351156
0.00127217
0.00101561
-0.00133791
-0.00250226
-0.00103132
-0.00608859
-0.00792487
-0.00827484
-0.0118289
-0.0137279
-0.0158919
-0.0171288
-0.0193446
-0.020289
-4.29982e-05
-0.00287679
-0.0020383
0.00129591
-0.00371012
-0.00344977
0.0010965
0.000935928
-0.00138195
-0.00260191
-0.00111217
-0.00617982
-0.00786129
-0.0083905
-0.0117893
-0.0136677
-0.0158823
-0.0170696
-0.0193156
-0.0202776
-5.14258e-05
-0.00289884
-0.00204662
0.00117185
-0.00362879
-0.00338999
0.000920189
0.000852743
-0.00143044
-0.00270526
-0.00119362
-0.00627071
-0.00780972
-0.00849024
-0.0117646
-0.0135977
-0.0158775
-0.017013
-0.0192673
-0.0202791
-6.07183e-05
-0.00292288
-0.00205558
0.0010467
-0.00354889
-0.00333207
0.000743131
0.000765617
-0.00148423
-0.00281199
-0.0012752
-0.00636192
-0.00777239
-0.00857377
-0.0117566
-0.0135198
-0.0158744
-0.016964
-0.0191953
-0.0202891
-7.09144e-05
-0.00294887
-0.00206513
0.000920918
-0.00347072
-0.00327601
0.000564957
0.000674286
-0.00154379
-0.00292212
-0.00135734
-0.00645272
-0.00775061
-0.00864064
-0.0117657
-0.0134363
-0.0158683
-0.016928
-0.0190973
-0.0203018
-8.20361e-05
-0.00297673
-0.0020753
0.000794891
-0.00339447
-0.00322187
0.000385217
0.000578632
-0.00160922
-0.00303592
-0.00144108
-0.00654164
-0.00774564
-0.00869054
-0.0117908
-0.0133508
-0.015854
-0.0169095
-0.0189747
-0.0203087
-9.41247e-05
-0.0030063
-0.00208617
0.000668888
-0.00332031
-0.00316989
0.000203588
0.00047871
-0.00168042
-0.00315369
-0.00152749
-0.0066271
-0.00775855
-0.00872313
-0.0118292
-0.0132676
-0.0158249
-0.016911
-0.0188314
-0.0202992
-0.000107264
-0.00303739
-0.00209796
0.000543075
-0.00324849
-0.00312041
2.00073e-05
0.000374681
-0.00175723
-0.00327569
-0.0016173
-0.00670765
-0.0077906
-0.00873842
-0.011877
-0.0131924
-0.015775
-0.0169319
-0.0186745
-0.0202626
-0.000121577
-0.00306982
-0.00211095
0.000417582
-0.00317937
-0.00307386
-0.00016535
0.000266634
-0.00183938
-0.003402
-0.00171108
-0.00678212
-0.00784299
-0.00873739
-0.0119289
-0.0131306
-0.0156995
-0.016969
-0.0185135
-0.0201891
-0.000137214
-0.00310342
-0.0021255
0.00029257
-0.00311346
-0.00303066
-0.000352174
0.000154549
-0.0019264
-0.00353255
-0.00180951
-0.0068496
-0.0079162
-0.00872195
-0.0119795
-0.0130873
-0.0155965
-0.0170163
-0.0183595
-0.0200711
-0.000154348
-0.00313799
-0.002142
0.000168249
-0.00305136
-0.00299114
-0.000540046
3.83236e-05
-0.00201777
-0.00366736
-0.00191345
-0.00690896
-0.00801045
-0.0086948
-0.0120233
-0.0130679
-0.0154667
-0.0170646
-0.0182242
-0.0199051
-0.000173165
-0.00317335
-0.00216085
4.48948e-05
-0.00299367
-0.00295554
-0.000728515
-8.22085e-05
-0.00211294
-0.00380664
-0.00202386
-0.00695891
-0.00812555
-0.00865931
-0.0120545
-0.0130761
-0.0153142
-0.0171031
-0.0181175
-0.0196943
-0.000193856
-0.00320929
-0.0021825
-7.71626e-05
-0.00294097
-0.00292395
-0.00091716
-0.00020736
-0.00221132
-0.00395053
-0.00214181
-0.00699843
-0.00826023
-0.0086196
-0.0120679
-0.0131136
-0.015146
-0.0171197
-0.0180451
-0.0194496
-0.000216628
-0.00324558
-0.00220741
-0.000197572
-0.00289382
-0.00289639
-0.00110557
-0.000337717
-0.00231221
-0.00409909
-0.00226849
-0.00702653
-0.00841288
-0.00858094
-0.0120581
-0.0131799
-0.0149721
-0.0171018
-0.0180067
-0.0191886
-0.000241691
-0.00328198
-0.00223602
-0.000315908
-0.00285282
-0.0028729
-0.00129328
-0.000473832
-0.00241492
-0.00425241
-0.00240503
-0.00704206
-0.0085817
-0.00854939
-0.0120199
-0.0132718
-0.0148045
-0.0170384
-0.0179957
-0.0189334
-0.00026929
-0.00331821
-0.00226883
-0.000431796
-0.00281847
-0.00285366
-0.00147971
-0.000616095
-0.00251885
-0.00441062
-0.00255258
-0.00704412
-0.00876363
-0.00853071
-0.0119491
-0.0133843
-0.0146564
-0.0169216
-0.0179999
-0.0187076
-0.000299689
-0.00335399
-0.00230638
-0.000544938
-0.00279122
-0.00283879
-0.00166435
-0.000765311
-0.00262334
-0.00457336
-0.0027123
-0.00703218
-0.00895479
-0.0085311
-0.0118435
-0.0135091
-0.0145406
-0.0167499
-0.0180023
-0.0185314
-0.000333126
-0.00338903
-0.0023492
-0.000655009
-0.00277153
-0.00282857
-0.00184666
-0.000922451
-0.00272757
-0.00473985
-0.00288558
-0.00700628
-0.00915315
-0.00855737
-0.0117031
-0.0136347
-0.0144682
-0.0165309
-0.0179813
-0.0184141
-0.000369895
-0.00342299
-0.00239787
-0.000761791
-0.00275951
-0.00282364
-0.00202585
-0.0010883
-0.00283098
-0.00490907
-0.00307387
-0.00696725
-0.00935823
-0.00861586
-0.0115312
-0.0137467
-0.014446
-0.0162804
-0.0179134
-0.0183514
-0.000410313
-0.00345551
-0.00245291
-0.000865137
-0.00275533
-0.00282468
-0.00220117
-0.00126398
-0.0029335
-0.00507938
-0.00327827
-0.00691616
-0.00956342
-0.00871181
-0.0113345
-0.0138301
-0.0144748
-0.0160196
-0.0177779
-0.0183233
-0.000454694
-0.00348624
-0.0025149
-0.000964941
-0.00275916
-0.00283256
-0.00237185
-0.00145061
-0.00303534
-0.00524849
-0.00349977
-0.00685547
-0.00974934
-0.00884785
-0.0111226
-0.0138703
-0.0145475
-0.0157729
-0.0175655
-0.0183003
-0.000503427
-0.0035148
-0.00258433
-0.00106134
-0.00277055
-0.00284849
-0.00253684
-0.00164868
-0.00313764
-0.00541391
-0.00373923
-0.00678862
-0.00990853
-0.00902364
-0.0109082
-0.0138545
-0.0146502
-0.015564
-0.0172841
-0.0182475
-0.000556896
-0.00354084
-0.00266164
-0.00115454
-0.00278893
-0.00287387
-0.00269195
-0.00185827
-0.00324245
-0.0055727
-0.0039969
-0.00672082
-0.0100362
-0.00923543
-0.010705
-0.0137752
-0.014766
-0.015411
-0.0169574
-0.018128
-0.000615515
-0.00356394
-0.00274719
-0.00124501
-0.00281343
-0.0029103
-0.00283714
-0.00207891
-0.00335234
-0.00572193
-0.00427156
-0.00665879
-0.0101277
-0.00947624
-0.0105284
-0.0136332
-0.0148758
-0.0153184
-0.0166143
-0.0179187
-0.000679721
-0.00358371
-0.00284117
-0.0013336
-0.00284281
-0.00295963
-0.00297173
-0.00230863
-0.00347073
-0.00585956
-0.00456065
-0.00660977
-0.0101805
-0.00973721
-0.0103908
-0.0134355
-0.0149631
-0.0152791
-0.0162832
-0.0176236
-0.000749901
-0.00359985
-0.00294365
-0.00142141
-0.00287533
-0.00302372
-0.00309586
-0.00254403
-0.00360119
-0.00598424
-0.00486059
-0.00658049
-0.0101946
-0.0100087
-0.0103006
-0.0131913
-0.0150119
-0.0152821
-0.015987
-0.0172673
-0.000826512
-0.00361204
-0.0030544
-0.00151017
-0.00290869
-0.00310336
-0.00321157
-0.00278105
-0.00374619
-0.00609697
-0.00516651
-0.00657682
-0.0101722
-0.0102781
-0.0102666
-0.0129175
-0.0150053
-0.0153093
-0.0157346
-0.0168783
-0.000910052
-0.00361992
-0.00317303
-0.00160158
-0.0029405
-0.00319908
-0.00332204
-0.00301451
-0.00390719
-0.00620049
-0.00547157
-0.00660184
-0.0101195
-0.0105323
-0.0102903
-0.0126365
-0.0149362
-0.0153431
-0.0155206
-0.0164736
-0.00100095
-0.00362331
-0.00329905
-0.0016977
-0.00296801
-0.00331034
-0.0034321
-0.00323892
-0.00408389
-0.00629923
-0.00576886
-0.00665383
-0.0100448
-0.0107647
-0.0103683
-0.0123677
-0.0148081
-0.0153725
-0.0153384
-0.0160583
-0.00109967
-0.00362216
-0.00343076
-0.00180275
-0.00298997
-0.00343469
-0.00354695
-0.00345082
-0.0042736
-0.0063976
-0.00605449
-0.00673308
-0.00995412
-0.0109666
-0.0104925
-0.0121307
-0.0146303
-0.0153904
-0.0151874
-0.0156379
-0.00120645
-0.00361637
-0.0035664
-0.00191973
-0.00300587
-0.00356898
-0.00367176
-0.00364833
-0.00447167
-0.00649977
-0.00632568
-0.00683601
-0.00985693
-0.0111305
-0.01065
-0.0119318
-0.0144092
-0.0153907
-0.0150844
-0.0152269
-0.00132149
-0.00360669
-0.00370371
-0.00205213
-0.00301622
-0.00370758
-0.00381118
-0.00383208
-0.00467101
-0.00661015
-0.00658398
-0.00695663
-0.00975616
-0.0112517
-0.0108284
-0.0117657
-0.0141359
-0.0153369
-0.0150409
-0.0149344
-0.00144501
-0.00359388
-0.00383997
-0.00220313
-0.00302314
-0.0038439
-0.00396747
-0.00400539
-0.00486536
-0.00672732
-0.0068314
-0.00709388
-0.00965571
-0.011327
-0.0110075
-0.0116349
-0.0138328
-0.0152253
-0.0150484
-0.014772
-0.00157691
-0.00357894
-0.00397291
-0.00237449
-0.00303042
-0.00397191
-0.0041402
-0.00417442
-0.00504962
-0.00684967
-0.00707035
-0.00724467
-0.00955871
-0.0113606
-0.0111738
-0.0115356
-0.0135234
-0.0150741
-0.0150861
-0.014741
-0.00171732
-0.00356343
-0.00409854
-0.0025675
-0.00304359
-0.00408552
-0.00432727
-0.00434596
-0.00522028
-0.00697317
-0.00730184
-0.00741006
-0.00946654
-0.0113491
-0.0113373
-0.0114997
-0.0132564
-0.014916
-0.0151303
-0.0147424
-0.0018661
-0.00354919
-0.00421439
-0.00278149
-0.00306915
-0.00418164
-0.00452358
-0.00452508
-0.00537796
-0.00709099
-0.00752451
-0.00758985
-0.0093887
-0.011298
-0.0114725
-0.0115102
-0.0129999
-0.0147138
-0.0151396
-0.0148179
-0.00202281
-0.00353855
-0.0043178
-0.00301428
-0.00311404
-0.0042593
-0.00472216
-0.00471766
-0.00552464
-0.00719615
-0.00773834
-0.00778532
-0.00932805
-0.0112147
-0.0115908
-0.0115816
-0.0127847
-0.0144757
-0.0151055
-0.0148682
-0.00218685
-0.00353374
-0.00440666
-0.003262
-0.00318309
-0.00432108
-0.00491638
-0.00492375
-0.00566529
-0.00728662
-0.00793815
-0.00799399
-0.00929522
-0.0111178
-0.0116876
-0.0116798
-0.0126191
-0.0142191
-0.0150065
-0.0148833
-0.00235722
-0.00353732
-0.00448004
-0.00351697
-0.00328231
-0.00437289
-0.00509814
-0.00514108
-0.00580814
-0.00736255
-0.00811984
-0.00821212
-0.00929789
-0.0110124
-0.0117431
-0.0117931
-0.0125116
-0.0139493
-0.0148535
-0.0148633
-0.00253252
-0.0035521
-0.00453624
-0.00377227
-0.00341644
-0.00442261
-0.00526243
-0.00536641
-0.00595743
-0.00742782
-0.0082804
-0.00843118
-0.009333
-0.0109074
-0.0117638
-0.0119041
-0.0124447
-0.0136851
-0.0146527
-0.0147929
-0.00271121
-0.00358041
-0.00457856
-0.00402042
-0.00358682
-0.00448035
-0.00540755
-0.00559259
-0.00611736
-0.00748781
-0.00841543
-0.00864348
-0.00939939
-0.0108158
-0.0117464
-0.0119854
-0.0124116
-0.0134552
-0.0144175
-0.014678
-0.00289154
-0.00362417
-0.0046086
-0.00425483
-0.00379245
-0.00455423
-0.00553386
-0.00581495
-0.0062888
-0.00754539
-0.00852527
-0.00884222
-0.00948839
-0.0107381
-0.011698
-0.0120389
-0.0124024
-0.0132676
-0.014177
-0.0145272
-0.00307195
-0.00368448
-0.00463057
-0.00447079
-0.00402669
-0.00465075
-0.0056467
-0.00602819
-0.00646914
-0.00760714
-0.00861178
-0.00901772
-0.0095909
-0.0106817
-0.011635
-0.0120658
-0.0123971
-0.0131137
-0.0139568
-0.014355
-0.00325142
-0.00376097
-0.0046509
-0.00466702
-0.00427765
-0.00477316
-0.00575275
-0.00622907
-0.0066567
-0.00767692
-0.00867822
-0.0091663
-0.00969957
-0.0106483
-0.0115622
-0.0120657
-0.0123944
-0.0129859
-0.0137569
-0.014174
-0.00342899
-0.00385267
-0.00467637
-0.00484218
-0.00453413
-0.00492274
-0.00585862
-0.00641691
-0.00684829
-0.00775649
-0.00872921
-0.00928614
-0.00980606
-0.0106382
-0.0114893
-0.0120409
-0.0123926
-0.0128756
-0.0135603
-0.0139988
-0.00360412
-0.00395814
-0.00471201
-0.0049975
-0.00478844
-0.00509816
-0.00596909
-0.00658953
-0.00703909
-0.00784875
-0.00877099
-0.00937838
-0.009904
-0.0106479
-0.0114267
-0.0119918
-0.0123775
-0.0127876
-0.0133707
-0.0138272
-0.00377659
-0.00407568
-0.00476107
-0.00513744
-0.00503509
-0.00529313
-0.00608709
-0.00674737
-0.00722471
-0.00795385
-0.00881196
-0.00944782
-0.00998583
-0.0106663
-0.0113812
-0.0119328
-0.0123419
-0.0127208
-0.0131979
-0.0136419
-0.00394642
-0.00420366
-0.00482522
-0.0052666
-0.00527083
-0.00550064
-0.00621442
-0.0068928
-0.00740158
-0.00806815
-0.00885667
-0.00950039
-0.0100511
-0.0106854
-0.0113487
-0.01188
-0.0122879
-0.0126568
-0.0130518
-0.0134468
-0.00411389
-0.00434018
-0.00490503
-0.00538902
-0.00549354
-0.005715
-0.00635175
-0.00702765
-0.00756704
-0.00818925
-0.00890754
-0.00954096
-0.0101023
-0.0107029
-0.0113192
-0.0118348
-0.0122289
-0.0125863
-0.0129335
-0.0132594
-0.00427952
-0.00448365
-0.00500002
-0.00550837
-0.00570216
-0.00593068
-0.00649904
-0.00715568
-0.0077184
-0.00831345
-0.00896835
-0.00957347
-0.0101365
-0.0107172
-0.0112928
-0.0117925
-0.0121754
-0.0125091
-0.0128289
-0.0130944
-0.0044439
-0.00463263
-0.00510894
-0.00562752
-0.00589695
-0.00614316
-0.00665451
-0.00728093
-0.00785557
-0.00843438
-0.00903875
-0.00960679
-0.010156
-0.0107222
-0.0112696
-0.0117514
-0.0121273
-0.012432
-0.0127273
-0.0129549
-0.00460764
-0.00478591
-0.00522988
-0.0057485
-0.00607896
-0.00634938
-0.00681542
-0.00740556
-0.00798171
-0.00854764
-0.00911192
-0.00964639
-0.0101712
-0.0107156
-0.0112417
-0.0117103
-0.0120844
-0.0123643
-0.0126268
-0.0128307
-0.0047712
-0.00494223
-0.0053609
-0.00587276
-0.00624956
-0.00654712
-0.00697943
-0.00753033
-0.00809865
-0.00865336
-0.00918485
-0.0096879
-0.0101872
-0.0107048
-0.0112058
-0.0116636
-0.0120437
-0.0123095
-0.0125326
-0.0127126
-0.00493487
-0.00510053
-0.00550003
-0.00600113
-0.0064108
-0.00673465
-0.00714366
-0.00765664
-0.00820722
-0.0087497
-0.00925745
-0.00973105
-0.0102017
-0.0106948
-0.0111692
-0.011607
-0.0119965
-0.0122642
-0.0124523
-0.0126016
-0.00509882
-0.00526005
-0.00564525
-0.00613384
-0.00656447
-0.00691127
-0.00730502
-0.00778486
-0.00831103
-0.00883467
-0.00932488
-0.00977808
-0.0102159
-0.0106816
-0.011138
-0.0115479
-0.0119347
-0.0122197
-0.0123882
-0.0125037
-0.00526315
-0.00542005
-0.00579457
-0.0062709
-0.00671225
-0.00707697
-0.00746068
-0.00791282
-0.00841353
-0.00891236
-0.009382
-0.00982414
-0.0102362
-0.0106635
-0.0111049
-0.0114955
-0.0118626
-0.0121649
-0.0123327
-0.0124205
-0.00542776
-0.0055799
-0.00594602
-0.00641146
-0.00685614
-0.00723263
-0.00760929
-0.00803791
-0.00851323
-0.0089869
-0.00943192
-0.00986093
-0.0102616
-0.0106512
-0.0110648
-0.0114473
-0.0117897
-0.0120945
-0.0122741
-0.0123437
-0.00559238
-0.00573948
-0.00609781
-0.0065544
-0.00699693
-0.0073785
-0.00775082
-0.00816096
-0.00860797
-0.00905607
-0.00947969
-0.00988651
-0.0102798
-0.0106504
-0.0110259
-0.0113985
-0.011725
-0.012018
-0.0122113
-0.0122724
-0.00575644
-0.00589809
-0.00624882
-0.00669851
-0.00713606
-0.00751549
-0.00788266
-0.00828101
-0.00870113
-0.00911941
-0.00952422
-0.0099068
-0.0102815
-0.0106467
-0.0109927
-0.011344
-0.0116653
-0.0119444
-0.0121491
-0.0122158
-0.00591936
-0.00605599
-0.00639777
-0.00684134
-0.00727361
-0.00764679
-0.00800506
-0.0083934
-0.00879364
-0.0091816
-0.00956377
-0.00992649
-0.0102737
-0.0106261
-0.0109571
-0.0112805
-0.0115942
-0.011865
-0.0120751
-0.0121594
-0.00607992
-0.00621223
-0.00654514
-0.00698177
-0.00740703
-0.00777273
-0.00812181
-0.00849653
-0.00888077
-0.00924716
-0.00960009
-0.00994245
-0.0102675
-0.0105938
-0.0109111
-0.0112112
-0.0115076
-0.0117698
-0.0119757
-0.0120773
-0.00623776
-0.00636598
-0.00669009
-0.00711916
-0.00753661
-0.00789226
-0.00823308
-0.00859394
-0.00895906
-0.00931092
-0.00963761
-0.00995302
-0.0102613
-0.0105587
-0.010856
-0.0111395
-0.0114148
-0.0116626
-0.0118527
-0.0119547
-0.00639258
-0.00651789
-0.00683205
-0.00725057
-0.00766099
-0.00800656
-0.00833899
-0.00868937
-0.00903346
-0.00936615
-0.00967303
-0.00995613
-0.0102432
-0.0105196
-0.0107934
-0.0110663
-0.0113324
-0.0115737
-0.0117589
-0.0118501
-0.00654198
-0.00666452
-0.00697164
-0.00737759
-0.00777682
-0.00811313
-0.00844138
-0.00878812
-0.00911734
-0.00941706
-0.00968346
-0.0099141
-0.0101419
-0.0103843
-0.0106333
-0.0108891
-0.0111539
-0.0114341
-0.0117042
-0.0119062
-0.00668849
-0.00680614
-0.00710346
-0.00749605
-0.00788044
-0.0082057
-0.00853831
-0.00890823
-0.00928533
-0.00962435
-0.00986003
-0.0100175
-0.0101497
-0.010306
-0.0104944
-0.0106335
-0.0107025
-0.010706
-0.0106741
-0.0106496
-0.00683953
-0.00694546
-0.00722055
-0.00758988
-0.00795791
-0.00826665
-0.00858277
-0.00891267
-0.00921893
-0.00950666
-0.00973298
-0.00991298
-0.0100962
-0.0102718
-0.0104801
-0.0107225
-0.0109935
-0.0112936
-0.0115911
-0.0118409
-0.00699815
-0.00711292
-0.00734279
-0.00765484
-0.0079827
-0.00827999
-0.00859691
-0.00894192
-0.00926279
-0.00957183
-0.00984159
-0.0100263
-0.0101794
-0.0103146
-0.0104175
-0.0104822
-0.0104847
-0.0104557
-0.0104316
-0.0104604
-0.00711231
-0.0072302
-0.00745204
-0.00774373
-0.00805533
-0.00834273
-0.00865813
-0.00900354
-0.00932765
-0.00962639
-0.00988642
-0.0100585
-0.0101683
-0.010271
-0.0103661
-0.010453
-0.0105333
-0.0106229
-0.0107393
-0.0108989
-0.0233349
-0.0229183
-0.0266557
-0.030457
-0.0305128
-0.028455
-0.0260799
-0.0238605
-0.0220451
-0.0206706
-0.0197035
-0.0191071
-0.0187575
-0.0185252
-0.0180277
-0.0172112
-0.0166112
-0.0163278
-0.016143
-0.0159988
-0.0158074
-0.0156657
-0.0156929
-0.0156219
-0.0152487
-0.0147247
-0.0141782
-0.0136463
-0.0132611
-0.0130244
-0.0127723
-0.012516
-0.0122853
-0.011998
-0.0116335
-0.0113885
-0.0114568
-0.0117695
-0.0119827
-0.011752
-0.0111691
-0.0106549
-0.0103313
-0.0100713
-0.00984174
-0.0096388
-0.00939985
-0.00912395
-0.0088804
-0.00868027
-0.00846801
-0.00818811
-0.00790773
-0.00766052
-0.00743918
-0.00719256
-0.00688417
-0.00655436
-0.00626076
-0.0059467
-0.0056179
-0.00530583
-0.00500046
-0.0046589
-0.00432129
-0.00402738
-0.00368294
-0.00329466
-0.00289633
-0.00252001
-0.00213789
-0.00166328
-0.00122939
-0.000942031
-0.000648701
-0.000208942
0.000252683
0.000717708
0.00120586
0.00172853
0.00220066
0.00255536
0.00295397
0.00342777
0.00398708
0.00450591
0.00504267
0.00554108
0.00608845
0.00663093
0.00710911
0.00761257
0.00818022
0.00885954
0.00942161
0.0100585
0.0108123
0.0114608
0.0122513
0.0132082
-0.0230379
-0.0229325
-0.0265343
-0.030308
-0.0304373
-0.0284218
-0.0260616
-0.0238487
-0.022036
-0.0206621
-0.0196943
-0.0190976
-0.0187489
-0.0185187
-0.0180232
-0.0172068
-0.0166067
-0.016324
-0.0161397
-0.015996
-0.0158048
-0.015663
-0.0156906
-0.0156201
-0.015247
-0.0147229
-0.0141763
-0.0136443
-0.013259
-0.0130226
-0.0127706
-0.0125144
-0.0122839
-0.0119967
-0.0116322
-0.0113869
-0.0114552
-0.0117683
-0.0119819
-0.0117514
-0.0111684
-0.0106541
-0.0103305
-0.0100706
-0.00984108
-0.00963821
-0.00939933
-0.00912343
-0.00887987
-0.00867978
-0.00846758
-0.00818771
-0.00790731
-0.00766011
-0.00743879
-0.00719222
-0.00688385
-0.00655403
-0.00626043
-0.0059464
-0.0056176
-0.00530553
-0.00500018
-0.00465863
-0.00432101
-0.00402711
-0.0036827
-0.00329443
-0.00289609
-0.00251977
-0.00213769
-0.00166308
-0.00122914
-0.000941792
-0.000648525
-0.00020877
0.000252865
0.000717871
0.00120602
0.00172868
0.00220083
0.00255553
0.00295411
0.00342789
0.0039872
0.00450603
0.00504279
0.00554119
0.00608855
0.00663104
0.00710922
0.00761266
0.00818031
0.00885963
0.00942172
0.0100586
0.0108124
0.0114609
0.0122515
0.0132084
-0.0229848
-0.0230777
-0.0263515
-0.0300254
-0.0302964
-0.0283676
-0.0260322
-0.0238293
-0.0220243
-0.0206556
-0.01969
-0.0190926
-0.0187418
-0.0185111
-0.0180167
-0.0172014
-0.0166022
-0.0163201
-0.0161363
-0.0159932
-0.0158023
-0.0156608
-0.015689
-0.0156189
-0.0152457
-0.0147215
-0.0141749
-0.0136426
-0.0132572
-0.0130211
-0.0127693
-0.0125131
-0.0122827
-0.0119957
-0.011631
-0.0113853
-0.0114537
-0.0117674
-0.0119818
-0.0117513
-0.0111677
-0.0106532
-0.0103298
-0.01007
-0.00984051
-0.00963773
-0.0093989
-0.00912297
-0.00887941
-0.00867938
-0.00846727
-0.00818738
-0.00790694
-0.00765975
-0.00743849
-0.00719196
-0.00688359
-0.00655374
-0.00626016
-0.00594616
-0.00561735
-0.00530528
-0.00499996
-0.00465841
-0.00432077
-0.0040269
-0.00368251
-0.00329424
-0.00289589
-0.00251958
-0.00213755
-0.00166292
-0.00122889
-0.000941592
-0.000648422
-0.00020864
0.000253017
0.000717997
0.00120614
0.00172881
0.00220099
0.00255566
0.0029542
0.00342798
0.00398731
0.00450613
0.00504289
0.00554128
0.00608863
0.00663114
0.00710931
0.00761273
0.00818037
0.00885971
0.0094218
0.0100587
0.0108124
0.011461
0.0122516
0.0132086
-0.022988
-0.0232111
-0.0261018
-0.0296359
-0.0300791
-0.0282771
-0.0259807
-0.023795
-0.0220041
-0.0206471
-0.0196884
-0.0190912
-0.0187354
-0.0185002
-0.0180061
-0.0171941
-0.016597
-0.0163149
-0.0161308
-0.0159885
-0.0157988
-0.0156585
-0.0156874
-0.0156173
-0.0152441
-0.0147202
-0.0141737
-0.0136409
-0.0132553
-0.0130195
-0.012768
-0.0125117
-0.0122813
-0.0119944
-0.0116296
-0.0113834
-0.0114519
-0.0117665
-0.0119818
-0.0117512
-0.0111668
-0.010652
-0.0103289
-0.0100692
-0.00983987
-0.0096372
-0.00939842
-0.00912245
-0.00887889
-0.00867895
-0.00846693
-0.00818703
-0.00790653
-0.00765937
-0.00743818
-0.00719171
-0.00688333
-0.00655343
-0.00625987
-0.00594591
-0.00561709
-0.00530503
-0.00499973
-0.00465818
-0.00432051
-0.0040267
-0.00368234
-0.00329404
-0.00289568
-0.00251938
-0.00213741
-0.00166275
-0.0012286
-0.000941378
-0.000648347
-0.000208512
0.00025318
0.000718122
0.00120628
0.00172897
0.00220117
0.00255579
0.00295428
0.00342806
0.00398742
0.00450624
0.00504299
0.00554138
0.00608871
0.00663125
0.00710941
0.00761279
0.00818042
0.0088598
0.00942188
0.0100587
0.0108125
0.0114611
0.0122517
0.013209
-0.0229737
-0.0232978
-0.0258208
-0.0292069
-0.0298251
-0.0281669
-0.025916
-0.0237494
-0.0219759
-0.0206348
-0.0196871
-0.0190922
-0.0187296
-0.0184855
-0.0179902
-0.0171846
-0.0165919
-0.0163091
-0.0161233
-0.0159811
-0.0157937
-0.0156559
-0.0156854
-0.0156147
-0.0152415
-0.0147184
-0.0141725
-0.0136393
-0.0132533
-0.013018
-0.0127669
-0.0125106
-0.0122799
-0.0119929
-0.0116278
-0.0113811
-0.0114496
-0.0117654
-0.0119817
-0.0117509
-0.0111657
-0.0106507
-0.0103278
-0.0100683
-0.00983909
-0.00963654
-0.00939781
-0.00912183
-0.00887829
-0.00867843
-0.00846653
-0.00818662
-0.00790606
-0.00765894
-0.00743782
-0.00719143
-0.00688304
-0.00655308
-0.00625955
-0.00594562
-0.00561681
-0.00530477
-0.00499948
-0.00465792
-0.00432024
-0.00402649
-0.00368214
-0.00329383
-0.00289545
-0.00251916
-0.00213727
-0.00166256
-0.00122825
-0.000941141
-0.00064829
-0.000208376
0.000253359
0.000718253
0.00120642
0.00172916
0.00220139
0.00255594
0.00295435
0.00342814
0.00398754
0.00450636
0.00504311
0.00554148
0.0060888
0.00663138
0.00710951
0.00761285
0.00818048
0.00885989
0.00942197
0.0100587
0.0108126
0.0114612
0.0122518
0.0132096
-0.0229232
-0.0233631
-0.0255475
-0.0287655
-0.0295488
-0.0280458
-0.0258453
-0.023698
-0.0219425
-0.020619
-0.0196845
-0.0190934
-0.0187235
-0.0184676
-0.0179705
-0.0171741
-0.0165876
-0.0163034
-0.0161144
-0.0159712
-0.0157869
-0.0156534
-0.0156831
-0.0156107
-0.0152374
-0.0147157
-0.0141708
-0.0136375
-0.0132509
-0.013016
-0.0127662
-0.0125102
-0.0122788
-0.0119913
-0.0116258
-0.0113783
-0.0114467
-0.0117638
-0.0119813
-0.0117502
-0.0111642
-0.010649
-0.0103264
-0.0100672
-0.00983813
-0.00963567
-0.00939699
-0.00912105
-0.00887757
-0.00867778
-0.008466
-0.00818611
-0.00790551
-0.00765841
-0.00743739
-0.00719108
-0.0068827
-0.00655268
-0.00625916
-0.00594528
-0.00561649
-0.00530448
-0.0049992
-0.00465764
-0.00431996
-0.00402627
-0.00368193
-0.0032936
-0.00289521
-0.00251892
-0.00213713
-0.00166236
-0.00122786
-0.00094088
-0.000648243
-0.000208229
0.000253555
0.000718391
0.00120659
0.00172937
0.00220163
0.00255609
0.00295443
0.00342824
0.00398768
0.0045065
0.00504324
0.0055416
0.00608891
0.00663152
0.00710961
0.0076129
0.00818053
0.00886
0.00942205
0.0100587
0.0108126
0.0114612
0.0122518
0.0132102
-0.0228501
-0.0234311
-0.0252937
-0.0283131
-0.0292501
-0.0279151
-0.0257715
-0.0236434
-0.0219056
-0.0206005
-0.0196801
-0.0190934
-0.0187163
-0.018448
-0.0179488
-0.0171634
-0.0165844
-0.0162986
-0.0161055
-0.01596
-0.0157791
-0.0156511
-0.0156809
-0.0156056
-0.0152323
-0.0147119
-0.0141682
-0.0136349
-0.0132475
-0.0130131
-0.0127652
-0.01251
-0.0122782
-0.0119905
-0.0116244
-0.0113755
-0.0114433
-0.0117615
-0.0119802
-0.0117487
-0.0111621
-0.010647
-0.0103247
-0.0100659
-0.00983701
-0.00963457
-0.00939594
-0.00912011
-0.00887671
-0.00867694
-0.00846527
-0.00818545
-0.00790484
-0.00765776
-0.00743683
-0.00719063
-0.00688229
-0.00655222
-0.00625867
-0.00594486
-0.00561614
-0.00530415
-0.00499886
-0.00465732
-0.00431967
-0.00402604
-0.00368169
-0.00329336
-0.00289495
-0.00251867
-0.00213698
-0.00166214
-0.00122742
-0.000940593
-0.000648204
-0.00020807
0.000253767
0.000718536
0.00120679
0.00172963
0.0022019
0.00255626
0.00295453
0.00342835
0.00398785
0.00450666
0.00504338
0.00554174
0.00608902
0.00663168
0.00710973
0.00761295
0.00818057
0.00886011
0.00942212
0.0100587
0.0108127
0.0114611
0.0122517
0.0132111
-0.0227699
-0.0234992
-0.0250512
-0.027848
-0.0289294
-0.0277762
-0.0256965
-0.023587
-0.0218658
-0.0205791
-0.0196731
-0.0190914
-0.0187079
-0.0184277
-0.0179265
-0.0171528
-0.0165821
-0.0162948
-0.0160971
-0.0159485
-0.015771
-0.0156494
-0.0156788
-0.0156003
-0.0152269
-0.0147077
-0.0141647
-0.0136311
-0.0132428
-0.013009
-0.0127633
-0.0125095
-0.0122777
-0.0119904
-0.0116243
-0.0113736
-0.0114401
-0.0117588
-0.0119781
-0.0117462
-0.0111593
-0.0106444
-0.0103225
-0.0100642
-0.00983572
-0.00963327
-0.00939469
-0.00911906
-0.00887572
-0.00867589
-0.0084643
-0.00818461
-0.00790403
-0.00765692
-0.00743606
-0.00718999
-0.00688175
-0.00655165
-0.00625806
-0.00594432
-0.00561572
-0.00530374
-0.00499841
-0.00465693
-0.00431935
-0.00402578
-0.00368141
-0.0032931
-0.00289469
-0.00251839
-0.00213679
-0.00166189
-0.00122693
-0.000940272
-0.000648168
-0.0002079
0.000253988
0.000718689
0.00120703
0.00172992
0.00220219
0.00255645
0.00295464
0.00342849
0.00398804
0.00450683
0.00504356
0.0055419
0.00608916
0.00663186
0.00710986
0.00761301
0.00818063
0.00886023
0.00942218
0.0100587
0.0108127
0.0114609
0.0122515
0.0132121
-0.0226786
-0.0235518
-0.0248173
-0.0273766
-0.0285894
-0.0276289
-0.0256201
-0.0235284
-0.0218224
-0.0205541
-0.0196634
-0.0190877
-0.0186987
-0.0184069
-0.017904
-0.0171425
-0.0165804
-0.0162918
-0.0160893
-0.015937
-0.0157628
-0.0156481
-0.0156773
-0.0155951
-0.0152219
-0.0147038
-0.0141608
-0.0136263
-0.0132367
-0.0130037
-0.0127606
-0.0125082
-0.0122766
-0.011991
-0.0116261
-0.0113735
-0.0114379
-0.0117565
-0.0119753
-0.0117424
-0.0111555
-0.0106412
-0.0103197
-0.0100622
-0.00983421
-0.00963178
-0.00939334
-0.00911804
-0.00887473
-0.00867464
-0.00846309
-0.00818361
-0.00790309
-0.00765589
-0.00743501
-0.00718905
-0.00688101
-0.00655091
-0.00625726
-0.00594365
-0.00561522
-0.00530322
-0.00499781
-0.00465641
-0.00431897
-0.00402547
-0.00368107
-0.00329283
-0.00289444
-0.00251811
-0.00213658
-0.00166161
-0.00122637
-0.000939892
-0.000648125
-0.00020773
0.000254203
0.000718841
0.00120731
0.00173026
0.00220248
0.00255665
0.00295478
0.00342866
0.00398827
0.00450704
0.00504377
0.0055421
0.00608934
0.00663207
0.00711002
0.00761308
0.00818069
0.00886036
0.00942223
0.0100587
0.0108127
0.0114605
0.0122511
0.0132133
-0.0225655
-0.0235836
-0.0246
-0.0269047
-0.0282274
-0.0274688
-0.0255404
-0.0234673
-0.0217755
-0.0205259
-0.0196513
-0.0190823
-0.0186886
-0.0183858
-0.0178812
-0.0171324
-0.0165796
-0.0162897
-0.0160822
-0.0159257
-0.0157544
-0.0156472
-0.0156763
-0.0155902
-0.0152176
-0.0147007
-0.0141572
-0.0136207
-0.0132296
-0.0129975
-0.0127573
-0.0125061
-0.0122748
-0.0119919
-0.0116295
-0.0113756
-0.0114376
-0.0117554
-0.0119728
-0.0117378
-0.0111506
-0.0106369
-0.0103161
-0.0100597
-0.00983238
-0.00963005
-0.00939195
-0.00911721