/*--------------------------------*- C++ -*----------------------------------*\
| =========                 |                                                 |
| \\      /  F ield         | OpenFOAM: The Open Source CFD Toolbox           |
|  \\    /   O peration     | Version:  v1912                                 |
|   \\  /    A nd           | Website:  www.openfoam.com                      |
|    \\/     M anipulation  |                                                 |
\*---------------------------------------------------------------------------*/
FoamFile
{
    version     2.0;
    format      ascii;
    class       volVectorField;
    location    "0.25";
    object      U;
}
// * * * * * * * * * * * * * * * * * * * * * * * * * * * * * * * * * * * * * //

dimensions      [0 1 -1 0 0 0 0];


internalField   nonuniform List<vector> 
9600
(
(0.863926 -0.00575366 0)
(1.14727 0.00586872 0)
(0.871561 -0.00221546 0)
(1.14231 0.00119959 0)
(0.899004 -0.00262328 0)
(1.10744 0.000720461 0)
(0.890307 -0.00427905 0)
(1.16006 -0.000296803 0)
(0.922466 -0.00512786 0)
(1.07585 0.0012126 0)
(0.965655 -0.00315481 0)
(1.08468 -0.00486612 0)
(0.950958 0.00965937 0)
(1.0937 -0.00529015 0)
(0.921022 0.0207595 0)
(1.1169 0.00934094 0)
(0.889552 0.0199648 0)
(1.09907 0.00608688 0)
(0.8587 0.0147838 0)
(1.10345 0.00178443 0)
(0.875193 -0.00590523 0)
(1.13872 0.00590996 0)
(0.889577 -0.00231718 0)
(1.1313 0.00110969 0)
(0.916948 -0.00244274 0)
(1.09621 0.000996298 0)
(0.912345 -0.00514368 0)
(1.14241 -0.000541104 0)
(0.944208 -0.00407878 0)
(1.06373 0.000720346 0)
(0.983028 -0.00354896 0)
(1.07016 -0.00444012 0)
(0.972023 0.00930115 0)
(1.06969 -0.00418699 0)
(0.950647 0.0197714 0)
(1.0722 0.010394 0)
(0.948613 0.0202384 0)
(1.02553 0.00684045 0)
(0.955704 0.015737 0)
(0.992255 0.00300623 0)
(0.894612 -0.00606439 0)
(1.12048 0.00591694 0)
(0.917659 -0.00238581 0)
(1.10976 0.00103301 0)
(0.943882 -0.00225286 0)
(1.07605 0.00113198 0)
(0.944628 -0.00570389 0)
(1.1113 -0.000737975 0)
(0.973742 -0.0032982 0)
(1.0443 0.00034296 0)
(1.00357 -0.00365949 0)
(1.04874 -0.0042463 0)
(0.999357 0.00920959 0)
(1.04451 -0.00375137 0)
(0.985138 0.0194452 0)
(1.03808 0.0106091 0)
(0.992312 0.0210074 0)
(1.00422 0.00691917 0)
(0.991502 0.0155266 0)
(0.995583 0.00356205 0)
(0.918596 -0.00619946 0)
(1.095 0.00582189 0)
(0.947106 -0.00237991 0)
(1.08173 0.000921853 0)
(0.969645 -0.00204595 0)
(1.05259 0.00116607 0)
(0.974239 -0.00606176 0)
(1.07568 -0.000988757 0)
(0.996482 -0.00263368 0)
(1.02666 8.45367e-05 0)
(1.01488 -0.00373053 0)
(1.0309 -0.00423207 0)
(1.01608 0.00921508 0)
(1.03042 -0.00341055 0)
(1.00558 0.0196009 0)
(1.02553 0.0105224 0)
(1.01177 0.021621 0)
(1.00934 0.00704474 0)
(1.0033 0.0160853 0)
(1.00576 0.00413439 0)
(0.942875 -0.00630253 0)
(1.06715 0.00564709 0)
(0.971426 -0.00231959 0)
(1.05344 0.000799659 0)
(0.987534 -0.00184898 0)
(1.03201 0.00113586 0)
(0.993377 -0.00626458 0)
(1.04461 -0.00120578 0)
(1.00627 -0.00213992 0)
(1.01495 -6.91078e-05 0)
(1.01587 -0.00382012 0)
(1.01869 -0.00429986 0)
(1.02064 0.00913503 0)
(1.02428 -0.00305524 0)
(1.01338 0.019506 0)
(1.02231 0.0106136 0)
(1.01883 0.0216687 0)
(1.0155 0.00761399 0)
(1.0091 0.0160986 0)
(1.00924 0.00519085 0)
(0.963745 -0.0063664 0)
(1.04196 0.00544535 0)
(0.987735 -0.00222932 0)
(1.03021 0.00070691 0)
(0.996287 -0.00170119 0)
(1.01751 0.00106932 0)
(1.00179 -0.00633075 0)
(1.02233 -0.00134017 0)
(1.00599 -0.00185678 0)
(1.00777 -0.000143406 0)
(1.01161 -0.0038696 0)
(1.00965 -0.00443516 0)
(1.01821 0.00894192 0)
(1.02037 -0.00280475 0)
(1.01478 0.0193076 0)
(1.02096 0.0106843 0)
(1.02066 0.021482 0)
(1.01816 0.00818328 0)
(1.01203 0.0160166 0)
(1.01015 0.00631322 0)
(0.97923 -0.00639002 0)
(1.0226 0.00525798 0)
(0.996567 -0.0021324 0)
(1.01425 0.000658725 0)
(0.998593 -0.00161544 0)
(1.00879 0.000992035 0)
(1.00352 -0.00629687 0)
(1.0084 -0.00140081 0)
(1.00144 -0.00172382 0)
(1.00284 -0.000196143 0)
(1.00641 -0.00386908 0)
(1.00232 -0.00459911 0)
(1.01299 0.00864718 0)
(1.01575 -0.00263584 0)
(1.01328 0.0190458 0)
(1.01903 0.0107352 0)
(1.01992 0.0212341 0)
(1.01795 0.00878976 0)
(1.01274 0.0159686 0)
(1.01003 0.00752952 0)
(0.989249 -0.00637905 0)
(1.00972 0.00510381 0)
(1.00028 -0.00204514 0)
(1.00489 0.000649865 0)
(0.99802 -0.00157887 0)
(1.00403 0.000910711 0)
(1.00267 -0.00619726 0)
(1.00052 -0.00140925 0)
(0.996792 -0.00166943 0)
(0.999192 -0.000257866 0)
(1.00214 -0.00382157 0)
(0.996518 -0.00475712 0)
(1.0071 0.00830068 0)
(1.01002 -0.00252728 0)
(1.0099 0.0186775 0)
(1.01572 0.0108096 0)
(1.01734 0.0209141 0)
(1.01571 0.00943628 0)
(1.01171 0.0158487 0)
(1.00914 0.00874773 0)
(0.994948 -0.00634168 0)
(1.00217 0.00498205 0)
(1.00132 -0.00197269 0)
(1.00014 0.00066475 0)
(0.996961 -0.00157044 0)
(1.00152 0.000823987 0)
(1.00152 -0.00605664 0)
(0.996444 -0.00138573 0)
(0.99366 -0.00164713 0)
(0.99667 -0.00033092 0)
(0.999191 -0.00373378 0)
(0.992279 -0.00488111 0)
(1.00147 0.00795991 0)
(1.00395 -0.00244582 0)
(1.00507 0.0182224 0)
(1.01109 0.0108989 0)
(1.01339 0.0204983 0)
(1.01227 0.0101015 0)
(1.00957 0.0156104 0)
(1.00774 0.00992174 0)
(0.997807 -0.00628503 0)
(0.998197 0.00488167 0)
(1.00131 -0.00191274 0)
(0.998073 0.000687486 0)
(0.996328 -0.00157246 0)
(1.00021 0.000730415 0)
(1.00077 -0.00589193 0)
(0.994575 -0.00134662 0)
(0.992083 -0.00163155 0)
(0.995164 -0.000409951 0)
(0.997401 -0.00361086 0)
(0.989465 -0.00494718 0)
(0.996578 0.0076613 0)
(0.998517 -0.00234739 0)
(0.999643 0.0177073 0)
(1.0059 0.0109941 0)
(1.00884 0.0199849 0)
(1.0085 0.0107629 0)
(1.00703 0.0152557 0)
(1.00615 0.0109955 0)
(0.999058 -0.00621419 0)
(0.996299 0.00479066 0)
(1.00102 -0.0018607 0)
(0.997352 0.000707634 0)
(0.996181 -0.00157403 0)
(0.999533 0.000631373 0)
(1.00034 -0.00571436 0)
(0.993893 -0.00130319 0)
(0.99156 -0.00161097 0)
(0.994427 -0.000490288 0)
(0.996429 -0.00345575 0)
(0.987794 -0.00494237 0)
(0.99272 0.00741411 0)
(0.994321 -0.00220328 0)
(0.994645 0.0171491 0)
(1.00112 0.0110989 0)
(1.0046 0.0193735 0)
(1.00513 0.011394 0)
(1.00468 0.0148047 0)
(1.00461 0.0119325 0)
(0.999511 -0.00613256 0)
(0.995491 0.00470054 0)
(1.0007 -0.00181219 0)
(0.997259 0.000719479 0)
(0.996333 -0.00156929 0)
(0.999198 0.000530153 0)
(0.99999 -0.00552895 0)
(0.993781 -0.00126458 0)
(0.991617 -0.00158231 0)
(0.994168 -0.000566191 0)
(0.995952 -0.00327531 0)
(0.986949 -0.00487522 0)
(0.989995 0.00721034 0)
(0.991496 -0.00200364 0)
(0.990821 0.0165596 0)
(0.997419 0.0112153 0)
(1.00127 0.0186752 0)
(1.0025 0.0119825 0)
(1.00283 0.0142988 0)
(1.00329 0.0127081 0)
(0.999616 -0.00604238 0)
(0.995215 0.00460689 0)
(1.00039 -0.001764 0)
(0.997434 0.000720044 0)
(0.996616 -0.00155557 0)
(0.999067 0.000430138 0)
(0.999586 -0.00533734 0)
(0.993891 -0.00123831 0)
(0.991953 -0.00154442 0)
(0.994151 -0.000636806 0)
(0.99573 -0.00307681 0)
(0.986652 -0.00475663 0)
(0.988301 0.00703272 0)
(0.98984 -0.00174738 0)
(0.988353 0.0159441 0)
(0.994937 0.0113471 0)
(0.998974 0.017909 0)
(1.00063 0.0125274 0)
(1.00148 0.0137922 0)
(1.00222 0.0133067 0)
(0.999597 -0.0059451 0)
(0.995182 0.00450795 0)
(1.0001 -0.00171406 0)
(0.997697 0.000708045 0)
(0.996918 -0.00153215 0)
(0.999059 0.000334847 0)
(0.999113 -0.00513948 0)
(0.994047 -0.00122916 0)
(0.992399 -0.00149866 0)
(0.994225 -0.000700237 0)
(0.995614 -0.00286716 0)
(0.986696 -0.00459595 0)
(0.987391 0.00686357 0)
(0.989004 -0.00144033 0)
(0.986983 0.0153067 0)
(0.993419 0.0114973 0)
(0.997514 0.0171018 0)
(0.999343 0.0130213 0)
(1.00053 0.0133384 0)
(1.00137 0.0137239 0)
(0.999554 -0.00584155 0)
(0.995248 0.00440301 0)
(0.999857 -0.00166078 0)
(0.997951 0.000683138 0)
(0.997177 -0.00149899 0)
(0.999114 0.00024537 0)
(0.998645 -0.00493384 0)
(0.994177 -0.00124032 0)
(0.992849 -0.00144572 0)
(0.99431 -0.000753708 0)
(0.995524 -0.00265228 0)
(0.986937 -0.00440416 0)
(0.986986 0.0066926 0)
(0.988665 -0.00108928 0)
(0.986317 0.0146464 0)
(0.992498 0.0116596 0)
(0.996598 0.01629 0)
(0.998438 0.013453 0)
(0.999861 0.0129804 0)
(1.00071 0.0139586 0)
(0.999522 -0.00573215 0)
(0.995344 0.00429149 0)
(0.99966 -0.00160269 0)
(0.998146 0.000646009 0)
(0.997365 -0.00145693 0)
(0.999178 0.000161284 0)
(0.998262 -0.00471998 0)
(0.994272 -0.00127054 0)
(0.993234 -0.00138735 0)
(0.99438 -0.000795829 0)
(0.995433 -0.00243778 0)
(0.987272 -0.00419002 0)
(0.986867 0.0065133 0)
(0.988602 -0.000696771 0)
(0.986052 0.0139726 0)
(0.991904 0.0118266 0)
(0.996012 0.0154977 0)
(0.99779 0.0138044 0)
(0.999391 0.0127349 0)
(1.00022 0.0140174 0)
(0.999507 -0.00561702 0)
(0.99544 0.00417278 0)
(0.999518 -0.00153857 0)
(0.998273 0.000598059 0)
(0.997484 -0.00140676 0)
(0.999219 8.03115e-05 0)
(0.998003 -0.00449744 0)
(0.994348 -0.00131575 0)
(0.993518 -0.00132551 0)
(0.994434 -0.000825252 0)
(0.995339 -0.00223348 0)
(0.987635 -0.00395502 0)
(0.986894 0.0063214 0)
(0.988693 -0.000268846 0)
(0.986032 0.013292 0)
(0.991506 0.0119906 0)
(0.995641 0.0147443 0)
(0.997332 0.0140588 0)
(0.999076 0.0125971 0)
(0.999891 0.0139306 0)
(0.999506 -0.00549617 0)
(0.995528 0.00404635 0)
(0.999421 -0.00146741 0)
(0.998344 0.000540573 0)
(0.997549 -0.00134892 0)
(0.999226 -1.35032e-06 0)
(0.997857 -0.0042673 0)
(0.994425 -0.00137065 0)
(0.993705 -0.00126097 0)
(0.994474 -0.000843266 0)
(0.995253 -0.00204378 0)
(0.987989 -0.0036947 0)
(0.986992 0.0061185 0)
(0.988873 0.000185983 0)
(0.986191 0.0126108 0)
(0.991258 0.0121353 0)
(0.99543 0.0140494 0)
(0.997022 0.0142139 0)
(0.998873 0.0125567 0)
(0.999712 0.013738 0)
(0.999513 -0.00536939 0)
(0.995609 0.00391144 0)
(0.999356 -0.0013881 0)
(0.998379 0.000474294 0)
(0.99758 -0.00128345 0)
(0.999206 -8.53078e-05 0)
(0.997788 -0.00403184 0)
(0.994512 -0.00142859 0)
(0.993821 -0.00119712 0)
(0.994504 -0.000846289 0)
(0.995181 -0.00187126 0)
(0.988323 -0.00341517 0)
(0.987124 0.00590503 0)
(0.989104 0.000650069 0)
(0.986487 0.0119514 0)
(0.99113 0.0122481 0)
(0.995342 0.0134215 0)
(0.996826 0.0142648 0)
(0.998734 0.0125844 0)
(0.999645 0.0134738 0)
(0.999525 -0.00523657 0)
(0.995685 0.00376767 0)
(0.99931 -0.00130055 0)
(0.998396 0.000400482 0)
(0.997594 -0.00121074 0)
(0.999169 -0.000171758 0)
(0.997762 -0.00379218 0)
(0.994609 -0.00148629 0)
(0.993898 -0.00113456 0)
(0.994528 -0.000833892 0)
(0.995125 -0.00171472 0)
(0.988641 -0.00312042 0)
(0.987278 0.00568089 0)
(0.98936 0.00110905 0)
(0.986881 0.0113208 0)
(0.991092 0.0123218 0)
(0.995334 0.0128669 0)
(0.996715 0.0142163 0)
(0.998622 0.0126506 0)
(0.999645 0.0131728 0)
(0.999539 -0.00509766 0)
(0.995761 0.00361498 0)
(0.999271 -0.00120469 0)
(0.998406 0.000319681 0)
(0.997599 -0.00113134 0)
(0.999126 -0.000260126 0)
(0.997755 -0.00355251 0)
(0.994711 -0.00153931 0)
(0.99396 -0.00107556 0)
(0.994548 -0.000805266 0)
(0.995083 -0.00157044 0)
(0.988948 -0.00281502 0)
(0.987448 0.005454 0)
(0.989627 0.00155801 0)
(0.987335 0.0107191 0)
(0.991111 0.0123506 0)
(0.995374 0.0123896 0)
(0.996665 0.0140765 0)
(0.998514 0.012732 0)
(0.999676 0.0128648 0)
(0.999555 -0.00495267 0)
(0.995838 0.00345333 0)
(0.999235 -0.00110054 0)
(0.998414 0.000232642 0)
(0.997601 -0.00104587 0)
(0.999082 -0.000349613 0)
(0.997755 -0.00331548 0)
(0.994816 -0.00158283 0)
(0.99402 -0.00102585 0)
(0.994566 -0.000756902 0)
(0.995051 -0.00144069 0)
(0.989249 -0.00250094 0)
(0.987632 0.00523986 0)
(0.989895 0.00198377 0)
(0.987824 0.0101484 0)
(0.991167 0.0123387 0)
(0.995434 0.0119842 0)
(0.996662 0.0138545 0)
(0.998403 0.012817 0)
(0.999709 0.0125767 0)
(0.999572 -0.00480139 0)
(0.995919 0.00328241 0)
(0.9992 -0.000988471 0)
(0.998423 0.000140334 0)
(0.997602 -0.000955001 0)
(0.999042 -0.000439026 0)
(0.997758 -0.0030832 0)
(0.994919 -0.00161251 0)
(0.994085 -0.000990054 0)
(0.994586 -0.00069059 0)
(0.995027 -0.00132155 0)
(0.989549 -0.00218718 0)
(0.987829 0.00504279 0)
(0.99016 0.00237756 0)
(0.988331 0.00961674 0)
(0.991247 0.0122839 0)
(0.995498 0.0116423 0)
(0.996699 0.0135634 0)
(0.998291 0.0128895 0)
(0.99973 0.0123166 0)
(0.999588 -0.00464402 0)
(0.996005 0.00310282 0)
(0.999164 -0.000869115 0)
(0.998433 4.31946e-05 0)
(0.997603 -0.000860559 0)
(0.999005 -0.000525308 0)
(0.997763 -0.00285945 0)
(0.99502 -0.00162588 0)
(0.994157 -0.000964993 0)
(0.99461 -0.000611871 0)
(0.99501 -0.00120498 0)
(0.98985 -0.0018864 0)
(0.98804 0.00486196 0)
(0.990419 0.00274545 0)
(0.98885 0.00912254 0)
(0.991349 0.0121852 0)
(0.995559 0.0113609 0)
(0.99677 0.0132145 0)
(0.998182 0.0129345 0)
(0.999729 0.0120963 0)
(0.999605 -0.00448101 0)
(0.996096 0.00291563 0)
(0.999127 -0.000743101 0)
(0.998445 -5.8471e-05 0)
(0.997604 -0.000763587 0)
(0.998972 -0.00060645 0)
(0.99777 -0.00264905 0)
(0.995119 -0.00161853 0)
(0.994236 -0.000952096 0)
(0.994639 -0.000519256 0)
(0.994999 -0.00108484 0)
(0.99015 -0.0015996 0)
(0.988264 0.00469827 0)
(0.990672 0.00308429 0)
(0.989375 0.00866649 0)
(0.991473 0.012047 0)
(0.99561 0.0111394 0)
(0.996871 0.0128251 0)
(0.998084 0.0129426 0)
(0.999701 0.0119275 0)
(0.99962 -0.00431212 0)
(0.996194 0.00272039 0)
(0.99909 -0.000610955 0)
(0.998459 -0.000162581 0)
(0.997606 -0.000666464 0)
(0.998941 -0.000678971 0)
(0.99778 -0.00245534 0)
(0.995215 -0.00158906 0)
(0.994322 -0.000948473 0)
(0.994674 -0.000421064 0)
(0.994995 -0.000957453 0)
(0.990452 -0.00133062 0)
(0.988503 0.00455335 0)
(0.990918 0.00339725 0)
(0.989904 0.00824981 0)
(0.991622 0.0118624 0)
(0.99565 0.0109649 0)
(0.996996 0.0124053 0)
(0.998004 0.0128925 0)
(0.999641 0.011806 0)
(0.999635 -0.00413771 0)
(0.996297 0.00251791 0)
(0.999054 -0.000474855 0)
(0.998474 -0.000266082 0)
(0.99761 -0.000571678 0)
(0.998914 -0.000739072 0)
(0.997794 -0.00228133 0)
(0.995309 -0.00153954 0)
(0.994414 -0.000948163 0)
(0.994718 -0.000327806 0)
(0.994998 -0.000815556 0)
(0.990756 -0.0010761 0)
(0.988757 0.00442573 0)
(0.991156 0.00368627 0)
(0.990432 0.00787402 0)
(0.991799 0.0116345 0)
(0.995677 0.0108299 0)
(0.997139 0.0119746 0)
(0.99795 0.0127736 0)
(0.99955 0.0117317 0)
(0.99965 -0.00395826 0)
(0.996406 0.00230926 0)
(0.999018 -0.000335426 0)
(0.998492 -0.000368774 0)
(0.997616 -0.000480287 0)
(0.998887 -0.000783838 0)
(0.997813 -0.00212739 0)
(0.995401 -0.00147253 0)
(0.994512 -0.000949715 0)
(0.994772 -0.000240683 0)
(0.995008 -0.000657111 0)
(0.99106 -0.000832452 0)
(0.989028 0.00430652 0)
(0.991389 0.00395039 0)
(0.990956 0.0075413 0)
(0.992005 0.0113708 0)
(0.995695 0.0107256 0)
(0.997291 0.0115553 0)
(0.99793 0.0125794 0)
(0.999433 0.0116926 0)
(0.999664 -0.00377443 0)
(0.996522 0.00209601 0)
(0.998985 -0.000195584 0)
(0.99851 -0.000466254 0)
(0.997625 -0.000397064 0)
(0.998863 -0.000808653 0)
(0.997835 -0.00199337 0)
(0.995492 -0.00139152 0)
(0.994614 -0.000942558 0)
(0.994836 -0.000167066 0)
(0.995027 -0.000488667 0)
(0.991364 -0.000600304 0)
(0.989316 0.0041892 0)
(0.991616 0.00418957 0)
(0.991471 0.0072483 0)
(0.992242 0.0110723 0)
(0.995704 0.0106303 0)
(0.997443 0.0111575 0)
(0.997948 0.0123067 0)
(0.999297 0.0116664 0)
(0.999677 -0.00358627 0)
(0.996644 0.00187843 0)
(0.998953 -5.78504e-05 0)
(0.998529 -0.000555877 0)
(0.997639 -0.000324261 0)
(0.998839 -0.000814108 0)
(0.997862 -0.00187609 0)
(0.995581 -0.0013013 0)
(0.994719 -0.000921709 0)
(0.994911 -0.000106849 0)
(0.995056 -0.000313688 0)
(0.991667 -0.000372219 0)
(0.989621 0.00407787 0)
(0.991841 0.0043996 0)
(0.991975 0.00699209 0)
(0.992509 0.0107434 0)
(0.99571 0.0105315 0)
(0.997588 0.0107947 0)
(0.998007 0.0119678 0)
(0.999158 0.0116281 0)
(0.999691 -0.00339479 0)
(0.996772 0.00165822 0)
(0.998925 7.46624e-05 0)
(0.998549 -0.00063362 0)
(0.997658 -0.000263904 0)
(0.998817 -0.00080241 0)
(0.997893 -0.00177059 0)
(0.99567 -0.00121066 0)
(0.994826 -0.000884196 0)
(0.994997 -5.55698e-05 0)
(0.995096 -0.000135036 0)
(0.991968 -0.000140611 0)
(0.989943 0.00398028 0)
(0.992066 0.0045806 0)
(0.992463 0.00677271 0)
(0.992806 0.0103935 0)
(0.995718 0.010427 0)
(0.997719 0.0104744 0)
(0.998103 0.0115779 0)
(0.999031 0.0115455 0)
(0.999704 -0.00320069 0)
(0.996905 0.00143769 0)
(0.998901 0.000200036 0)
(0.99857 -0.000696089 0)
(0.997683 -0.000216214 0)
(0.998797 -0.000773202 0)
(0.997927 -0.00167465 0)
(0.995761 -0.00112345 0)
(0.994936 -0.000827864 0)
(0.995093 -1.30703e-05 0)
(0.995149 3.95133e-05 0)
(0.992266 9.61314e-05 0)
(0.990279 0.00389491 0)
(0.992292 0.00473507 0)
(0.992935 0.00658986 0)
(0.99313 0.0100289 0)
(0.995734 0.0103084 0)
(0.99783 0.0101943 0)
(0.998231 0.0111587 0)
(0.998933 0.0113981 0)
(0.999717 -0.00300491 0)
(0.997045 0.00121816 0)
(0.998882 0.000314916 0)
(0.998591 -0.000739051 0)
(0.997713 -0.000180625 0)
(0.99878 -0.000730602 0)
(0.997966 -0.00158071 0)
(0.995855 -0.0010425 0)
(0.995047 -0.000757381 0)
(0.995199 2.69729e-05 0)
(0.995217 0.000200008 0)
(0.992563 0.000331666 0)
(0.990629 0.00382148 0)
(0.992523 0.00486024 0)
(0.993386 0.00643196 0)
(0.993478 0.00965287 0)
(0.995764 0.0101658 0)
(0.997918 0.00994957 0)
(0.99838 0.0107337 0)
(0.99888 0.0111717 0)
(0.999729 -0.00280836 0)
(0.997189 0.00100213 0)
(0.998868 0.00041299 0)
(0.998611 -0.000758774 0)
(0.997749 -0.000156605 0)
(0.998766 -0.000678517 0)
(0.998007 -0.00148428 0)
(0.995952 -0.000970067 0)
(0.995161 -0.000675145 0)
(0.995312 7.1686e-05 0)
(0.995299 0.000349348 0)
(0.992859 0.000557796 0)
(0.99099 0.00375614 0)
(0.992759 0.00495707 0)
(0.993816 0.00629585 0)
(0.993846 0.00927678 0)
(0.995814 0.00999541 0)
(0.997983 0.00973376 0)
(0.998537 0.0103293 0)
(0.998881 0.0108704 0)
(0.999742 -0.00261201 0)
(0.997339 0.000791837 0)
(0.998861 0.000490012 0)
(0.998632 -0.000753815 0)
(0.997789 -0.000143577 0)
(0.998755 -0.000619409 0)
(0.998051 -0.00138408 0)
(0.996052 -0.00090181 0)
(0.995278 -0.000587968 0)
(0.995434 0.000128298 0)
(0.995395 0.000490426 0)
(0.993154 0.000774601 0)
(0.991361 0.00370529 0)
(0.993001 0.00503447 0)
(0.994225 0.00618371 0)
(0.994229 0.00890816 0)
(0.995887 0.00979629 0)
(0.99803 0.00953215 0)
(0.99869 0.00996023 0)
(0.998933 0.0105108 0)
(0.999754 -0.0024174 0)
(0.997492 0.000590072 0)
(0.998862 0.000544402 0)
(0.998653 -0.000725179 0)
(0.997834 -0.000137147 0)
(0.998747 -0.000559474 0)
(0.998096 -0.00127998 0)
(0.996157 -0.000833826 0)
(0.9954 -0.000500295 0)
(0.995563 0.000197342 0)
(0.995505 0.000624011 0)
(0.993449 0.000981207 0)
(0.99174 0.00366872 0)
(0.993251 0.00508715 0)
(0.994614 0.00608468 0)
(0.994622 0.00854676 0)
(0.995985 0.00957717 0)
(0.998064 0.00933641 0)
(0.998829 0.00963096 0)
(0.999026 0.0101246 0)
(0.999767 -0.00222552 0)
(0.997648 0.00039937 0)
(0.998872 0.000577978 0)
(0.998675 -0.000677481 0)
(0.997883 -0.00013515 0)
(0.998744 -0.00049906 0)
(0.998143 -0.00117354 0)
(0.996264 -0.000760974 0)
(0.995527 -0.000415792 0)
(0.995699 0.000271372 0)
(0.995628 0.000759042 0)
(0.993745 0.00117674 0)
(0.992125 0.00363344 0)
(0.993508 0.00511604 0)
(0.994981 0.00599769 0)
(0.995023 0.00819113 0)
(0.996109 0.00933807 0)
(0.998092 0.00913813 0)
(0.998952 0.00933133 0)
(0.999146 0.00974184 0)
(0.999779 -0.00203747 0)
(0.997807 0.000221837 0)
(0.998891 0.000592889 0)
(0.998697 -0.000613991 0)
(0.997936 -0.000133666 0)
(0.998745 -0.000440746 0)
(0.998192 -0.00106786 0)
(0.996374 -0.000681917 0)
(0.995659 -0.000334505 0)
(0.995845 0.00034802 0)
(0.995764 0.000895744 0)
(0.994039 0.00136365 0)
(0.992516 0.00359963 0)
(0.993774 0.00512334 0)
(0.995328 0.0059253 0)
(0.995426 0.00785012 0)
(0.996259 0.00908075 0)
(0.998117 0.008938 0)
(0.999057 0.00905191 0)
(0.999274 0.00939152 0)
(0.99979 -0.00185488 0)
(0.997967 6.25149e-05 0)
(0.998919 0.000588992 0)
(0.99872 -0.000542583 0)
(0.997991 -0.00012858 0)
(0.99875 -0.000382616 0)
(0.998242 -0.000964452 0)
(0.996486 -0.000597173 0)
(0.995796 -0.000251093 0)
(0.996001 0.000419632 0)
(0.995911 0.00102871 0)
(0.994332 0.00154535 0)
(0.992908 0.00357383 0)
(0.99405 0.00510479 0)
(0.995656 0.00585733 0)
(0.995828 0.00753094 0)
(0.996436 0.00880887 0)
(0.998144 0.00873575 0)
(0.999149 0.00877503 0)
(0.999397 0.00908346 0)
(0.999802 -0.00167886 0)
(0.998126 -7.6227e-05 0)
(0.998959 0.000567154 0)
(0.998744 -0.000467883 0)
(0.998047 -0.000118361 0)
(0.99876 -0.00032607 0)
(0.998294 -0.000862735 0)
(0.996599 -0.000506309 0)
(0.995936 -0.000162108 0)
(0.996165 0.000484946 0)
(0.996072 0.00115586 0)
(0.994621 0.00172392 0)
(0.9933 0.0035552 0)
(0.994333 0.00506323 0)
(0.995967 0.00578384 0)
(0.996224 0.00722889 0)
(0.996636 0.0085222 0)
(0.998173 0.00853475 0)
(0.999235 0.0084877 0)
(0.999515 0.00879685 0)
(0.999813 -0.00151098 0)
(0.998285 -0.000190859 0)
(0.999007 0.0005265 0)
(0.998771 -0.000394753 0)
(0.998105 -0.000102007 0)
(0.998774 -0.000269129 0)
(0.998348 -0.00076201 0)
(0.996713 -0.000415403 0)
(0.996077 -6.87206e-05 0)
(0.996337 0.0005492 0)
(0.996247 0.00126759 0)
(0.994907 0.00189728 0)
(0.993686 0.00354578 0)
(0.994623 0.00500014 0)
(0.996263 0.00570435 0)
(0.996614 0.00694421 0)
(0.996862 0.00822305 0)
(0.998203 0.00834436 0)
(0.999313 0.00820316 0)
(0.999634 0.00850099 0)
(0.999823 -0.00135201 0)
(0.998439 -0.000278477 0)
(0.999065 0.00047007 0)
(0.9988 -0.000327303 0)
(0.998162 -8.10428e-05 0)
(0.998791 -0.000211261 0)
(0.998402 -0.000662345 0)
(0.996829 -0.000326188 0)
(0.996218 3.60894e-05 0)
(0.996515 0.000614566 0)
(0.996437 0.00135798 0)
(0.995191 0.00205711 0)
(0.994063 0.0035508 0)
(0.994916 0.00492588 0)
(0.996544 0.00561705 0)
(0.996992 0.00667708 0)
(0.997114 0.00790703 0)
(0.998239 0.00815721 0)
(0.999373 0.00794154 0)
(0.999764 0.00817282 0)
(0.999833 -0.00120329 0)
(0.998588 -0.000336241 0)
(0.999129 0.000400308 0)
(0.998832 -0.000270335 0)
(0.99822 -5.41312e-05 0)
(0.99881 -0.000154255 0)
(0.998458 -0.000561189 0)
(0.996947 -0.000238982 0)
(0.99636 0.000147766 0)
(0.996694 0.000681843 0)
(0.99664 0.00143516 0)
(0.995477 0.00219952 0)
(0.994429 0.00356776 0)
(0.995209 0.00485025 0)
(0.996812 0.0055175 0)
(0.997353 0.00642595 0)
(0.997391 0.00757617 0)
(0.998289 0.007954 0)
(0.999407 0.00772472 0)
(0.999899 0.00782843 0)
(0.999843 -0.00106492 0)
(0.998729 -0.000367695 0)
(0.999198 0.000322026 0)
(0.998869 -0.000225673 0)
(0.998278 -2.47364e-05 0)
(0.998831 -9.58502e-05 0)
(0.998513 -0.000458892 0)
(0.997066 -0.00015093 0)
(0.996502 0.000256452 0)
(0.996874 0.000761292 0)
(0.996855 0.00150062 0)
(0.995765 0.0023149 0)
(0.994783 0.00358772 0)
(0.995498 0.00477468 0)
(0.997066 0.0054124 0)
(0.997694 0.00619021 0)
(0.997686 0.00724371 0)
(0.998367 0.00771768 0)
(0.999416 0.00755018 0)
(1.00002 0.00750629 0)
(0.999852 -0.000937404 0)
(0.998862 -0.000377638 0)
(0.999269 0.000243553 0)
(0.998909 -0.000191886 0)
(0.998336 4.74877e-06 0)
(0.998854 -3.66238e-05 0)
(0.998569 -0.00035686 0)
(0.997185 -6.28053e-05 0)
(0.996644 0.00036077 0)
(0.997051 0.000851467 0)
(0.997076 0.00155915 0)
(0.996057 0.00239926 0)
(0.995128 0.00360468 0)
(0.99578 0.0047022 0)
(0.997306 0.00530686 0)
(0.998013 0.00596938 0)
(0.997989 0.00691994 0)
(0.99848 0.00744656 0)
(0.999413 0.00737988 0)
(1.00011 0.00724127 0)
(0.999861 -0.000820206 0)
(0.998985 -0.000371162 0)
(0.999341 0.000170716 0)
(0.998954 -0.00016856 0)
(0.998396 3.25985e-05 0)
(0.998879 2.35196e-05 0)
(0.998623 -0.00025482 0)
(0.997304 2.5896e-05 0)
(0.996787 0.000456354 0)
(0.997227 0.000938344 0)
(0.997299 0.0016192 0)
(0.996352 0.00246565 0)
(0.995465 0.00360697 0)
(0.996054 0.00463075 0)
(0.997532 0.00520244 0)
(0.998308 0.00576272 0)
(0.998291 0.00660734 0)
(0.998624 0.007155 0)
(0.99942 0.00717925 0)
(1.00016 0.00704437 0)
(0.999869 -0.000713273 0)
(0.999097 -0.000352071 0)
(0.999412 0.000108735 0)
(0.999002 -0.000154124 0)
(0.998456 5.54124e-05 0)
(0.998905 8.17879e-05 0)
(0.998677 -0.000151463 0)
(0.997421 0.000116961 0)
(0.996928 0.000545652 0)
(0.9974 0.00102109 0)
(0.997524 0.001682 0)
(0.996645 0.00251676 0)
(0.995795 0.00359188 0)
(0.996323 0.00455049 0)
(0.997744 0.00510258 0)
(0.998577 0.00557722 0)
(0.998586 0.00630898 0)
(0.998791 0.00685843 0)
(0.999453 0.00693894 0)
(1.00017 0.00687799 0)
(0.999878 -0.000616061 0)
(0.999199 -0.000324243 0)
(0.999481 6.08482e-05 0)
(0.999053 -0.000146117 0)
(0.998518 7.24303e-05 0)
(0.998934 0.000138436 0)
(0.99873 -4.79231e-05 0)
(0.997536 0.000208032 0)
(0.997069 0.000634768 0)
(0.997572 0.00109561 0)
(0.997747 0.00173942 0)
(0.996934 0.00255694 0)
(0.996115 0.00357015 0)
(0.996587 0.00445658 0)
(0.997947 0.00499571 0)
(0.998819 0.00541569 0)
(0.998865 0.00603216 0)
(0.998967 0.00656705 0)
(0.999515 0.00666676 0)
(1.00018 0.00668936 0)
(0.999886 -0.000527891 0)
(0.999292 -0.000290527 0)
(0.999545 2.64494e-05 0)
(0.999106 -0.000139742 0)
(0.998582 8.34689e-05 0)
(0.998966 0.00018793 0)
(0.998782 5.6172e-05 0)
(0.997649 0.000304334 0)
(0.997208 0.000720446 0)
(0.99774 0.0011597 0)
(0.997969 0.00178409 0)
(0.997219 0.00259125 0)
(0.996424 0.00354431 0)
(0.996842 0.00435317 0)
(0.998143 0.00486999 0)
(0.999038 0.00526429 0)
(0.999125 0.00578563 0)
(0.999142 0.00629618 0)
(0.999594 0.00638337 0)
(1.00022 0.00644013 0)
(0.999894 -0.000448801 0)
(0.999375 -0.000252628 0)
(0.999604 4.23501e-06 0)
(0.999159 -0.000131372 0)
(0.998648 8.98585e-05 0)
(0.999003 0.000228852 0)
(0.998835 0.000156176 0)
(0.997758 0.000407727 0)
(0.997341 0.000803431 0)
(0.997904 0.00121545 0)
(0.998191 0.00181783 0)
(0.9975 0.00261599 0)
(0.996718 0.00351796 0)
(0.997085 0.00424756 0)
(0.998335 0.00472473 0)
(0.999242 0.00510893 0)
(0.999369 0.00555957 0)
(0.999306 0.00605192 0)
(0.999663 0.00613221 0)
(1.00029 0.00611933 0)
(0.999903 -0.000377356 0)
(0.999449 -0.000213576 0)
(0.999659 -6.99467e-06 0)
(0.999211 -0.000117062 0)
(0.998717 9.40695e-05 0)
(0.999045 0.000260082 0)
(0.998891 0.000249335 0)
(0.997864 0.000513049 0)
(0.997468 0.000888226 0)
(0.998062 0.00126403 0)
(0.998411 0.00183839 0)
(0.997779 0.00262537 0)
(0.996999 0.0034897 0)
(0.997309 0.00414814 0)
(0.998517 0.00456301 0)
(0.999435 0.0049458 0)
(0.999602 0.00534016 0)
(0.999472 0.00581235 0)
(0.999695 0.00594695 0)
(1.00038 0.00578849 0)
(0.999911 -0.000313639 0)
(0.999515 -0.000174432 0)
(0.999709 -1.01431e-05 0)
(0.999262 -9.39578e-05 0)
(0.998785 0.000100405 0)
(0.999094 0.000280845 0)
(0.998951 0.000332431 0)
(0.997967 0.00061662 0)
(0.997587 0.000975468 0)
(0.998212 0.00130809 0)
(0.998629 0.00183911 0)
(0.998056 0.00261743 0)
(0.99727 0.00345852 0)
(0.997512 0.00406009 0)
(0.998688 0.00439444 0)
(0.999619 0.00476266 0)
(0.999822 0.00513205 0)
(0.999658 0.00555086 0)
(0.9997 0.00580414 0)
(1.00042 0.00554301 0)
(0.999919 -0.000256927 0)
(0.999574 -0.000135665 0)
(0.999755 -7.50538e-06 0)
(0.99931 -6.34674e-05 0)
(0.998851 0.000111832 0)
(0.999148 0.000293361 0)
(0.99902 0.000401461 0)
(0.99807 0.000717563 0)
(0.997698 0.00106679 0)
(0.998348 0.0013502 0)
(0.998843 0.00182433 0)
(0.998337 0.00258912 0)
(0.997535 0.00341716 0)
(0.99769 0.00398373 0)
(0.998836 0.00423578 0)
(0.999798 0.0045524 0)
(1.00003 0.00493718 0)
(0.999867 0.00527918 0)
(0.999723 0.0056396 0)
(1.00036 0.00542382 0)
(0.999928 -0.000206979 0)
(0.999626 -9.79913e-05 0)
(0.999799 -1.29493e-06 0)
(0.999359 -2.66409e-05 0)
(0.998916 0.000131278 0)
(0.999207 0.000300222 0)
(0.999098 0.000454674 0)
(0.998177 0.0008104 0)
(0.9978 0.00116182 0)
(0.998469 0.00139602 0)
(0.999048 0.00180062 0)
(0.998621 0.00253862 0)
(0.9978 0.00335929 0)
(0.997851 0.00391547 0)
(0.998951 0.0040987 0)
(0.99997 0.00432673 0)
(1.00022 0.00473192 0)
(1.00008 0.00503222 0)
(0.999808 0.00540536 0)
(1.00023 0.00538328 0)
(0.999937 -0.000163639 0)
(0.999672 -6.06562e-05 0)
(0.999841 6.55063e-06 0)
(0.999408 1.33722e-05 0)
(0.998977 0.000161832 0)
(0.999269 0.000304579 0)
(0.999187 0.000490151 0)
(0.998292 0.000892001 0)
(0.997897 0.00125629 0)
(0.998572 0.00144749 0)
(0.999241 0.00177121 0)
(0.998906 0.00246459 0)
(0.998072 0.00328531 0)
(0.998001 0.0038469 0)
(0.999028 0.00398937 0)
(1.00012 0.00410771 0)
(1.00042 0.00449435 0)
(1.00028 0.00481999 0)
(0.999961 0.00512913 0)
(1.0001 0.00531428 0)
(0.999946 -0.000126882 0)
(0.999713 -2.21647e-05 0)
(0.99988 1.48252e-05 0)
(0.999458 5.60022e-05 0)
(0.999034 0.000204341 0)
(0.99933 0.000312475 0)
(0.999286 0.00050875 0)
(0.998418 0.000956947 0)
(0.997991 0.00134704 0)
(0.998657 0.00150564 0)
(0.999414 0.00174439 0)
(0.999192 0.00236865 0)
(0.998357 0.00318847 0)
(0.998151 0.00376711 0)
(0.99907 0.00390518 0)
(1.00023 0.00392042 0)
(1.00062 0.0042303 0)
(1.00048 0.00460933 0)
(1.00015 0.00486944 0)
(1.00005 0.00515242 0)
(0.999955 -9.69191e-05 0)
(0.999748 1.83017e-05 0)
(0.999918 2.39326e-05 0)
(0.999512 9.62376e-05 0)
(0.999089 0.000256593 0)
(0.999388 0.000328423 0)
(0.999395 0.000513779 0)
(0.99856 0.00100114 0)
(0.998089 0.00143049 0)
(0.998723 0.00157135 0)
(0.999563 0.00172662 0)
(0.999472 0.00225934 0)
(0.998656 0.00306702 0)
(0.998314 0.00367367 0)
(0.999089 0.00383204 0)
(1.00029 0.00377601 0)
(1.00082 0.00396859 0)
(1.00069 0.00436369 0)
(1.00035 0.00464248 0)
(1.00008 0.004924 0)
(0.999965 -7.27624e-05 0)
(0.999778 5.89581e-05 0)
(0.999953 3.44007e-05 0)
(0.99957 0.000130432 0)
(0.999143 0.000316209 0)
(0.999441 0.000355877 0)
(0.999509 0.000510547 0)
(0.998718 0.00102278 0)
(0.998194 0.0015003 0)
(0.998775 0.00164133 0)
(0.999682 0.00172214 0)
(0.999738 0.00214767 0)
(0.998971 0.00291879 0)
(0.998498 0.00356196 0)
(0.9991 0.00375865 0)
(1.0003 0.00366674 0)
(1.00097 0.00374373 0)
(1.00092 0.00408111 0)
(1.00056 0.00441732 0)
(1.00019 0.00468144 0)
(0.999974 -5.43811e-05 0)
(0.999804 0.000100332 0)
(0.999985 4.86229e-05 0)
(0.999632 0.000155682 0)
(0.999197 0.000378133 0)
(0.999486 0.000398895 0)
(0.999624 0.000503346 0)
(0.998894 0.00101845 0)
(0.998314 0.0015515 0)
(0.998817 0.00171234 0)
(0.999769 0.0017311 0)
(0.999981 0.00204212 0)
(0.999297 0.00274658 0)
(0.998712 0.00342241 0)
(0.999118 0.0036807 0)
(1.00026 0.00357529 0)
(1.00107 0.00356837 0)
(1.00115 0.00379825 0)
(1.00079 0.00415494 0)
(1.00034 0.00444652 0)
(0.999983 -4.05805e-05 0)
(0.999825 0.000140198 0)
(1.00001 6.8093e-05 0)
(0.999699 0.000170534 0)
(0.999255 0.000435415 0)
(0.999521 0.000456546 0)
(0.999734 0.00050109 0)
(0.999085 0.000991457 0)
(0.998455 0.0015764 0)
(0.998856 0.0017785 0)
(0.999825 0.00175552 0)
(1.00019 0.00195218 0)
(0.999627 0.00256391 0)
(0.998964 0.00325009 0)
(0.999156 0.00359147 0)
(1.0002 0.00349379 0)
(1.0011 0.00342731 0)
(1.00133 0.00355807 0)
(1.00106 0.00385602 0)
(1.00054 0.00419917 0)
(0.999992 -3.00584e-05 0)
(0.999842 0.000176492 0)
(1.00003 9.42633e-05 0)
(0.999769 0.000178268 0)
(0.999318 0.000482918 0)