/*--------------------------------*- C++ -*----------------------------------*\
| =========                 |                                                 |
| \\      /  F ield         | OpenFOAM: The Open Source CFD Toolbox           |
|  \\    /   O peration     | Version:  v1912                                 |
|   \\  /    A nd           | Website:  www.openfoam.com                      |
|    \\/     M anipulation  |                                                 |
\*---------------------------------------------------------------------------*/
FoamFile
{
    version     2.0;
    format      ascii;
    class       volScalarField;
    location    "8.25";
    object      p;
}
// * * * * * * * * * * * * * * * * * * * * * * * * * * * * * * * * * * * * * //

dimensions      [0 2 -2 0 0 0 0];


internalField   nonuniform List<scalar> 
9600
(
-5.68693e-11
0.0151172
0.0192732
0.0157947
0.00841138
0.015485
0.0171761
0.0150105
0.0157664
0.0198302
0.0192952
0.0190037
0.0165643
0.0170772
0.0163136
0.0150237
0.0151202
0.0152581
0.015164
0.0158819
3.3462e-06
0.0151352
0.0192399
0.0157777
0.00843395
0.0154788
0.0171487
0.0150254
0.0157592
0.0198169
0.0192632
0.0190028
0.0165928
0.0170773
0.0163262
0.0150268
0.0151414
0.0152454
0.0151874
0.0158268
9.40726e-06
0.0151619
0.0192209
0.0157749
0.00845005
0.015468
0.0171325
0.015051
0.0157409
0.0197833
0.0192347
0.0190162
0.0166353
0.0170787
0.016353
0.0150302
0.0151714
0.0152248
0.0152136
0.0157546
2.43216e-05
0.0151992
0.019201
0.015781
0.00847039
0.0154676
0.0171217
0.0150882
0.0157127
0.019725
0.0192182
0.0190142
0.0166683
0.017092
0.0163764
0.015034
0.0151977
0.0152064
0.0152283
0.0156625
5.49436e-05
0.0152439
0.0191703
0.0157957
0.0085037
0.0154719
0.0171113
0.0151405
0.0156765
0.0196338
0.0192015
0.0189795
0.0166932
0.0171119
0.0163933
0.0150379
0.0152235
0.0151915
0.0152223
0.0155645
0.000106982
0.0152839
0.0191213
0.0158169
0.00855979
0.0154719
0.0170971
0.0152062
0.0156344
0.0195071
0.0191728
0.0189164
0.0167151
0.0171299
0.0164093
0.0150422
0.0152512
0.0151753
0.0151971
0.0154768
0.000182932
0.0153094
0.0190506
0.0158429
0.00864526
0.0154591
0.017075
0.0152804
0.0155906
0.0193516
0.0191274
0.0188369
0.0167352
0.0171441
0.0164293
0.0150462
0.0152772
0.0151576
0.0151588
0.0153986
0.000282222
0.015316
0.0189589
0.0158719
0.0087614
0.0154269
0.0170452
0.015358
0.0155514
0.0191861
0.0190684
0.0187506
0.0167558
0.017156
0.0164552
0.0150492
0.015299
0.0151425
0.0151083
0.0153205
0.000402358
0.0153031
0.0188501
0.015901
0.00890477
0.015376
0.0170111
0.0154332
0.0155242
0.0190306
0.0190026
0.0186652
0.0167808
0.0171669
0.0164874
0.0150523
0.015317
0.0151326
0.0150435
0.0152388
0.000540509
0.0152738
0.0187294
0.0159266
0.00906962
0.0153151
0.0169773
0.0155001
0.0155141
0.0188984
0.018939
0.0185866
0.0168123
0.0171775
0.016525
0.0150579
0.0153309
0.015128
0.0149669
0.0151559
0.00069461
0.0152328
0.0186017
0.0159513
0.0092499
0.0152526
0.0169465
0.0155551
0.0155228
0.0187968
0.0188834
0.0185157
0.0168489
0.0171867
0.0165646
0.0150669
0.0153411
0.0151302
0.0148854
0.0150751
0.000863308
0.015186
0.0184711
0.015973
0.00944019
0.0151941
0.0169199
0.0155977
0.0155476
0.0187223
0.0188356
0.0184477
0.0168856
0.0171924
0.0166018
0.0150796
0.0153484
0.0151398
0.0148055
0.0149985
0.0010452
0.0151383
0.0183399
0.0159913
0.00963608
0.0151418
0.0168977
0.0156304
0.0155825
0.0186657
0.0187917
0.018377
0.016918
0.017193
0.0166338
0.0150957
0.0153535
0.0151561
0.0147314
0.0149267
0.00123835
0.0150918
0.018209
0.0160055
0.0098345
0.0150956
0.016879
0.0156567
0.0156221
0.0186189
0.0187485
0.0183008
0.0169442
0.0171889
0.0166601
0.0151148
0.0153559
0.0151773
0.014665
0.0148587
0.00144055
0.0150466
0.0180786
0.016015
0.0100338
0.015054
0.0168628
0.0156791
0.0156627
0.0185766
0.0187047
0.0182195
0.0169644
0.0171816
0.0166812
0.0151365
0.0153548
0.0152015
0.0146067
0.0147926
0.00164985
0.0150022
0.0179485
0.016019
0.0102333
0.0150156
0.016848
0.0156992
0.0157031
0.0185364
0.0186605
0.0181347
0.0169798
0.0171721
0.0166986
0.0151606
0.0153497
0.0152272
0.0145566
0.0147266
0.00186488
0.0149583
0.0178188
0.0160168
0.0104332
0.0149795
0.0168341
0.0157176
0.0157427
0.0184979
0.018616
0.0180481
0.0169915
0.0171613
0.0167134
0.0151873
0.01534
0.0152531
0.0145151
0.0146594
0.00208494
0.0149146
0.0176898
0.0160082
0.0106336
0.0149453
0.0168209
0.0157347
0.0157814
0.018461
0.0185709
0.0179605
0.0170002
0.01715
0.0167262
0.0152165
0.0153255
0.0152781
0.0144831
0.0145905
0.00230978
0.0148711
0.017562
0.0159932
0.0108349
0.0149134
0.0168086
0.0157509
0.0158185
0.0184253
0.0185249
0.0178725
0.0170064
0.0171384
0.0167374
0.0152483
0.0153064
0.0153014
0.0144617
0.0145195
0.00253938
0.0148278
0.017436
0.0159719
0.0110372
0.0148839
0.0167974
0.0157666
0.0158537
0.0183906
0.0184776
0.0177843
0.0170105
0.0171269
0.0167468
0.0152832
0.015283
0.0153222
0.0144523
0.0144471
0.00277384
0.014785
0.0173125
0.0159444
0.0112406
0.0148574
0.0167873
0.015782
0.0158861
0.0183566
0.0184288
0.0176957
0.0170127
0.0171154
0.0167542
0.0153215
0.015256
0.0153393
0.0144563
0.0143751
0.00301323
0.0147424
0.0171921
0.0159109
0.0114446
0.0148341
0.0167781
0.0157976
0.0159151
0.018323
0.0183787
0.0176067
0.0170132
0.017104
0.0167589
0.0153638
0.0152264
0.0153514
0.0144754
0.0143062
0.00325756
0.0147002
0.0170756
0.0158714
0.0116488
0.0148144
0.0167696
0.0158138
0.0159395
0.0182898
0.0183277
0.0175173
0.017012
0.0170933
0.0167605
0.0154101
0.0151959
0.0153568
0.0145107
0.0142446
0.00350677
0.0146582
0.0169635
0.015826
0.0118522
0.0147986
0.0167613
0.015831
0.0159608
0.0182567
0.0182767
0.0174272
0.0170086
0.0170845
0.016758
0.0154598
0.0151669
0.0153536
0.0145617
0.0141963
0.00376074
0.014616
0.0168565
0.0157747
0.0120537
0.0147871
0.0167528
0.0158494
0.0159782
0.0182236
0.0182267
0.0173362
0.0170024
0.0170787
0.016751
0.0155118
0.0151424
0.0153401
0.0146255
0.0141681
0.00401938
0.0145741
0.0167551
0.0157178
0.0122521
0.0147805
0.0167439
0.0158694
0.0159918
0.0181902
0.0181786
0.0172444
0.0169925
0.0170773
0.0167394
0.0155638
0.0151256
0.0153164
0.0146971
0.0141667
0.00428263
0.0145317
0.0166597
0.0156557
0.0124462
0.0147791
0.0167341
0.015891
0.0160018
0.0181559
0.0181334
0.0171522
0.0169777
0.0170815
0.0167247
0.0156132
0.0151187
0.0152845
0.0147695
0.014196
0.00455048
0.0144888
0.0165708
0.0155888
0.0126345
0.0147836
0.0167231
0.0159143
0.0160084
0.0181202
0.0180919
0.0170602
0.0169567
0.0170913
0.0167091
0.0156573
0.0151229
0.0152485
0.0148341
0.0142542
0.00482289
0.0144449
0.0164887
0.0155182
0.0128159
0.0147942
0.0167107
0.0159394
0.0160118
0.0180823
0.0180549
0.0169696
0.0169281
0.0171061
0.0166952
0.0156949
0.015138
0.0152139
0.0148852
0.0143329
0.00509991
0.0143999
0.0164138
0.015445
0.0129889
0.0148112
0.0166969
0.0159663
0.0160122
0.0180418
0.018023
0.0168811
0.0168909
0.0171249
0.0166855
0.0157248
0.0151621
0.0151864
0.0149226
0.0144207
0.00538156
0.0143534
0.0163461
0.0153707
0.0131523
0.0148345
0.0166819
0.0159948
0.0160096
0.0179982
0.0179963
0.0167957
0.0168445
0.0171472
0.0166826
0.015747
0.0151921
0.0151701
0.014951
0.0145063
0.00566788
0.0143054
0.0162854
0.015297
0.0133047
0.0148636
0.0166662
0.0160247
0.016004
0.0179507
0.0179756
0.0167149
0.0167874
0.0171716
0.0166894
0.0157622
0.0152252
0.0151672
0.0149764
0.0145838
0.00595892
0.0142555
0.0162314
0.0152259
0.0134454
0.0148979
0.0166504
0.0160565
0.0159956
0.0178982
0.0179612
0.0166409
0.0167186
0.0171957
0.0167079
0.015772
0.0152586
0.0151782
0.0150041
0.0146553
0.00625474
0.0142038
0.0161835
0.0151595
0.0135737
0.0149362
0.0166337
0.0160905
0.0159848
0.0178392
0.0179535
0.0165757
0.0166372
0.0172179
0.0167402
0.0157776
0.0152895
0.0152033
0.0150364
0.0147247
0.00655528
0.0141502
0.016141
0.0150998
0.0136896
0.0149772
0.016623
0.0161266
0.0159722
0.0177728
0.0179523
0.0165217
0.0165426
0.0172353
0.016789
0.0157808
0.0153138
0.0152448
0.0150782
0.0147926
0.00686056
0.0140947
0.0161031
0.0150484
0.0137935
0.0150193
0.0166149
0.0161656
0.0159589
0.0176977
0.0179564
0.0164827
0.0164346
0.0172419
0.0168573
0.015786
0.0153242
0.0153012
0.0151394
0.0148621
0.00717058
0.0140376
0.0160688
0.0150072
0.013886
0.015061
0.0166095
0.0162078
0.015946
0.0176129
0.0179631
0.0164626
0.0163157
0.0172299
0.0169463
0.0158044
0.0153134
0.0153613
0.0152299
0.0149429
0.00748525
0.0139791
0.0160372
0.0149774
0.0139684
0.015101
0.016606
0.0162538
0.0159346
0.017518
0.0179687
0.0164643
0.0161915
0.0171919
0.0170503
0.0158469
0.0152825
0.0154114
0.0153525
0.0150481
0.00780441
0.0139196
0.0160074
0.0149595
0.0140419
0.0151386
0.0166036
0.016303
0.015927
0.0174147
0.0179701
0.016488
0.0160678
0.0171246
0.0171614
0.0159202
0.0152381
0.0154388
0.0155007
0.0151926
0.00812787
0.0138598
0.0159785
0.0149543
0.0141079
0.0151729
0.0166017
0.0163558
0.015924
0.0173038
0.0179647
0.016533
0.0159509
0.0170245
0.0172704
0.0160315
0.0151914
0.0154328
0.0156587
0.0153862
0.00845541
0.0138007
0.0159496
0.0149619
0.0141677
0.0152031
0.0165997
0.0164119
0.0159286
0.0171871
0.017948
0.0165973
0.0158503
0.0168938
0.0173614
0.0161803
0.0151595
0.0153897
0.0158102
0.0156284
0.0087867
0.0137432
0.0159195
0.0149827
0.0142225
0.0152286
0.016598
0.0164695
0.0159415
0.0170683
0.017917
0.0166738
0.0157742
0.0167432
0.0174242
0.016354
0.0151552
0.0153088
0.0159373
0.0159154
0.0091213
0.0136888
0.015887
0.0150167
0.0142744
0.0152484
0.0165961
0.0165293
0.0159619
0.0169499
0.0178727
0.0167591
0.0157247
0.0165794
0.017454
0.0165436
0.0151913
0.0151944
0.016002
0.0162398
0.0094586
0.013639
0.0158506
0.0150639
0.014325
0.0152623
0.0165941
0.0165895
0.0159915
0.0168334
0.0178135
0.0168504
0.0157053
0.0164161
0.0174417
0.0167466
0.0153121
0.0150961
0.0159901
0.0164855
0.00979784
0.0135961
0.0158083
0.0151237
0.0143772
0.015269
0.0165922
0.0166512
0.0160291
0.0167218
0.0177402
0.016941
0.0157195
0.0162627
0.0173938
0.0169537
0.0154969
0.0150337
0.0159056
0.0166247
0.0101381
0.0135618
0.015759
0.0151948
0.0144341
0.0152678
0.0165894
0.0167147
0.0160728
0.016617
0.0176534
0.0170285
0.0157678
0.0161236
0.0173193
0.01715
0.0157214
0.0150177
0.0157738
0.016647
0.0104784
0.0135386
0.0157015
0.0152751
0.0144992
0.0152595
0.0165828
0.0167806
0.0161266
0.0165186
0.017551
0.0171121
0.0158484
0.0160097
0.0172144
0.0173024
0.0159578
0.0150256
0.015604
0.0166235
0.0108173
0.0135283
0.0156356
0.0153614
0.0145767
0.0152445
0.0165689
0.0168524
0.016192
0.0164242
0.0174363
0.0171924
0.0159568
0.0159231
0.0170902
0.0174067
0.0162187
0.0151245
0.0154497
0.0164742
0.0111534
0.013533
0.0155623
0.0154495
0.0146697
0.0152244
0.0165445
0.0169286
0.0162715
0.0163414
0.0173076
0.0172539
0.0160947
0.015878
0.0169402
0.0174381
0.0164734
0.0152861
0.0153216
0.0162997
0.0114851
0.0135542
0.0154833
0.0155349
0.0147805
0.0152034
0.0165036
0.0170067
0.0163743
0.0162731
0.0171598
0.0172952
0.0162625
0.0158676
0.016769
0.0174107
0.0166968
0.0155013
0.015291
0.0161319
0.0118106
0.0135927
0.0154018
0.0156135
0.0149092
0.0151859
0.016444
0.0170843
0.0165015
0.0162231
0.0170006
0.0173086
0.0164398
0.0158977
0.0166111
0.0173338
0.0168639
0.0157519
0.01536
0.0160018
0.0121284
0.0136497
0.0153211
0.0156817
0.0150534
0.0151784
0.0163667
0.017148
0.0166491
0.0162051
0.0168367
0.0172799
0.0166164
0.0159844
0.0164752
0.0172106
0.0169807
0.0160176
0.0155017
0.0159379
0.0124371
0.0137251
0.0152456
0.0157371
0.0152092
0.0151872
0.0162729
0.0171895
0.0168131
0.0162277
0.0166773
0.0172114
0.0167769
0.0161167
0.0163813
0.0170703
0.0170486
0.0162663
0.0156867
0.0159467
0.0127353
0.0138187
0.0151797
0.0157777
0.0153704
0.0152183
0.0161695
0.0171987
0.016981
0.0162969
0.0165397
0.0171096
0.0169017
0.0162833
0.0163514
0.0169312
0.0170554
0.0164817
0.0159049
0.0160146
0.0130221
0.0139298
0.0151274
0.0158027
0.0155303
0.0152763
0.016065
0.0171686
0.0171401
0.0164125
0.0164394
0.0169876
0.0169837
0.016464
0.0163805
0.0168169
0.01702
0.0166558
0.0161418
0.0161179
0.0132965
0.014057
0.0150925
0.015813
0.0156823
0.015363
0.0159695
0.0170977
0.0172747
0.0165678
0.0163898
0.01686
0.017019
0.016636
0.0164585
0.0167557
0.0169721
0.016769
0.0163715
0.0162543
0.0135577
0.0141983
0.0150781
0.0158104
0.0158201
0.0154778
0.0158941
0.0169898
0.0173688
0.0167524
0.0164018
0.0167441
0.017012
0.0167874
0.0165723
0.0167439
0.0169312
0.0168284
0.0165794
0.016443
0.0138059
0.0143503
0.0150859
0.0157994
0.0159384
0.0156158
0.0158487
0.0168527
0.0174123
0.0169468
0.0164749
0.0166599
0.0169745
0.0169048
0.0167048
0.0167727
0.0169207
0.0168672
0.0167402
0.0166594
0.0140414
0.0145099
0.0151163
0.0157859
0.0160334
0.0157666
0.0158429
0.0167085
0.0174003
0.0171243
0.0165993
0.0166248
0.0169249
0.0169808
0.0168412
0.0168381
0.0169444
0.0169094
0.0168418
0.016857
0.0142647
0.0146735
0.0151688
0.0157755
0.0161048
0.0159177
0.0158809
0.016583
0.0173374
0.0172646
0.0167624
0.0166442
0.0168829
0.0170209
0.0169631
0.0169283
0.0169932
0.0169737
0.0169199
0.0170074
0.0144764
0.0148382
0.0152417
0.0157732
0.0161552
0.0160587
0.0159579
0.0164921
0.0172395
0.017355
0.0169405
0.0167136
0.0168641
0.0170406
0.0170612
0.0170302
0.0170591
0.0170619
0.017015
0.0171132
0.0146776
0.015001
0.015332
0.015783
0.0161894
0.0161841
0.0160616
0.0164432
0.0171334
0.0173955
0.0171088
0.0168251
0.0168799
0.0170547
0.0171372
0.0171337
0.0171353
0.0171522
0.0171362
0.0172146
0.0148693
0.0151599
0.0154356
0.0158082
0.0162134
0.0162911
0.0161791
0.0164368
0.0170414
0.0173968
0.0172487
0.0169647
0.0169352
0.0170756
0.0171949
0.0172335
0.0172257
0.0172359
0.0172644
0.0173424
0.0150522
0.0153138
0.0155482
0.0158498
0.0162334
0.0163791
0.0163008
0.0164691
0.0169759
0.017374
0.0173529
0.01711
0.017024
0.0171169
0.0172413
0.0173229
0.0173358
0.0173265
0.017377
0.0174824
0.0152269
0.0154617
0.0156657
0.0159075
0.016255
0.0164502
0.0164191
0.0165305
0.0169407
0.017344
0.0174266
0.017247
0.0171357
0.0171861
0.0172916
0.0173918
0.017448
0.0174382
0.0174799
0.0176135
0.015394
0.0156037
0.0157844
0.0159794
0.0162825
0.0165079
0.016529
0.01661
0.0169367
0.017319
0.017476
0.0173711
0.0172579
0.0172765
0.0173612
0.0174496
0.0175404
0.0175645
0.0175948
0.0177346
0.0155535
0.0157396
0.0159016
0.0160625
0.0163188
0.0165565
0.0166277
0.0166987
0.0169604
0.0173086
0.0175088
0.0174786
0.0173848
0.0173778
0.0174503
0.0175213
0.0176134
0.0176808
0.017722
0.0178549
0.0157056
0.0158695
0.0160153
0.0161533
0.0163656
0.0166001
0.0167142
0.0167914
0.0170075
0.0173177
0.0175358
0.0175684
0.017513
0.0174884
0.0175459
0.0176152
0.0176897
0.0177761
0.0178461
0.0179784
0.0158497
0.0159939
0.0161244
0.0162472
0.0164226
0.0166438
0.0167894
0.016883
0.017072
0.017346
0.0175669
0.0176446
0.0176351
0.0176115
0.0176448
0.0177183
0.0177862
0.0178667
0.0179606
0.0181004
0.0159853
0.0161119
0.0162284
0.0163415
0.0164875
0.0166899
0.0168564
0.0169706
0.0171467
0.0173899
0.0176083
0.0177153
0.0177431
0.0177422
0.0177565
0.0178204
0.0178982
0.017969
0.0180688
0.0182166
0.0161119
0.016224
0.0163262
0.0164337
0.0165586
0.0167395
0.0169162
0.0170544
0.017228
0.0174455
0.0176603
0.0177913
0.0178399
0.0178676
0.017887
0.0179284
0.0180118
0.0180855
0.0181815
0.0183327
0.0162284
0.0163286
0.0164178
0.0165209
0.016633
0.0167951
0.0169715
0.0171295
0.0173134
0.0175115
0.0177178
0.0178748
0.0179385
0.0179815
0.0180276
0.0180563
0.0181273
0.0182095
0.0183045
0.0184546
0.0163336
0.0164257
0.016503
0.0166019
0.0167059
0.0168541
0.0170276
0.0171974
0.0173934
0.0175869
0.0177836
0.0179597
0.0180479
0.0180945
0.0181656
0.0182063
0.018258
0.0183404
0.0184385
0.0185867
0.0164266
0.0165137
0.0165805
0.0166756
0.0167763
0.0169142
0.0170822
0.0172623
0.0174652
0.0176612
0.0178588
0.018044
0.0181631
0.0182199
0.0183015
0.0183707
0.0184169
0.0184931
0.0185949
0.0187421
0.0165046
0.0165905
0.0166509
0.016741
0.0168406
0.0169757
0.0171353
0.0173222
0.017533
0.0177295
0.0179311
0.0181212
0.0182657
0.0183469
0.0184265
0.0185175
0.0185751
0.0186433
0.0187541
0.0189205
0.0165674
0.0166536
0.0167103
0.0167994
0.0168998
0.0170369
0.0171957
0.0173884
0.0176175
0.0178344
0.0180625
0.0182799
0.0184588
0.0185896
0.0186773
0.0187596
0.0188001
0.0187985
0.0188189
0.0188882
0.016614
0.0166937
0.0167493
0.0168454
0.0169531
0.0170555
0.0171917
0.0173416
0.0175097
0.0177004
0.0179701
0.018266
0.0185194
0.0187337
0.0189097
0.0191131
0.0193729
0.019646
0.0199359
0.0201938
0.0166444
0.016747
0.016798
0.0168995
0.0170215
0.0171519
0.0173212
0.0175261
0.0177651
0.0179955
0.0182433
0.018494
0.0186874
0.018855
0.0189928
0.0190606
0.019098
0.0190858
0.0190617
0.0190691
0.0165898
0.0166661
0.016802
0.0169666
0.0171007
0.0172299
0.0173864
0.0175526
0.0177457
0.0179608
0.018177
0.018416
0.0186543
0.0188637
0.0191214
0.0193991
0.0196999
0.0199982
0.0202632
0.0204639
0.0166175
0.0167241
0.016848
0.0170103
0.0171579
0.0172863
0.017435
0.0176105
0.017814
0.0180624
0.0183219
0.018572
0.0188307
0.0190483
0.0192726
0.0195064
0.0197285
0.0199256
0.0200756
0.0201629
0.0168695
0.0151406
0.0100423
0.00550284
0.00514626
0.00757495
0.0102151
0.012047
0.0130997
0.0137008
0.0141935
0.0147664
0.0154281
0.0160344
0.0165467
0.0172322
0.0180902
0.0187784
0.0192642
0.0197724
0.0203652
0.0210121
0.0216262
0.022127
0.0226115
0.0231625
0.0237414
0.0243482
0.0250009
0.025649
0.0262438
0.0268561
0.0274964
0.028099
0.0286575
0.0292238
0.0298356
0.030469
0.0310962
0.0317404
0.0323904
0.0330297
0.0336912
0.034393
0.0350954
0.0358053
0.036597
0.0374022
0.0381115
0.0387261
0.0392566
0.0396894
0.0402513
0.0412184
0.0423695
0.0433587
0.0442086
0.0450955
0.0459686
0.0467452
0.0474713
0.0483269
0.0493238
0.0502758
0.0512034
0.0522289
0.0532376
0.0541949
0.0552474
0.0563002
0.057285
0.0582874
0.0594424
0.0606139
0.0617626
0.0629155
0.0641265
0.0653739
0.066618
0.067881
0.0691501
0.0704714
0.0718504
0.0733217
0.0747206
0.076088
0.0774754
0.0789557
0.0805114
0.08204
0.0836505
0.0852622
0.0868051
0.0884365
0.090024
0.0917529
0.0934728
0.0950928
0.0966409
0.097989
0.0167088
0.0150703
0.010143
0.00565379
0.00523517
0.00761901
0.0102456
0.0120702
0.0131172
0.0137137
0.014203
0.0147738
0.0154345
0.0160401
0.0165514
0.0172361
0.0180944
0.0187825
0.0192677
0.0197753
0.0203677
0.0210144
0.0216285
0.0221291
0.0226133
0.0231641
0.0237428
0.0243495
0.0250021
0.0256502
0.0262449
0.0268571
0.0274974
0.0281
0.0286584
0.0292247
0.0298365
0.0304698
0.0310971
0.0317412
0.0323912
0.0330305
0.0336919
0.0343937
0.0350961
0.0358059
0.0365976
0.0374028
0.0381122
0.0387268
0.0392572
0.03969
0.0402516
0.0412187
0.0423699
0.0433592
0.044209
0.0450959
0.045969
0.0467456
0.0474717
0.0483271
0.049324
0.0502762
0.0512036
0.0522292
0.0532379
0.0541951
0.0552476
0.0563004
0.0572852
0.0582876
0.0594426
0.060614
0.0617628
0.0629157
0.0641266
0.0653741
0.0666181
0.0678811
0.0691503
0.0704715
0.0718506
0.0733218
0.0747208
0.0760881
0.0774755
0.0789559
0.0805115
0.0820401
0.0836506
0.0852624
0.0868052
0.0884366
0.0900241
0.091753
0.0934729
0.0950929
0.0966409
0.097989
0.0164115
0.0149142
0.0103164
0.00593995
0.00539682
0.00767589
0.0102677
0.0120865
0.0131331
0.013729
0.0142165
0.0147842
0.0154422
0.0160461
0.0165559
0.0172398
0.0180982
0.0187862
0.0192709
0.0197782
0.0203703
0.0210167
0.0216306
0.0221309
0.0226148
0.0231655
0.0237441
0.0243506
0.0250032
0.0256512
0.0262458
0.0268579
0.0274983
0.0281008
0.0286591
0.0292254
0.0298371
0.0304706
0.0310978
0.0317419
0.0323919
0.0330312
0.0336925
0.0343943
0.0350967
0.0358063
0.036598
0.0374034
0.0381127
0.0387273
0.0392578
0.0396903
0.0402516
0.0412189
0.0423704
0.0433596
0.0442093
0.0450962
0.0459693
0.0467459
0.0474719
0.0483273
0.0493243
0.0502764
0.0512038
0.0522294
0.0532381
0.0541953
0.0552477
0.0563007
0.0572854
0.0582877
0.0594427
0.0606142
0.0617629
0.0629158
0.0641268
0.0653742
0.0666183
0.0678812
0.0691504
0.0704716
0.0718507
0.0733219
0.0747209
0.0760882
0.0774756
0.0789559
0.0805116
0.0820402
0.0836507
0.0852625
0.0868053
0.0884367
0.0900242
0.0917531
0.093473
0.0950929
0.0966411
0.0979891
0.0161077
0.0147737
0.0105541
0.0063127
0.00562507
0.00775745
0.0102981
0.0121076
0.0131532
0.0137491
0.014236
0.0148008
0.0154549
0.016056
0.0165637
0.0172455
0.0181024
0.01879
0.0192751
0.0197827
0.0203744
0.0210199
0.0216332
0.0221331
0.0226169
0.0231675
0.0237458
0.0243521
0.0250046
0.0256526
0.026247
0.0268589
0.0274993
0.0281017
0.0286598
0.029226
0.0298378
0.0304713
0.0310984
0.0317425
0.0323926
0.0330318
0.0336931
0.0343949
0.0350973
0.0358068
0.0365986
0.0374041
0.0381134
0.0387279
0.0392585
0.0396907
0.0402515
0.0412189
0.042371
0.0433602
0.0442096
0.0450965
0.0459698
0.0467463
0.0474721
0.0483274
0.0493246
0.0502767
0.051204
0.0522296
0.0532384
0.0541955
0.0552479
0.0563009
0.0572856
0.0582878
0.0594428
0.0606144
0.0617631
0.0629159
0.0641269
0.0653743
0.0666184
0.0678814
0.0691505
0.0704717
0.0718507
0.0733221
0.0747211
0.0760883
0.0774757
0.078956
0.0805117
0.0820403
0.0836508
0.0852626
0.0868054
0.0884368
0.0900242
0.0917531
0.0934731
0.0950931
0.0966413
0.0979893
0.0158292
0.0146613
0.0108086
0.00670841
0.00587963
0.00785234
0.0103323
0.012131
0.0131762
0.0137734
0.0142615
0.0148238
0.015473
0.0160712
0.0165769
0.017255
0.0181077
0.0187939
0.0192803
0.0197894
0.0203808
0.0210248
0.0216369
0.0221364
0.02262
0.0231702
0.0237481
0.0243542
0.0250066
0.0256543
0.0262486
0.0268604
0.0275006
0.0281027
0.0286606
0.0292267
0.0298386
0.030472
0.031099
0.031743
0.0323932
0.0330325
0.0336938
0.0343956
0.035098
0.0358074
0.0365993
0.0374049
0.0381142
0.0387287
0.0392592
0.039691
0.0402512
0.041219
0.0423717
0.0433608
0.04421
0.0450969
0.0459703
0.0467468
0.0474723
0.0483276
0.0493249
0.0502771
0.0512042
0.0522299
0.0532387
0.0541957
0.0552481
0.0563012
0.0572858
0.0582879
0.059443
0.0606146
0.0617632
0.0629161
0.064127
0.0653745
0.0666186
0.0678815
0.0691506
0.0704718
0.0718508
0.0733222
0.0747213
0.0760884
0.0774758
0.0789561
0.0805118
0.0820404
0.0836509
0.0852627
0.0868055
0.0884369
0.0900243
0.0917532
0.0934733
0.0950932
0.0966416
0.0979897
0.0155773
0.0145474
0.0110512
0.00711002
0.00615215
0.00795734
0.0103682
0.0121548
0.0132007
0.0138
0.0142902
0.01485
0.0154943
0.0160906
0.0165958
0.0172692
0.018115
0.0187983
0.0192868
0.0197985
0.0203895
0.0210313
0.0216418
0.0221411
0.0226248
0.0231743
0.0237513
0.024357
0.0250091
0.0256565
0.0262507
0.0268625
0.0275025
0.0281041
0.0286615
0.0292275
0.0298395
0.0304729
0.0310997
0.0317435
0.0323938
0.0330332
0.0336945
0.0343962
0.0350987
0.0358081
0.0366002
0.0374059
0.0381151
0.0387296
0.0392601
0.0396913
0.0402509
0.0412192
0.0423726
0.0433615
0.0442103
0.0450974
0.0459709
0.0467472
0.0474725
0.0483277
0.0493253
0.0502774
0.0512044
0.0522302
0.053239
0.0541959
0.0552484
0.0563015
0.0572861
0.058288
0.0594431
0.0606148
0.0617634
0.0629162
0.0641272
0.0653747
0.0666187
0.0678817
0.0691508
0.070472
0.0718509
0.0733224
0.0747215
0.0760886
0.0774759
0.0789562
0.0805119
0.0820405
0.083651
0.0852628
0.0868056
0.088437
0.0900244
0.0917533
0.0934735
0.0950935
0.0966421
0.0979901
0.0153388
0.0144177
0.0112805
0.00752127
0.00644596
0.00807441
0.0104063
0.012179
0.0132268
0.0138287
0.0143206
0.0148774
0.0155165
0.0161122
0.0166187
0.0172873
0.0181244
0.0188038
0.0192948
0.0198096
0.0204002
0.021039
0.0216474
0.0221473
0.0226317
0.0231802
0.0237557
0.0243606
0.025012
0.025659
0.0262532
0.0268652
0.0275049
0.0281059
0.0286628
0.0292286
0.0298407
0.0304742
0.0311005
0.0317439
0.0323943
0.033034
0.0336951
0.0343966
0.0350991
0.0358089
0.0366012
0.0374071
0.0381162
0.0387307
0.0392612
0.0396917
0.0402505
0.0412194
0.0423735
0.0433623
0.0442107
0.0450979
0.0459716
0.0467478
0.0474728
0.048328
0.0493258
0.0502779
0.0512047
0.0522306
0.0532395
0.0541962
0.0552487
0.0563019
0.0572863
0.0582881
0.0594433
0.0606151
0.0617636
0.0629164
0.0641274
0.0653749
0.0666189
0.0678818
0.0691509
0.0704721
0.071851
0.0733226
0.0747217
0.0760887
0.0774759
0.0789563
0.0805121
0.0820406
0.0836512
0.085263
0.0868057
0.0884371
0.0900245
0.0917534
0.0934737
0.0950938
0.0966427
0.0979907
0.0151109
0.0142795
0.0115031
0.00794566
0.00676335
0.00820562
0.0104478
0.0122039
0.0132547
0.0138596
0.0143527
0.0149057
0.0155392
0.0161347
0.0166437
0.0173083
0.0181359
0.0188105
0.0193039
0.0198222
0.0204123
0.0210471
0.0216531
0.0221541
0.0226403
0.023188
0.0237616
0.0243651
0.0250153
0.0256616
0.026256
0.0268682
0.0275076
0.028108
0.0286644
0.0292301
0.0298424
0.0304759
0.0311016
0.0317445
0.0323949
0.033035
0.033696
0.0343968
0.0350993
0.0358094
0.0366023
0.0374082
0.0381174
0.0387322
0.0392627
0.0396924
0.0402504
0.0412198
0.0423745
0.0433629
0.044211
0.0450985
0.0459723
0.0467484
0.0474732
0.0483283
0.0493263
0.0502784
0.0512051
0.0522311
0.0532399
0.0541965
0.0552491
0.0563023
0.0572866
0.0582883
0.0594436
0.0606154
0.0617638
0.0629166
0.0641276
0.0653751
0.0666191
0.067882
0.0691511
0.0704722
0.0718511
0.0733228
0.0747219
0.0760888
0.077476
0.0789564
0.0805122
0.0820407
0.0836513
0.0852632
0.0868058
0.0884372
0.0900246
0.0917535
0.093474
0.0950942
0.0966434
0.0979914
0.0149013
0.0141413
0.0117182
0.00837944
0.0071031
0.008352
0.0104932
0.0122294
0.0132843
0.0138928
0.0143869
0.0149357
0.015563
0.0161579
0.0166702
0.0173314
0.0181493
0.0188185
0.0193141
0.0198361
0.0204255
0.0210557
0.0216585
0.022161
0.0226498
0.0231973
0.023769
0.0243706
0.025019
0.0256643
0.0262589
0.0268713
0.0275103
0.0281102
0.0286662
0.0292321
0.0298447
0.030478
0.0311032
0.0317454
0.0323959
0.0330365
0.0336972
0.0343971
0.0350992
0.0358097
0.036603
0.0374091
0.0381184
0.0387337
0.0392646
0.0396935
0.0402507
0.0412206
0.0423757
0.0433634
0.0442112
0.0450989
0.045973
0.0467491
0.0474737
0.0483287
0.0493268
0.0502789
0.0512056
0.0522317
0.0532405
0.054197
0.0552496
0.0563028
0.0572871
0.0582887
0.059444
0.0606158
0.0617641
0.0629169
0.0641279
0.0653753
0.0666193
0.0678821
0.0691513
0.0704724
0.0718513
0.073323
0.0747222
0.076089
0.0774761
0.0789565
0.0805124
0.0820409
0.0836515
0.0852634
0.086806
0.0884374
0.0900247
0.0917536
0.0934744
0.0950947
0.0966443
0.0979923
0.0147171
0.0140067
0.0119195
0.00881537
0.0074616
0.00851348
0.0105426
0.0122547
0.0133148
0.013928
0.0144233
0.0149679
0.0155885
0.0161823
0.0166979
0.0173563
0.0181645
0.0188276
0.0193249
0.0198507
0.0204395
0.021065
0.021664
0.0221677
0.0226595
0.0232074
0.0237773
0.0243768
0.0250231
0.0256672
0.0262619
0.0268744
0.0275129
0.028112
0.0286679
0.0292343
0.0298474
0.0304806
0.0311051
0.0317465
0.0323972
0.0330385
0.033699
0.0343978
0.0350991
0.0358095
0.0366031
0.0374093
0.0381188
0.0387349
0.0392663
0.0396949
0.0402517
0.0412223
0.0423774
0.0433639
0.044211
0.0450991
0.0459736
0.0467498
0.0474743
0.0483293
0.0493275
0.0502795
0.0512061
0.0522323
0.0532411
0.0541976
0.0552502
0.0563034
0.0572877
0.0582892
0.0594445
0.0606162
0.0617644
0.0629172
0.0641282
0.0653756
0.0666195
0.0678823
0.0691514
0.0704726
0.0718514
0.0733232
0.0747224
0.0760892
0.0774762
0.0789566
0.0805125
0.0820411
0.0836516
0.0852636
0.0868061
0.0884375
0.0900249
0.0917537
0.0934748
0.0950955
0.0966455
0.0979934
0.014562
0.0138777
0.0121013
0.00924512
0.0078334
0.00868887
0.0105954
0.0122781
0.0133447
0.0139647
0.0144621
0.0150028
0.0156164
0.0162082
0.0167269
0.0173828
0.018181
0.0188374
0.0193363
0.0198658
0.0204542
0.0210748
0.02167
0.0221746
0.0226692
0.0232176
0.0237861
0.0243836
0.0250276
0.0256703
0.026265
0.0268776
0.0275153
0.0281134
0.0286694
0.0292367
0.0298505
0.0304835
0.0311072
0.0317479
0.0323988
0.0330408
0.0337013
0.0343991
0.0350993
0.0358091
0.0366027
0.0374088
0.0381185
0.0387354
0.0392675
0.0396961
0.040253
0.041225
0.0423801
0.0433646
0.0442106
0.0450989
0.0459737
0.0467502
0.0474749
0.0483301
0.0493282
0.0502801
0.0512067
0.0522329
0.0532416
0.0541982
0.0552509
0.0563041
0.0572884
0.0582899
0.0594452
0.0606168
0.0617649
0.0629177
0.0641287
0.0653761
0.0666198
0.0678825
0.0691516
0.0704728
0.0718516
0.0733235
0.0747227
0.0760894
0.0774763
0.0789567
0.0805127
0.0820412
0.0836518
0.0852637
0.0868063
0.0884376
0.0900251
0.0917538
0.0934753
0.0950964
0.0966468
0.0979946
0.0144372
0.0137571
0.0122598
0.00966094
0.00821242
0.00887646
0.010651
0.0122984
0.0133727
0.0140027
0.0145035
0.0150406
0.015647
0.0162357
0.0167567
0.01741
0.0181982
0.0188478
0.019348
0.0198813
0.0204693
0.0210852
0.0216765
0.0221819
0.0226791
0.023228
0.0237952
0.0243909
0.0250325
0.0256735
0.0262681
0.0268807
0.0275175
0.0281146
0.0286705
0.029239
0.029854
0.0304868
0.0311094
0.0317495
0.0324006
0.0330434
0.033704
0.0344008
0.0350999
0.0358086
0.0366016
0.0374075
0.0381174
0.0387351
0.0392677
0.0396963
0.0402541
0.0412285
0.042384
0.0433662
0.0442102
0.0450981
0.0459732
0.0467502
0.0474754
0.048331
0.0493291
0.0502808
0.0512075
0.0522335
0.0532422
0.0541989
0.0552516
0.0563047
0.0572892
0.0582909
0.0594461
0.0606175
0.0617654
0.0629183
0.0641294
0.0653766
0.0666203
0.0678828
0.0691519
0.070473
0.0718517
0.0733238
0.0747231
0.0760897
0.0774765
0.0789567
0.0805128
0.0820414
0.083652
0.0852639
0.0868065
0.0884378
0.0900254
0.0917539
0.0934759
0.0950975
0.0966483
0.0979961
0.0143424
0.0136483
0.0123945
0.0100568
0.00859302
0.00907484
0.0107099
0.0123155
0.0133982
0.0140416
0.0145475
0.0150815
0.0156803
0.016265
0.0167873
0.0174378
0.018216
0.0188587
0.01936
0.019897
0.0204846
0.0210958
0.0216835
0.0221899
0.0226895
0.0232386
0.0238047
0.0243988
0.0250378
0.0256769
0.0262713
0.0268837
0.0275196
0.0281155
0.0286714
0.0292411
0.0298576
0.0304904
0.0311118
0.0317511
0.0324025
0.0330462
0.0337068
0.0344028
0.0351008
0.035808
0.0365998
0.0374053
0.0381155
0.0387339
0.0392669
0.0396951
0.0402539
0.0412319
0.0423889
0.0433686
0.0442099
0.0450969
0.0459719
0.0467495
0.0474756
0.0483319
0.0493302
0.0502816
0.0512083
0.0522342
0.0532426
0.0541996
0.0552522
0.0563052
0.05729
0.058292
0.0594473
0.0606184
0.0617662
0.0629192
0.0641301
0.0653773
0.0666209
0.0678833
0.0691522
0.0704732
0.0718517
0.073324
0.0747235
0.0760901
0.0774768
0.0789568
0.0805129
0.0820415
0.0836522
0.0852641
0.0868067
0.0884379
0.0900257
0.091754
0.0934765
0.0950989
0.0966501
0.0979977
0.0142761
0.0135559
0.012507
0.0104283
0.00897094
0.00928385
0.0107744
0.0123311
0.0134214
0.0140814
0.0145943
0.0151252
0.015716
0.0162959
0.0168188
0.0174663
0.0182345
0.0188701
0.0193725
0.019913
0.0205
0.0211066
0.021691
0.0221986
0.0227005
0.0232497
0.0238149
0.0244074
0.0250436
0.0256807
0.0262745
0.0268867
0.0275216
0.0281165
0.0286724