/*--------------------------------*- C++ -*----------------------------------*\
| =========                 |                                                 |
| \\      /  F ield         | OpenFOAM: The Open Source CFD Toolbox           |
|  \\    /   O peration     | Version:  v1912                                 |
|   \\  /    A nd           | Website:  www.openfoam.com                      |
|    \\/     M anipulation  |                                                 |
\*---------------------------------------------------------------------------*/
FoamFile
{
    version     2.0;
    format      ascii;
    class       volScalarField;
    location    "3";
    object      p;
}
// * * * * * * * * * * * * * * * * * * * * * * * * * * * * * * * * * * * * * //

dimensions      [0 2 -2 0 0 0 0];


internalField   nonuniform List<scalar> 
9600
(
-6.59904e-11
0.00153782
0.00333033
0.00639986
-0.00438925
-0.00137554
0.0042856
0.00339761
0.00394316
0.000982138
0.00107325
0.00115734
0.00101883
0.00237787
0.000404407
-0.00107054
-0.00246381
-0.00200573
-0.00266662
-0.00279386
2.57869e-07
0.00155869
0.0033216
0.00633937
-0.00432172
-0.0013732
0.00427108
0.00342548
0.00391463
0.00107026
0.00108667
0.00115062
0.00102771
0.00228266
0.000420699
-0.00110518
-0.00243414
-0.00200091
-0.00265596
-0.00285732
2.18768e-06
0.00157684
0.00330401
0.00627101
-0.0042512
-0.00136252
0.00426941
0.00345408
0.00388311
0.00113136
0.00109336
0.0011365
0.00102246
0.00218134
0.000448504
-0.00113831
-0.00237512
-0.00201095
-0.0026537
-0.00291632
5.56819e-06
0.00159207
0.00328422
0.00619093
-0.00419451
-0.00131537
0.00427745
0.00346855
0.00384
0.00119324
0.00110199
0.00108738
0.00100823
0.00207642
0.000468062
-0.00115101
-0.00231978
-0.00203649
-0.0026582
-0.0029817
1.10504e-05
0.00160732
0.00326296
0.00609619
-0.00414012
-0.00123221
0.00428662
0.00346648
0.00378468
0.00125404
0.00111368
0.000951309
0.000999477
0.00196408
0.000483698
-0.00115062
-0.00227498
-0.0020619
-0.00267607
-0.00304871
1.92551e-05
0.0016184
0.00324076
0.00598949
-0.00407703
-0.00112409
0.00428742
0.00344843
0.00371681
0.00131372
0.00112962
0.000871734
0.00100234
0.00184561
0.000500974
-0.00114572
-0.00223258
-0.00208363
-0.00271015
-0.00310038
3.02126e-05
0.00162796
0.00321933
0.0058752
-0.00399928
-0.00100405
0.00427053
0.00341736
0.00363819
0.00137181
0.00114921
0.00080027
0.0010184
0.00172376
0.000518771
-0.00113704
-0.00219143
-0.00210353
-0.00275122
-0.00313701
4.35236e-05
0.00163715
0.00319992
0.00575608
-0.00390447
-0.000883318
0.00423348
0.00337733
0.00352533
0.00142771
0.00117092
0.000739793
0.00104712
0.00159901
0.000536161
-0.00112496
-0.00215646
-0.00211714
-0.00279529
-0.0031713
5.8587e-05
0.00164702
0.00318265
0.0056337
-0.00379358
-0.0007672
0.00417928
0.00333236
0.00343533
0.00148164
0.00119404
0.000691376
0.00108422
0.00147185
0.000553762
-0.00111134
-0.00212933
-0.00212176
-0.0028471
-0.00320869
7.48345e-05
0.00165821
0.00316686
0.00550856
-0.00367018
-0.000656525
0.00411377
0.00328478
0.0033431
0.00153432
0.00121863
0.000651957
0.0011235
0.00134425
0.000570987
-0.00109637
-0.00211049
-0.00211909
-0.00290731
-0.00324675
9.18753e-05
0.0016708
0.00315146
0.00538066
-0.00353908
-0.000550524
0.00404281
0.00323548
0.0032489
0.0015866
0.00124473
0.000617487
0.00116024
0.00121885
0.000586523
-0.00107895
-0.00210131
-0.00210982
-0.00297169
-0.00328655
0.00010951
0.00168451
0.00313543
0.00524993
-0.00340302
-0.000448419
0.00397034
0.00318466
0.00315312
0.00163887
0.00127241
0.000584408
0.00119145
0.00109856
0.00059933
-0.00105808
-0.00210257
-0.00209302
-0.00303665
-0.00333291
0.000127673
0.00169891
0.00311807
0.00511635
-0.00326363
-0.000349738
0.00389829
0.0031324
0.00305634
0.00169097
0.00130177
0.000550176
0.00121566
0.000986083
0.000608237
-0.00103277
-0.00211415
-0.00206895
-0.00309903
-0.00338921
0.000146372
0.00171358
0.00309902
0.00497997
-0.00312161
-0.000254083
0.00382773
0.00307876
0.00297185
0.00174244
0.00133274
0.000513225
0.00123273
0.000883334
0.000611422
-0.00100181
-0.00213559
-0.00203985
-0.00315465
-0.00345692
0.000165655
0.00172821
0.00307818
0.00484091
-0.00297687
-0.000160968
0.00375873
0.00302379
0.00287227
0.00179272
0.00136543
0.000472782
0.00124319
0.000791252
0.000606627
-0.00096407
-0.00216637
-0.0020094
-0.00319848
-0.00353688
0.000185596
0.00174255
0.0030556
0.00469935
-0.00282896
-6.9875e-05
0.00369118
0.00296774
0.0027715
0.00184123
0.0014001
0.000428828
0.00124792
0.000709936
0.000591857
-0.000918775
-0.00220552
-0.00198236
-0.00322568
-0.00362883
0.000206283
0.00175645
0.00303151
0.00455558
-0.00267749
1.95586e-05
0.00362503
0.00291099
0.00266961
0.00188756
0.00143701
0.000382045
0.00124777
0.000639148
0.000565985
-0.000865836
-0.00225111
-0.00196399
-0.00323198
-0.00373049
0.000227806
0.00176979
0.00300618
0.00440997
-0.00252213
0.00010742
0.00356026
0.00285392
0.00256655
0.00193133
0.00147639
0.000333784
0.00124311
0.000578991
0.000528835
-0.000806223
-0.00230021
-0.00195888
-0.00321428
-0.00383723
0.00025025
0.00178252
0.00297985
0.00426292
-0.00236268
0.000193527
0.00349682
0.00279695
0.00246225
0.00197217
0.00151843
0.000285467
0.00123376
0.000529955
0.000480921
-0.000741989
-0.00234888
-0.00197033
-0.00317185
-0.00394249
0.000273673
0.00179459
0.00295277
0.00411482
-0.00219924
0.000277533
0.0034346
0.0027406
0.00235652
0.00200953
0.00156338
0.000238317
0.00121903
0.000492449
0.000423253
-0.000675795
-0.00239301
-0.00200029
-0.00310622
-0.00403838
0.000298108
0.00180601
0.00292511
0.003966
-0.00203218
0.000358991
0.00337342
0.00268541
0.00224919
0.00204268
0.00161116
0.000193202
0.0011981
0.000466794
0.000357256
-0.000610613
-0.00242893
-0.00204977
-0.00302031
-0.00411603
0.000323567
0.00181677
0.00289696
0.00381676
-0.00186214
0.000437453
0.00331306
0.00263196
0.00214031
0.00207075
0.00166169
0.000150453
0.00116989
0.000453265
0.000284233
-0.000549379
-0.0024529
-0.00211898
-0.00291935
-0.0041661
0.000350042
0.00182683
0.00286836
0.00366743
-0.00168988
0.00051264
0.0032531
0.00258086
0.00203008
0.00209275
0.001715
0.000110301
0.00113329
0.000451695
0.000205552
-0.000494897
-0.00246098
-0.00220702
-0.00281119
-0.00417947
0.000377516
0.00183618
0.00283926
0.00351835
-0.00151619
0.000584528
0.00319311
0.00253257
0.00191913
0.00210765
0.00177091
7.32289e-05
0.00108725
0.000461603
0.000123137
-0.000450204
-0.0024498
-0.00231152
-0.0027048
-0.00414763
0.000405961
0.0018448
0.00280963
0.00336992
-0.00134195
0.000653267
0.00313263
0.00248739
0.00180835
0.00211437
0.00182943
4.00622e-05
0.0010308
0.00048277
3.90214e-05
-0.000418641
-0.00241641
-0.002428
-0.00261034
-0.00406434
0.000435339
0.00185267
0.0027794
0.00322265
-0.00116803
0.000719214
0.00307117
0.00244555
0.00169875
0.00211187
0.00189046
8.86856e-06
0.00096317
0.000514805
-4.42633e-05
-0.000403854
-0.0023586
-0.00254928
-0.00253961
-0.0039294
0.000465604
0.00185978
0.00274854
0.00307706
-0.000995366
0.000782945
0.00300816
0.00240703
0.00159147
0.00209928
0.00195329
-1.80794e-05
0.000883827
0.00055655
-0.00012321
-0.000409198
-0.00227672
-0.0026657
-0.00250379
-0.00375201
0.000496693
0.00186616
0.00271701
0.00293371
-0.000824888
0.000845071
0.00294318
0.00237157
0.00148784
0.00207577
0.00201795
-3.94098e-05
0.000792093
0.00060648
-0.000193587
-0.000437502
-0.00217431
-0.00276536
-0.00250961
-0.00354861
0.000528514
0.00187188
0.00268474
0.00279319
-0.000657526
0.000906236
0.00287589
0.00233865
0.00138934
0.00204068
0.00208362
-5.33986e-05
0.000686954
0.000662518
-0.000250309
-0.000491088
-0.00205806
-0.0028351
-0.00255596
-0.00334167
0.000560949
0.00187701
0.00265173
0.00265612
-0.000494262
0.000966926
0.0028062
0.00230763
0.00129749
0.00199383
0.00214894
-5.78341e-05
0.000567808
0.000721235
-0.00028797
-0.000570285
-0.00193688
-0.00286254
-0.00263263
-0.00315907
0.000593859
0.00188166
0.00261797
0.00252302
-0.000335934
0.00102753
0.0027343
0.00227768
0.0012135
0.00193524
0.0022121
-5.02096e-05
0.000434688
0.000778211
-0.000301208
-0.000672412
-0.00182187
-0.00283933
-0.00272356
-0.0030268
0.000627112
0.00188594
0.00258345
0.0023944
-0.000183301
0.0010883
0.00266079
0.00224787
0.00113792
0.00186531
0.00227128
-2.84195e-05
0.000288248
0.000828134
-0.000284721
-0.000791815
-0.00172591
-0.00276343
-0.00280818
-0.0029585
0.000660551
0.00189
0.00254822
0.0022707
-3.70819e-05
0.00114898
0.00258667
0.00221777
0.00107272
0.0017745
0.00232414
9.48389e-06
0.00013063
0.000864225
-0.00023453
-0.000919309
-0.00166237
-0.0026411
-0.00286158
-0.00294986
0.000693986
0.00189398
0.00251243
0.00215221
0.000102201
0.00120924
0.00251298
0.00218702
0.00101471
0.00168454
0.00236821
6.50583e-05
-3.41675e-05
0.000879089
-0.000150145
-0.00104272
-0.00164217
-0.00248758
-0.0028593
-0.00297856
0.000727224
0.00189794
0.00247635
0.002039
0.000234281
0.0012687
0.00244042
0.00215531
0.000965428
0.00158669
0.00240114
0.000138601
-0.00020098
0.000866109
-3.50261e-05
-0.00114873
-0.00166841
-0.00232255
-0.00278871
-0.00301473
0.000760021
0.00190201
0.00244035
0.00193109
0.000359076
0.0013267
0.00236938
0.00212298
0.000924643
0.00148258
0.00242047
0.000229575
-0.000363576
0.000819701
0.000103789
-0.00122393
-0.00173649
-0.0021675
-0.00265435
-0.00302237
0.000792175
0.0019062
0.00240493
0.00182831
0.00047654
0.00138308
0.00229991
0.00209012
0.00089257
0.00137402
0.00242335
0.000336573
-0.000515059
0.0007363
0.000256742
-0.00125514
-0.00183825
-0.0020427
-0.00246995
-0.0029726
0.00082356
0.00191042
0.00237063
0.00173034
0.000586606
0.00143818
0.00223177
0.00205666
0.000869441
0.00126259
0.00240765
0.000456904
-0.000648754
0.000614965
0.000411324
-0.00122951
-0.00196076
-0.00196511
-0.00225102
-0.00285449
0.000853988
0.00191466
0.00233816
0.00163673
0.000688983
0.00149232
0.00216426
0.00202292
0.000856158
0.00114941
0.00237111
0.000587293
-0.000757283
0.000458362
0.000551815
-0.00114046
-0.00208561
-0.00194608
-0.00201723
-0.00266621
0.000883375
0.00191867
0.00230826
0.00154723
0.000782946
0.00154655
0.0020968
0.00198787
0.000853978
0.00103753
0.00231096
0.000722072
-0.000833361
0.000274187
0.000663647
-0.000993675
-0.00219036
-0.00198822
-0.00179361
-0.00240765
0.000911739
0.00192205
0.00228167
0.00146203
0.000867265
0.00160195
0.00202988
0.00195035
0.000863821
0.000929068
0.00222634
0.000855576
-0.00087154
7.28477e-05
0.000733075
-0.000804419
-0.00225052
-0.00208056
-0.00161008
-0.00208851
0.000939109
0.00192449
0.00225903
0.00138137
0.000940651
0.00165961
0.00196459
0.00190807
0.000886115
0.000826589
0.00211594
0.000981872
-0.000867487
-0.000133486
0.000750699
-0.000594545
-0.00224845
-0.00220156
-0.00149246
-0.00173406
0.000965623
0.00192547
0.0022407
0.00130594
0.0010013
0.00172061
0.00190319
0.00185762
0.000919133
0.000736385
0.00198043
0.00109327
-0.000819185
-0.000330472
0.000716061
-0.000385236
-0.00218081
-0.00232786
-0.00145794
-0.00137922
0.000991435
0.00192449
0.00222709
0.00123678
0.00104699
0.00178494
0.00184886
0.00179628
0.00096054
0.000663164
0.00182469
0.00118209
-0.00072962
-0.000503175
0.000633418
-0.000188518
-0.0020433
-0.00243002
-0.00149852
-0.00110297
0.00101683
0.00192105
0.00221809
0.00117575
0.0010759
0.00185145
0.00180629
0.00172231
0.00100579
0.000613814
0.00165486
0.00124013
-0.000606686
-0.000636984
0.000512427
-1.13693e-05
-0.00183347
-0.00247506
-0.0015993
-0.000949412
0.00104217
0.00191442
0.00221359
0.00112447
0.00108683
0.00191749
0.00177986
0.00163796
0.00104735
0.000591851
0.0014792
0.00126058
-0.000460397
-0.000721545
0.000365153
0.000129408
-0.00158149
-0.00247012
-0.00172769
-0.000909314
0.00106779
0.00190437
0.00221298
0.00108489
0.00107971
0.00197837
0.00177431
0.00154647
0.00107659
0.000597694
0.00130981
0.00124186
-0.000306488
-0.000754906
0.000211193
0.000212607
-0.00132435
-0.00240837
-0.00186488
-0.000945919
0.00109404
0.00189067
0.00221524
0.00105942
0.00105546
0.00202801
0.00179221
0.00145405
0.00108519
0.000626972
0.0011616
0.00118976
-0.00016486
-0.000744172
6.85069e-05
0.000236264
-0.0010836
-0.00227657
-0.00197954
-0.00104442
0.00112139
0.00187317
0.00221933
0.00104947
0.00101575
0.00206028
0.00183252
0.00137024
0.00106889
0.000672797
0.00104639
0.00111238
-4.94917e-05
-0.00070226
-5.30568e-05
0.000216526
-0.000874359
-0.00209016
-0.00204006
-0.00117387
0.00115035
0.00185193
0.00222335
0.00105667
0.000964271
0.00206833
0.00189136
0.00130555
0.00103002
0.000723114
0.00096659
0.00102165
3.57112e-05
-0.00064157
-0.00015004
0.000169921
-0.000704444
-0.00187417
-0.0020204
-0.00129397
0.00118143
0.00182715
0.00222537
0.00108174
0.000905322
0.00204717
0.00196225
0.00126926
0.000973434
0.000762852
0.000918586
0.000935121
9.49433e-05
-0.000574786
-0.000226727
0.0001113
-0.000563207
-0.00164861
-0.00193307
-0.00137492
0.00121517
0.00179942
0.0022232
0.00112416
0.000844682
0.00199481
0.00203546
0.00126621
0.000907393
0.000782167
0.000895598
0.000864999
0.000133597
-0.000511867
-0.000283931
5.47262e-05
-0.000441453
-0.00143185
-0.00181332
-0.00139603
0.00125184
0.00176956
0.00221471
0.00118297
0.000788955
0.00191123
0.00209941
0.00129706
0.000844281
0.000777569
0.000886724
0.000816443
0.000161891
-0.000453557
-0.000322297
5.49687e-07
-0.000341127
-0.00122009
-0.00167538
-0.00136418
0.00129135
0.00173905
0.00219793
0.00125553
0.000745181
0.00180011
0.00214267
0.00135674
0.000795679
0.000752726
0.000882483
0.000789241
0.00018945
-0.000396888
-0.000345356
-5.19717e-05
-0.000262022
-0.00100547
-0.00151848
-0.00130941
0.00133345
0.00170962
0.00217149
0.0013371
0.000719628
0.0016677
0.00215538
0.00143573
0.000771735
0.000714823
0.000874106
0.000779827
0.000222562
-0.000339003
-0.000352283
-9.64395e-05
-0.000207371
-0.000801802
-0.00133688
-0.00124291
0.00137755
0.00168325
0.00213475
0.00142172
0.000717387
0.00152376
0.00213021
0.00152112
0.000777882
0.000672585
0.000856114
0.000783709
0.000267027
-0.000277047
-0.000345792
-0.000128555
-0.000173827
-0.000626197
-0.00113013
-0.0011501
0.00142277
0.00166172
0.00208844
0.00150239
0.000741322
0.00138146
0.00206446
0.00159808
0.000813532
0.000636137
0.000828484
0.000794253
0.000324268
-0.000206719
-0.000329917
-0.000149341
-0.00014698
-0.000483897
-0.000917211
-0.00102117
0.00146806
0.00164601
0.00203414
0.00157224
0.000791707
0.00125371
0.00196032
0.00165407
0.000874054
0.000613856
0.00079362
0.000804411
0.000390663
-0.000123161
-0.000301025
-0.000164032
-0.000121141
-0.000366679
-0.000719626
-0.000858792
0.00151236
0.00163632
0.00197499
0.00162666
0.000864642
0.00114838
0.00182756
0.00168125
0.000951744
0.000611837
0.000754995
0.000809315
0.000461384
-2.65641e-05
-0.000251748
-0.000172309
-0.000102458
-0.00026327
-0.000541589
-0.000677738
0.0015546
0.00163255
0.0019147
0.00166365
0.000950053
0.00107032
0.00168328
0.00167603
0.0010358
0.000633625
0.000718437
0.000804971
0.00053171
7.82385e-05
-0.000180218
-0.000163124
-9.3517e-05
-0.00017431
-0.000377995
-0.000495722
0.00159385
0.00163415
0.00185657
0.00168333
0.00103741
0.00102105
0.00154291
0.00164072
0.00111428
0.000678105
0.000691538
0.00078999
0.000596223
0.000188545
-9.30891e-05
-0.000127764
-8.18532e-05
-0.000107303
-0.000229502
-0.0003191
0.00162931
0.00164578
0.00180318
0.00168716
0.00111932
0.000998527
0.00141637
0.0015823
0.00117812
0.000740103
0.000680625
0.000768279
0.000648077
0.000302747
6.18292e-06
-7.09733e-05
-5.2665e-05
-5.91771e-05
-0.000105143
-0.00014807
0.00166017
0.00165553
0.00175628
0.00167781
0.00119115
0.000998332
0.00130965
0.00150949
0.00122199
0.00081193
0.000689612
0.000747774
0.000682641
0.000413533
0.00012049
-5.49204e-08
-3.50717e-06
-1.28601e-05
-9.77358e-06
1.04012e-05
0.00168616
0.00166711
0.0017169
0.00165896
0.00125006
0.00101437
0.00122506
0.0014312
0.00124496
0.00088534
0.000718547
0.000736214
0.000703088
0.000508822
0.000246602
8.73809e-05
5.96651e-05
4.62682e-05
6.44634e-05
0.000143452
0.00170716
0.00167932
0.00168519
0.00163408
0.00129508
0.00104046
0.00116242
0.00135453
0.00124978
0.00095317
0.000763177
0.00073908
0.000719475
0.000583753
0.000370221
0.000193829
0.000134898
0.000120557
0.000135351
0.000246666
0.0017234
0.00169092
0.00166074
0.00160624
0.00132644
0.00107109
0.00112016
0.00128469
0.00124068
0.00101079
0.000817236
0.000757376
0.000738855
0.000645536
0.000479109
0.000310606
0.000225548
0.00020641
0.00021651
0.000331473
0.00173509
0.00170094
0.00164268
0.00157786
0.0013452
0.00110156
0.00109525
0.00122551
0.00122278
0.00105678
0.00087514
0.000789391
0.000763403
0.000700848
0.000574674
0.000424999
0.000328575
0.000302385
0.000312396
0.000416692
0.00174269
0.00170859
0.00162973
0.00155069
0.00135319
0.00112856
0.00108309
0.00117792
0.00120092
0.00109169
0.000932995
0.00083418
0.000795609
0.000750661
0.000661838
0.000532019
0.000433949
0.000404257
0.000418811
0.000513901
0.00174653
0.00171326
0.00162037
0.00152581
0.00135221
0.00115023
0.00107973
0.00114119
0.0011782
0.00111625
0.000986415
0.000888932
0.000841628
0.000798785
0.000740514
0.000636518
0.000537627
0.000505462
0.000525945
0.00062052
0.0017473
0.00171456
0.00161301
0.00150382
0.00134417
0.00116412
0.0010816
0.00111535
0.00115684
0.00113184
0.00103308
0.000945964
0.000902108
0.000855508
0.000811377
0.000740165
0.000645882
0.000606689
0.000630292
0.000728619
0.00174507
0.00171235
0.00160588
0.00148436
0.00133154
0.00116968
0.00108262
0.00109802
0.00113951
0.00113969
0.0010737
0.00100146
0.000968071
0.000928628
0.000883368
0.000839262
0.000761695
0.000713519
0.000733838
0.000833777
0.00174071
0.00170674
0.00159769
0.00146617
0.00131482
0.00116772
0.00108011
0.00108378
0.00112559
0.00114188
0.0011071
0.00105567
0.0010328
0.00101361
0.000969804
0.000937461
0.00088465
0.00083344
0.000844489
0.000938611
0.00173427
0.00169811
0.00158673
0.00144872
0.00129494
0.0011567
0.00107231
0.00107003
0.00111258
0.00114055
0.00113192
0.00110681
0.00109536
0.00110006
0.00107275
0.00104558
0.00101602
0.000974532
0.000978583
0.00106127
0.00172573
0.00168693
0.00157267
0.00142949
0.00127232
0.00113637
0.00105407
0.00105431
0.00109877
0.00113498
0.00115213
0.00115442
0.0011572
0.00118314
0.00118296
0.00116746
0.00115621
0.00113571
0.00114573
0.00122463
0.00171452
0.00167365
0.00155545
0.00140694
0.00124537
0.00110748
0.00102104
0.0010261
0.00108061
0.0011246
0.00116905
0.00120512
0.00122648
0.00126934
0.0012918
0.00128773
0.00128014
0.00127609
0.00129986
0.00139152
0.00170417
0.00165924
0.00153349
0.00138014
0.00121315
0.00106741
0.000973603
0.000972723
0.00103232
0.00110114
0.00119144
0.00129369
0.00138273
0.00147759
0.00153462
0.00153983
0.00151026
0.00144896
0.00138616
0.00137166
0.00169873
0.00164712
0.00151225
0.00134907
0.00117542
0.00102133
0.000915953
0.00089227
0.000900215
0.000916252
0.000993917
0.0011456
0.00134668
0.00157722
0.0017605
0.00191152
0.00208187
0.00228346
0.00249971
0.00268652
0.0016681
0.00162009
0.00148413
0.00131312
0.00112957
0.000971212
0.000878967
0.000900421
0.000989125
0.00107797
0.00120276
0.00136809
0.00150867
0.00166099
0.00178847
0.00182571
0.00179382
0.00171429
0.001624
0.00156226
0.00168253
0.00161961
0.00146471
0.00127144
0.00105971
0.000866964
0.000747892
0.000764861
0.000894801
0.00104164
0.00117617
0.0013604
0.00154243
0.0017182
0.00194037
0.00216452
0.00238635
0.00260567
0.0028077
0.00295394
0.00165094
0.00158962
0.00143592
0.00124408
0.00104619
0.000869394
0.000750879
0.000721174
0.000743761
0.000808289
0.000927537
0.00116563
0.00149741
0.00180393
0.00209489
0.00234221
0.00251915
0.0026325
0.00269015
0.00268957
-0.00357049
-0.00529089
-0.00965447
-0.0130791
-0.0131038
-0.011259
-0.00909245
-0.00704469
-0.00541161
-0.00435795
-0.00376541
-0.0034488
-0.003205
-0.002798
-0.00206793
-0.0012484
-0.000710498
-0.000338206
0.000125129
0.000656551
0.00119571
0.00175099
0.0023394
0.00292455
0.00345391
0.00398318
0.00458861
0.00519156
0.00571477
0.00622495
0.00682991
0.0074574
0.00800535
0.0085966
0.00926104
0.00970651
0.0096113
0.00929996
0.00943919
0.0100578
0.0107594
0.0114376
0.0122473
0.0131416
0.0138131
0.0143074
0.0150049
0.0158126
0.0161563
0.0161644
0.0165857
0.0174248
0.0181766
0.0187994
0.0194605
0.0201878
0.0209039
0.0215629
0.0222052
0.022865
0.0235576
0.0242535
0.02495
0.0256857
0.0264532
0.027285
0.0281646
0.0290418
0.0298712
0.0307034
0.0315689
0.0324653
0.0333745
0.0343036
0.0352523
0.0362253
0.0372619
0.0382882
0.0393081
0.0402906
0.0413478
0.0424263
0.0435663
0.0447266
0.0458675
0.0470046
0.0481686
0.0493789
0.0505739
0.05187
0.0530966
0.0544053
0.0557592
0.0570488
0.0584373
0.0598376
0.0612512
0.0627346
0.0642309
0.065695
-0.00362507
-0.0053232
-0.00954055
-0.012939
-0.0130275
-0.0112233
-0.00906974
-0.00702673
-0.00539604
-0.00434414
-0.00375332
-0.00343899
-0.00319786
-0.0027931
-0.00206416
-0.00124456
-0.000706864
-0.000335316
0.00012761
0.000658862
0.00119783
0.00175293
0.00234122
0.00292636
0.00345564
0.00398475
0.0045902
0.00519325
0.00571639
0.00622639
0.00683129
0.00745887
0.00800666
0.00859768
0.00926231
0.00970829
0.00961307
0.00930096
0.00943979
0.0100586
0.0107604
0.0114383
0.012248
0.0131424
0.013814
0.014308
0.0150054
0.0158135
0.0161573
0.0161649
0.0165859
0.0174252
0.0181772
0.0187999
0.0194609
0.0201882
0.0209043
0.0215633
0.0222056
0.0228653
0.0235579
0.0242538
0.0249502
0.025686
0.0264534
0.0272852
0.0281648
0.029042
0.0298715
0.0307036
0.0315691
0.0324655
0.0333747
0.0343038
0.0352525
0.0362255
0.037262
0.0382884
0.0393083
0.0402907
0.0413479
0.0424265
0.0435664
0.0447268
0.0458676
0.0470047
0.0481687
0.049379
0.050574
0.0518701
0.0530967
0.0544054
0.0557593
0.0570489
0.0584374
0.0598377
0.0612512
0.0627347
0.064231
0.0656953
-0.00380331
-0.00541704
-0.009341
-0.0126691
-0.0128878
-0.0111716
-0.0090469
-0.00701218
-0.00538492
-0.00433449
-0.00374345
-0.00342832
-0.00318769
-0.00278514
-0.00205845
-0.00124012
-0.000703363
-0.000332563
0.000130009
0.000660992
0.0011997
0.00175462
0.00234282
0.00292792
0.003457
0.00398591
0.00459146
0.00519465
0.0057177
0.00622749
0.00683241
0.00746017
0.00800779
0.00859862
0.00926357
0.00971014
0.00961465
0.00930138
0.00943982
0.0100592
0.0107612
0.0114389
0.0122485
0.0131433
0.0138149
0.0143084
0.0150057
0.0158145
0.0161584
0.0161651
0.0165858
0.0174256
0.0181777
0.0188003
0.0194612
0.0201885
0.0209046
0.0215636
0.0222059
0.0228656
0.0235582
0.024254
0.0249505
0.0256862
0.0264536
0.0272854
0.028165
0.0290422
0.0298717
0.0307037
0.0315693
0.0324656
0.0333749
0.034304
0.0352526
0.0362256
0.0372622
0.0382886
0.0393084
0.0402909
0.041348
0.0424266
0.0435665
0.0447269
0.0458677
0.0470048
0.0481688
0.0493791
0.0505741
0.0518702
0.0530968
0.0544054
0.0557594
0.057049
0.0584374
0.0598378
0.0612513
0.0627348
0.0642312
0.0656956
-0.00399277
-0.00549628
-0.00907366
-0.0123108
-0.0126853
-0.0110946
-0.00901181
-0.00699054
-0.00537136
-0.00432593
-0.0037352
-0.00341627
-0.00317169
-0.00276946
-0.00204712
-0.00123306
-0.000698281
-0.000327989
0.000134111
0.00066436
0.00120244
0.00175697
0.00234496
0.00292986
0.00345848
0.00398697
0.00459259
0.00519594
0.00571889
0.00622845
0.00683339
0.00746143
0.00800904
0.00859973
0.00926502
0.0097123
0.00961644
0.00930165
0.0094396
0.0100596
0.010762
0.0114395
0.0122491
0.0131445
0.013816
0.0143087
0.015006
0.0158157
0.0161596
0.0161652
0.0165856
0.0174261
0.0181783
0.0188007
0.0194615
0.0201888
0.020905
0.021564
0.0222062
0.0228658
0.0235584
0.0242543
0.0249507
0.0256864
0.0264538
0.0272856
0.0281652
0.0290424
0.0298719
0.0307039
0.0315694
0.0324658
0.033375
0.0343041
0.0352527
0.0362257
0.0372623
0.0382887
0.0393086
0.040291
0.0413481
0.0424267
0.0435666
0.044727
0.0458679
0.047005
0.0481689
0.0493792
0.0505742
0.0518703
0.0530968
0.0544055
0.0557595
0.057049
0.0584375
0.0598379
0.0612514
0.0627349
0.0642313
0.0656961
-0.00415931
-0.00555171
-0.00878881
-0.0119281
-0.0124591
-0.0110051
-0.00896928
-0.00696326
-0.00535493
-0.00431753
-0.00372841
-0.0034032
-0.00314945
-0.0027445
-0.00202865
-0.00122281
-0.000691369
-0.00032096
0.000140847
0.000670005
0.00120706
0.00176081
0.00234834
0.00293277
0.00346055
0.00398824
0.00459366
0.00519706
0.00571993
0.00622915
0.00683391
0.00746235
0.00801032
0.00860103
0.00926664
0.00971473
0.00961858
0.00930211
0.0094394
0.0100601
0.0107629
0.0114401
0.0122498
0.0131458
0.0138173
0.0143091
0.0150064
0.0158172
0.0161612
0.0161652
0.0165853
0.0174266
0.0181791
0.0188011
0.0194619
0.0201893
0.0209055
0.0215644
0.0222065
0.0228661
0.0235587
0.0242546
0.0249509
0.0256866
0.026454
0.0272858
0.0281654
0.0290427
0.0298721
0.0307041
0.0315696
0.032466
0.0333752
0.0343043
0.0352529
0.0362259
0.0372625
0.0382889
0.0393087
0.0402911
0.0413483
0.0424268
0.0435667
0.0447272
0.045868
0.0470051
0.048169
0.0493793
0.0505743
0.0518704
0.0530969
0.0544056
0.0557596
0.0570491
0.0584376
0.059838
0.0612515
0.0627349
0.0642315
0.0656968
-0.00429845
-0.00561061
-0.00851621
-0.0115394
-0.0122185
-0.0109084
-0.0089238
-0.00693318
-0.00533607
-0.00430841
-0.00372226
-0.00338972
-0.0031232
-0.00271266
-0.00200435
-0.00120981
-0.000682782
-0.000311617
0.000150141
0.000678097
0.00121404
0.00176677
0.00235355
0.00293727
0.00346382
0.00399017
0.00459495
0.00519818
0.00572093
0.00622953
0.00683358
0.00746239
0.00801118
0.00860214
0.00926799
0.00971716
0.00962123
0.00930319
0.00943958
0.0100607
0.0107639
0.0114408
0.0122505
0.0131472
0.0138187
0.0143096
0.0150069
0.015819
0.0161629
0.0161652
0.016585
0.0174273
0.0181799
0.0188017
0.0194623
0.0201898
0.0209061
0.021565
0.022207
0.0228665
0.0235591
0.024255
0.0249512
0.0256869
0.0264542
0.027286
0.0281657
0.029043
0.0298723
0.0307043
0.0315698
0.0324662
0.0333754
0.0343044
0.0352531
0.036226
0.0372626
0.0382891
0.0393089
0.0402912
0.0413484
0.0424269
0.0435668
0.0447273
0.0458682
0.0470052
0.0481691
0.0493794
0.0505744
0.0518705
0.0530971
0.0544056
0.0557597
0.0570492
0.0584376
0.0598381
0.0612515
0.062735
0.0642317
0.0656978
-0.00442487
-0.00568668
-0.00825832
-0.0111424
-0.0119628
-0.0108055
-0.0088777
-0.00690211
-0.00531515
-0.00429773
-0.00371552
-0.00337574
-0.00309524
-0.00267764
-0.00197703
-0.00119518
-0.000673078
-0.000300784
0.000161092
0.000687968
0.00122304
0.00177487
0.00236082
0.00294366
0.00346867
0.0039932
0.00459686
0.00519973
0.00572231
0.00622983
0.00683238
0.00746132
0.00801131
0.00860245
0.00926822
0.0097189
0.0096242
0.00930518
0.00944055
0.0100619
0.0107654
0.0114421
0.0122515
0.0131486
0.0138199
0.01431
0.0150076
0.015821
0.0161649
0.0161655
0.0165848
0.017428
0.0181808
0.0188023
0.0194629
0.0201903
0.0209068
0.0215656
0.0222075
0.022867
0.0235596
0.0242555
0.0249516
0.0256872
0.0264545
0.0272863
0.028166
0.0290434
0.0298726
0.0307045
0.03157
0.0324664
0.0333756
0.0343046
0.0352533
0.0362261
0.0372628
0.0382893
0.0393091
0.0402913
0.0413485
0.0424271
0.0435669
0.0447275
0.0458683
0.0470053
0.0481692
0.0493796
0.0505745
0.0518706
0.0530972
0.0544057
0.0557598
0.0570493
0.0584377
0.0598381
0.0612516
0.0627351
0.0642318
0.0656989
-0.00454255
-0.00576932
-0.00800806
-0.0107377
-0.0116942
-0.0106976
-0.00883151
-0.00687026
-0.00529184
-0.00428471
-0.00370748
-0.0033612
-0.00306662
-0.00264137
-0.00194824
-0.00117946
-0.00066252
-0.000289144
0.000172709
0.000698558
0.00123315
0.00178456
0.00236991
0.0029518
0.00347506
0.0039974
0.0045996
0.00520203
0.0057245
0.00623046
0.00683055
0.00745934
0.00801077
0.00860166
0.0092665
0.00971894
0.0096268
0.00930782
0.00944229
0.0100638
0.0107677
0.0114443
0.0122533
0.0131502
0.0138209
0.01431
0.0150079
0.015823
0.0161671
0.0161661
0.016585
0.017429
0.0181819
0.0188031
0.0194635
0.020191
0.0209075
0.0215664
0.0222082
0.0228675
0.0235602
0.0242562
0.0249522
0.0256876
0.0264549
0.0272867
0.0281665
0.0290438
0.029873
0.0307048
0.0315703
0.0324666
0.0333758
0.0343049
0.0352535
0.0362263
0.037263
0.0382896
0.0393093
0.0402915
0.0413487
0.0424272
0.0435671
0.0447277
0.0458685
0.0470055
0.0481694
0.0493797
0.0505746
0.0518708
0.0530973
0.0544058
0.0557599
0.0570494
0.0584378
0.0598382
0.0612517
0.062735
0.0642319
0.0657003
-0.00464069
-0.00584867
-0.00776999
-0.0103314
-0.0114129
-0.0105822
-0.00878332
-0.00683677
-0.00526558
-0.00426886
-0.00369792
-0.00334619
-0.00303777
-0.00260443
-0.00191837
-0.0011627
-0.000651205
-0.000277027
0.000184491
0.000709195
0.00124355
0.00179509
0.00238033
0.00296126
0.0034826
0.00400261
0.00460315
0.0052051
0.00572762
0.00623172
0.00682843
0.00745671
0.00800979
0.00859995
0.00926261
0.00971653
0.00962807
0.00931033
0.00944435
0.0100661
0.0107708
0.0114479
0.0122567
0.013153
0.0138222
0.0143095
0.0150075
0.0158244
0.0161693
0.0161669
0.0165854
0.0174301
0.0181831
0.0188041
0.0194643
0.0201917
0.0209083
0.0215674
0.0222091
0.0228682
0.023561
0.0242571
0.0249529
0.0256882
0.0264555
0.0272873
0.028167
0.0290443
0.0298734
0.0307052
0.0315706
0.0324669
0.0333761
0.0343051
0.0352537
0.0362265
0.0372633
0.0382898
0.0393095
0.0402916
0.0413489
0.0424274
0.0435672
0.0447278
0.0458687
0.0470057
0.0481695
0.0493799
0.0505747
0.0518709
0.0530974
0.0544059
0.0557601
0.0570495
0.0584379
0.0598382
0.0612517
0.062735
0.0642319
0.0657019
-0.0047118
-0.0059253
-0.00755182
-0.00992473
-0.0111144
-0.0104554
-0.00873142
-0.00680133
-0.00523641
-0.00424994
-0.00368652
-0.0033306
-0.00300874
-0.00256688
-0.00188739
-0.00114493
-0.000639284
-0.000264654
0.000196272
0.000719693
0.00125385
0.00180585
0.00239158
0.00297169
0.00349092
0.00400856
0.0046074
0.00520875
0.00573145
0.00623362
0.00682622
0.00745354
0.00800846
0.00859753
0.00925679
0.00971149
0.0096273
0.00931172
0.00944599
0.0100681
0.010774
0.0114522
0.0122617
0.0131577
0.0138244
0.0143084
0.0150057
0.0158246
0.0161709
0.0161678
0.0165861
0.0174314
0.0181845
0.0188055
0.0194653
0.0201923
0.0209091
0.0215683
0.02221
0.022869
0.0235619
0.0242581
0.0249538
0.025689
0.0264562
0.027288
0.0281678
0.029045
0.0298741
0.0307057
0.0315711
0.0324673
0.0333764
0.0343054
0.035254
0.0362268
0.0372635
0.0382901
0.0393097
0.0402918
0.0413491
0.0424276
0.0435673
0.044728
0.045869
0.0470059
0.0481697
0.04938
0.0505749
0.0518711
0.0530976
0.0544061
0.0557602
0.0570496
0.0584379
0.0598382
0.0612518
0.0627349
0.0642319
0.0657038
-0.00475608
-0.00599947
-0.00735549
-0.00951576
-0.0107951
-0.0103145
-0.00867498
-0.00676408
-0.00520464
-0.00422772
-0.00367278
-0.00331404
-0.00297931
-0.00252866
-0.00185535
-0.00112631
-0.00062693
-0.000252121
0.000208128
0.000730197
0.00126407
0.00181649
0.00240323
0.00298286
0.00349982
0.004015