/*--------------------------------*- C++ -*----------------------------------*\
| =========                 |                                                 |
| \\      /  F ield         | OpenFOAM: The Open Source CFD Toolbox           |
|  \\    /   O peration     | Version:  v1912                                 |
|   \\  /    A nd           | Website:  www.openfoam.com                      |
|    \\/     M anipulation  |                                                 |
\*---------------------------------------------------------------------------*/
FoamFile
{
    version     2.0;
    format      ascii;
    class       surfaceScalarField;
    location    "3";
    object      phi;
}
// * * * * * * * * * * * * * * * * * * * * * * * * * * * * * * * * * * * * * //

dimensions      [0 3 -1 0 0 0 0];
oriented        oriented;


internalField   nonuniform List<scalar> 
19000
(
1.18185e-06
-6.54345e-07
1.2405e-06
1.71198e-07
1.18868e-06
6.48208e-07
1.06461e-06
-4.54792e-07
1.2524e-06
9.4593e-07
1.16707e-06
1.32735e-06
1.11468e-06
-6.90745e-07
1.18673e-06
6.64876e-07
1.11685e-06
-2.99404e-07
1.17376e-06
-5.06886e-08
1.20663e-06
-2.16877e-07
1.19691e-06
-3.84162e-08
1.20595e-06
8.39802e-07
1.14107e-06
1.87229e-07
1.17633e-06
6.81123e-07
1.13503e-06
3.68292e-07
1.14502e-06
2.66596e-07
1.15074e-06
4.2969e-07
1.13573e-06
3.51301e-07
4.12895e-07
1.12524e-06
1.24099e-06
-6.71076e-07
1.29969e-06
1.12501e-07
1.24888e-06
6.99019e-07
1.11904e-06
-3.24959e-07
1.31302e-06
7.51955e-07
1.24244e-06
1.39793e-06
1.18674e-06
-6.35045e-07
1.26178e-06
5.89837e-07
1.19285e-06
-2.30479e-07
1.24106e-06
-9.88921e-08
1.27466e-06
-2.50486e-07
1.25975e-06
-2.34964e-08
1.26165e-06
8.37893e-07
1.2008e-06
2.48084e-07
1.2225e-06
6.59419e-07
1.20729e-06
3.83507e-07
1.1875e-06
2.86386e-07
1.22717e-06
3.90016e-07
1.1752e-06
4.03274e-07
3.8263e-07
1.20546e-06
1.30128e-06
-6.89569e-07
1.36118e-06
5.25977e-08
1.3151e-06
7.45094e-07
1.18171e-06
-1.91568e-07
1.36994e-06
5.63724e-07
1.33301e-06
1.43486e-06
1.2653e-06
-5.67337e-07
1.34271e-06
5.12424e-07
1.27483e-06
-1.62592e-07
1.31259e-06
-1.36653e-07
1.34314e-06
-2.81035e-07
1.33382e-06
-1.41742e-08
1.32553e-06
8.46175e-07
1.27734e-06
2.96279e-07
1.27911e-06
6.57651e-07
1.28521e-06
3.774e-07
1.25016e-06
3.21445e-07
1.28112e-06
3.59051e-07
1.25089e-06
4.33505e-07
3.91235e-07
1.24228e-06
1.36171e-06
-7.07179e-07
1.42197e-06
-7.66229e-09
1.38432e-06
7.82749e-07
1.25485e-06
-6.21016e-08
1.42752e-06
3.91057e-07
1.42866e-06
1.43372e-06
1.34595e-06
-4.8462e-07
1.41693e-06
4.41442e-07
1.35463e-06
-1.00293e-07
1.37787e-06
-1.59889e-07
1.40294e-06
-3.06104e-07
1.4081e-06
-1.93347e-08
1.39909e-06
8.55182e-07
1.36197e-06
3.33398e-07
1.35177e-06
6.67851e-07
1.36065e-06
3.68518e-07
1.33101e-06
3.51088e-07
1.33925e-06
3.5081e-07
1.33201e-06
4.40751e-07
4.08397e-07
1.31484e-06
1.42172e-06
-7.2054e-07
1.48007e-06
-6.60162e-08
1.45386e-06
8.08962e-07
1.33841e-06
5.33432e-08
1.48477e-06
2.44699e-07
1.51678e-06
1.40171e-06
1.42342e-06
-3.91262e-07
1.47826e-06
3.86609e-07
1.428e-06
-5.00407e-08
1.43416e-06
-1.6605e-07
1.45193e-06
-3.2387e-07
1.47414e-06
-4.15452e-08
1.47535e-06
8.53971e-07
1.44637e-06
3.6238e-07
1.4324e-06
6.81819e-07
1.43283e-06
3.6809e-07
1.41359e-06
3.70323e-07
1.40858e-06
3.55825e-07
1.40947e-06
4.39856e-07
4.2053e-07
1.39734e-06
1.48187e-06
-7.2673e-07
1.53501e-06
-1.19163e-07
1.52251e-06
8.21467e-07
1.4295e-06
1.46355e-07
1.54083e-06
1.33367e-07
1.58857e-06
1.35396e-06
1.49597e-06
-2.98661e-07
1.53028e-06
3.52304e-07
1.49497e-06
-1.4734e-08
1.48623e-06
-1.57306e-07
1.49581e-06
-3.33458e-07
1.53036e-06
-7.60885e-08
1.54677e-06
8.37563e-07
1.5262e-06
3.82945e-07
1.51247e-06
6.95549e-07
1.50333e-06
3.77232e-07
1.48976e-06
3.83887e-07
1.47992e-06
3.65671e-07
1.48277e-06
4.36999e-07
4.28609e-07
1.4747e-06
1.5439e-06
-7.2441e-07
1.5883e-06
-1.63567e-07
1.59089e-06
8.18875e-07
1.5237e-06
2.13551e-07
1.59618e-06
6.08791e-08
1.64541e-06
1.30473e-06
1.56545e-06
-2.18695e-07
1.58129e-06
3.36457e-07
1.55851e-06
8.04554e-09
1.54114e-06
-1.39929e-07
1.54309e-06
-3.3541e-07
1.58102e-06
-1.14015e-07
1.61101e-06
8.07575e-07
1.60084e-06
3.93114e-07
1.59008e-06
7.06302e-07
1.57516e-06
3.92159e-07
1.56261e-06
3.96435e-07
1.54986e-06
3.78421e-07
1.5527e-06
4.34153e-07
4.35254e-07
1.54606e-06
1.61008e-06
-7.14363e-07
1.64295e-06
-1.96431e-07
1.66062e-06
8.01197e-07
1.61761e-06
2.56565e-07
1.65336e-06
2.51328e-08
1.69621e-06
1.26188e-06
1.63462e-06
-1.5711e-07
1.63757e-06
3.33514e-07
1.62297e-06
2.2641e-08
1.60406e-06
-1.21021e-07
1.60014e-06
-3.31487e-07
1.63308e-06
-1.46957e-07
1.67124e-06
7.6942e-07
1.67207e-06
3.92276e-07
1.6669e-06
7.11479e-07
1.65067e-06
4.0839e-07
1.63753e-06
4.09575e-07
1.62128e-06
3.94673e-07
1.62264e-06
4.32793e-07
4.42072e-07
1.61582e-06
1.68226e-06
-6.99045e-07
1.70231e-06
-2.16479e-07
1.73307e-06
7.70436e-07
1.71001e-06
2.79621e-07
1.71609e-06
1.90487e-08
1.75076e-06
1.22722e-06
1.70545e-06
-1.11806e-07
1.70141e-06
3.37552e-07
1.69251e-06
3.15485e-08
1.67715e-06
-1.05667e-07
1.66923e-06
-3.23568e-07
1.69259e-06
-1.70317e-07
1.73274e-06
7.2927e-07
1.74238e-06
3.82638e-07
1.74406e-06
7.09803e-07
1.72957e-06
4.22878e-07
1.71668e-06
4.22465e-07
1.69711e-06
4.14238e-07
1.69638e-06
4.33526e-07
4.49612e-07
1.68884e-06
1.76115e-06
-6.81477e-07
1.76887e-06
-2.24196e-07
1.80877e-06
7.30538e-07
1.80131e-06
2.87083e-07
1.78747e-06
3.28809e-08
1.81504e-06
1.19965e-06
1.77921e-06
-7.59743e-08
1.77281e-06
3.43947e-07
1.76961e-06
3.47517e-08
1.76019e-06
-9.62511e-08
1.74945e-06
-3.12825e-07
1.76232e-06
-1.83189e-07
1.79936e-06
6.92233e-07
1.81344e-06
3.68556e-07
1.82123e-06
7.02016e-07
1.80957e-06
4.34538e-07
1.79881e-06
4.33224e-07
1.77766e-06
4.35384e-07
1.77574e-06
4.35453e-07
4.57069e-07
1.76828e-06
1.84647e-06
-6.64196e-07
1.84371e-06
-2.21437e-07
1.88766e-06
6.86589e-07
1.89249e-06
2.82255e-07
1.8685e-06
5.68711e-08
1.89041e-06
1.17774e-06
1.85709e-06
-4.26597e-08
1.85125e-06
3.49785e-07
1.85455e-06
3.14589e-08
1.85154e-06
-9.32414e-08
1.83863e-06
-2.99922e-07
1.84199e-06
-1.86546e-07
1.87236e-06
6.61861e-07
1.88603e-06
3.54888e-07
1.89782e-06
6.90227e-07
1.88862e-06
4.43738e-07
1.8818e-06
4.40045e-07
1.86167e-06
4.55509e-07
1.8605e-06
4.36628e-07
4.62453e-07
1.85511e-06
1.93738e-06
-6.48738e-07
1.92672e-06
-2.10778e-07
1.96962e-06
6.43689e-07
1.98444e-06
2.67438e-07
1.95816e-06
8.31515e-08
1.97536e-06
1.16054e-06
1.94036e-06
-7.65371e-09
1.93653e-06
3.53615e-07
1.9461e-06
2.18864e-08
1.94892e-06
-9.60656e-08
1.93463e-06
-2.85626e-07
1.92998e-06
-1.81898e-07
1.95174e-06
6.401e-07
1.96108e-06
3.45544e-07
1.97454e-06
6.76772e-07
1.96683e-06
4.51449e-07
1.96504e-06
4.41834e-07
1.94846e-06
4.72093e-07
1.94994e-06
4.35149e-07
4.63479e-07
1.94891e-06
2.03308e-06
-6.35633e-07
2.01727e-06
-1.94966e-07
2.05499e-06
6.05967e-07
2.07778e-06
2.44655e-07
2.05445e-06
1.06483e-07
2.06781e-06
1.14717e-06
2.0301e-06
3.00592e-08
2.02871e-06
3.55002e-07
2.04283e-06
7.76911e-09
2.05028e-06
-1.03521e-07
2.03565e-06
-2.70991e-07
2.02471e-06
-1.70959e-07
2.03768e-06
6.27134e-07
2.04056e-06
3.42659e-07
2.05399e-06
6.63349e-07
2.04685e-06
4.5858e-07
2.05023e-06
4.38458e-07
2.03888e-06
4.83439e-07
2.04398e-06
4.30053e-07
4.58591e-07
2.04887e-06
2.13303e-06
-6.24658e-07
2.11466e-06
-1.76604e-07
2.14471e-06
5.75926e-07
2.17303e-06
2.16329e-07
2.15535e-06
1.2417e-07
2.16627e-06
1.13624e-06
2.12696e-06
6.9366e-08
2.12788e-06
3.54085e-07
2.1439e-06
-8.24946e-09
2.15427e-06
-1.13888e-07
2.14024e-06
-2.56961e-07
2.12502e-06
-1.55739e-07
2.13078e-06
6.2137e-07
2.12707e-06
3.46369e-07
2.13978e-06
6.50634e-07
2.13271e-06
4.65654e-07
2.14051e-06
4.30663e-07
2.13493e-06
4.89012e-07
2.14337e-06
4.21613e-07
4.47538e-07
2.15443e-06
2.23696e-06
-6.15128e-07
2.21834e-06
-1.57983e-07
2.24002e-06
5.54243e-07
2.27092e-06
1.85425e-07
2.25946e-06
1.35631e-07
2.27e-06
1.12571e-06
2.23105e-06
1.08318e-07
2.23393e-06
3.51199e-07
2.24925e-06
-2.35706e-08
2.26042e-06
-1.25056e-07
2.2473e-06
-2.43844e-07
2.23003e-06
-1.38464e-07
2.23146e-06
6.19941e-07
2.22262e-06
3.55206e-07
2.23494e-06
6.38316e-07
2.22782e-06
4.72772e-07
2.23874e-06
4.19748e-07
2.23843e-06
4.89314e-07
2.24892e-06
4.1113e-07
4.31305e-07
2.26515e-06
2.34489e-06
-6.06143e-07
2.32787e-06
-1.40962e-07
2.3421e-06
5.40015e-07
2.37249e-06
1.55033e-07
2.36625e-06
1.4187e-07
2.3786e-06
1.11336e-06
2.34196e-06
1.44958e-07
2.34656e-06
3.46601e-07
2.3593e-06
-3.63134e-08
2.36905e-06
-1.34808e-07
2.35633e-06
-2.31115e-07
2.33906e-06
-1.21194e-07
2.33941e-06
6.19583e-07
2.32771e-06
3.66912e-07
2.34051e-06
6.25515e-07
2.3335e-06
4.79783e-07
2.34605e-06
4.07191e-07
2.34994e-06
4.85427e-07
2.36068e-06
4.00388e-07
4.11665e-07
2.38032e-06
2.45704e-06
-5.9679e-07
2.44294e-06
-1.26857e-07
2.45164e-06
5.31317e-07
2.47894e-06
1.27729e-07
2.47596e-06
1.4485e-07
2.49184e-06
1.09748e-06
2.4591e-06
1.77699e-07
2.46533e-06
3.40369e-07
2.47454e-06
-4.55175e-08
2.48094e-06
-1.4121e-07
2.4675e-06
-2.17678e-07
2.45164e-06
-1.05333e-07
2.45371e-06
6.17519e-07
2.44134e-06
3.79278e-07
2.45552e-06
6.11334e-07
2.44885e-06
4.86456e-07
2.46163e-06
3.94412e-07
2.46855e-06
4.78506e-07
2.47792e-06
3.91021e-07
3.9066e-07
2.49892e-06
2.57382e-06
-5.86318e-07
2.56328e-06
-1.16314e-07
2.56878e-06
5.25812e-07
2.59138e-06
1.05133e-07
2.58941e-06
1.46824e-07
2.6097e-06
1.07718e-06
2.58186e-06
2.05545e-07
2.58969e-06
3.32535e-07
2.59526e-06
-5.10811e-08
2.59705e-06
-1.43003e-07
2.58173e-06
-2.02358e-07
2.56776e-06
-9.13638e-08
2.57326e-06
6.12014e-07
2.56187e-06
3.90666e-07
2.57797e-06
5.95234e-07
2.5719e-06
4.9253e-07
2.58369e-06
3.82625e-07
2.59271e-06
4.69482e-07
2.59964e-06
3.8409e-07
3.70124e-07
2.62018e-06
2.69579e-06
-5.74282e-07
2.68874e-06
-1.09263e-07
2.69326e-06
5.21298e-07
2.71058e-06
8.78044e-08
2.70766e-06
1.4975e-07
2.73253e-06
1.05231e-06
2.70982e-06
2.28252e-07
2.71901e-06
3.23347e-07
2.72155e-06
-5.36262e-08
2.71839e-06
-1.39841e-07
2.70033e-06
-1.84301e-07
2.6879e-06
-7.89315e-08
2.69739e-06
6.0253e-07
2.68787e-06
4.00182e-07
2.70597e-06
5.77131e-07
2.70084e-06
4.97661e-07
2.71077e-06
3.72699e-07
2.72128e-06
4.58968e-07
2.72546e-06
3.79907e-07
3.51427e-07
2.74416e-06
2.82357e-06
-5.60581e-07
2.81936e-06
-1.05053e-07
2.82454e-06
5.16114e-07
2.83692e-06
7.54239e-08
2.8318e-06
1.54876e-07
2.86092e-06
1.02319e-06
2.84289e-06
2.46281e-07
2.8528e-06
3.13434e-07
2.85343e-06
-5.42604e-08
2.84589e-06
-1.32296e-07
2.82473e-06
-1.63139e-07
2.81298e-06
-6.71832e-08
2.826e-06
5.89511e-07
2.81857e-06
4.07608e-07
2.83841e-06
5.57297e-07
2.83463e-06
5.01438e-07
2.84232e-06
3.65014e-07
2.85397e-06
4.47319e-07
2.8558e-06
3.78069e-07
3.35421e-07
2.87181e-06
2.95771e-06
-5.45394e-07
2.95541e-06
-1.02754e-07
2.96216e-06
5.0936e-07
2.97049e-06
6.7102e-08
2.96276e-06
1.62597e-07
2.99548e-06
9.90473e-07
2.98127e-06
2.60488e-07
2.99103e-06
3.03674e-07
2.99095e-06
-5.41724e-08
2.98022e-06
-1.21566e-07
2.95608e-06
-1.39005e-07
2.94407e-06
-5.51716e-08
2.9596e-06
5.73982e-07
2.954e-06
4.13203e-07
2.97506e-06
5.36238e-07
2.97305e-06
5.03446e-07
2.97855e-06
3.59515e-07
2.99119e-06
4.34684e-07
2.99157e-06
3.77687e-07
3.2251e-07
3.00448e-06
3.09865e-06
-5.29035e-07
3.09738e-06
-1.01487e-07
3.10589e-06
5.00848e-07
3.11126e-06
6.17343e-08
3.1013e-06
1.72556e-07
3.13669e-06
9.55084e-07
3.12544e-06
2.71735e-07
3.13423e-06
2.94887e-07
3.13425e-06
-5.41915e-08
3.12171e-06
-1.09021e-07
3.09513e-06
-1.12434e-07
3.08218e-06
-4.22179e-08
3.09906e-06
5.57099e-07
3.09479e-06
4.17481e-07
3.11647e-06
5.14551e-07
3.11653e-06
5.03394e-07
3.12013e-06
3.5591e-07
3.13369e-06
4.21128e-07
3.13369e-06
3.77686e-07
3.12745e-07
3.14345e-06
3.24672e-06
-5.11841e-07
3.24584e-06
-1.00607e-07
3.25584e-06
4.90841e-07
3.25926e-06
5.8314e-08
3.24788e-06
1.83942e-07
3.28488e-06
9.18081e-07
3.276e-06
2.80615e-07
3.28331e-06
2.87572e-07
3.28364e-06
-5.4522e-08
3.27043e-06
-9.58022e-08
3.24219e-06
-8.41979e-08
3.22809e-06
-2.81149e-08
3.24539e-06
5.39792e-07
3.24186e-06
4.21011e-07
3.26361e-06
4.92802e-07
3.26584e-06
5.01165e-07
3.26788e-06
3.53871e-07
3.28222e-06
4.06789e-07
3.28288e-06
3.77028e-07
3.05941e-07
3.28968e-06
3.40219e-06
-4.94101e-07
3.40131e-06
-9.97233e-08
3.4124e-06
4.79744e-07
3.41459e-06
5.61244e-08
3.4027e-06
1.95831e-07
3.44032e-06
8.80461e-07
3.43356e-06
2.87377e-07
3.43916e-06
2.81972e-07
3.43949e-06
-5.48541e-08
3.42636e-06
-8.26681e-08
3.39726e-06
-5.50969e-08
3.38224e-06
-1.30952e-08
3.39946e-06
5.22571e-07
3.39622e-06
4.24254e-07
3.41751e-06
4.71507e-07
3.42191e-06
4.96769e-07
3.42263e-06
3.5315e-07
3.43745e-06
3.91966e-07
3.43959e-06
3.7489e-07
3.01786e-07
3.44375e-06
3.56536e-06
-4.7605e-07
3.56426e-06
-9.86275e-08
3.57611e-06
4.67896e-07
3.57746e-06
5.47785e-08
3.56586e-06
2.07434e-07
3.60332e-06
8.42999e-07
3.59869e-06
2.92009e-07
3.6025e-06
2.78161e-07
3.60221e-06
-5.45678e-08
3.58958e-06
-7.00343e-08
3.5603e-06
-2.58237e-08
3.54482e-06
2.38963e-09
3.56189e-06
5.05495e-07
3.55865e-06
4.27494e-07
3.57904e-06
4.51123e-07
3.58555e-06
4.90257e-07
3.5851e-06
3.53604e-07
3.59995e-06
3.77115e-07
3.60409e-06
3.70744e-07
2.99906e-07
3.60597e-06
3.73654e-06
-4.5788e-07
3.73512e-06
-9.72164e-08
3.74751e-06
4.55506e-07
3.74815e-06
5.41436e-08
3.73739e-06
2.18195e-07
3.77418e-06
8.06212e-07
3.7718e-06
2.94389e-07
3.77386e-06
2.76092e-07
3.77223e-06
-5.29283e-08
3.7603e-06
-5.81135e-08
3.7314e-06
3.08116e-09
3.71587e-06
1.79173e-08
3.73308e-06
4.88287e-07
3.72973e-06
4.30844e-07
3.74884e-06
4.32013e-07
3.75738e-06
4.81713e-07
3.75588e-06
3.55103e-07
3.77017e-06
3.62829e-07
3.77662e-06
3.64293e-07
2.99832e-07
3.7767e-06
3.91606e-06
-4.39748e-07
3.91429e-06
-9.54463e-08
3.92711e-06
4.42682e-07
3.92703e-06
5.42245e-08
3.91744e-06
2.27784e-07
3.95325e-06
7.70405e-07
3.9532e-06
2.94441e-07
3.95369e-06
2.75599e-07
3.95003e-06
-4.92682e-08
3.93892e-06
-4.70021e-08
3.9108e-06
3.11982e-08
3.89548e-06
3.32391e-08
3.91323e-06
4.70541e-07
3.90981e-06
4.34262e-07
3.92736e-06
4.14463e-07
3.93785e-06
4.71217e-07
3.93552e-06
3.57435e-07
3.94856e-06
3.49792e-07
3.95738e-06
3.5547e-07
3.00846e-07
3.95637e-06
4.10427e-06
-4.21771e-07
4.10214e-06
-9.33091e-08
4.11534e-06
4.29477e-07
4.11451e-06
5.50554e-08
4.10626e-06
2.36035e-07
4.14091e-06
7.35754e-07
4.14311e-06
2.92245e-07
4.14233e-06
2.76375e-07
4.13618e-06
-4.31149e-08
4.12589e-06
-3.67125e-08
4.09891e-06
5.81769e-08
4.08383e-06
4.83223e-08
4.10247e-06
4.51893e-07
4.09917e-06
4.37566e-07
4.11491e-06
3.98722e-07
4.12725e-06
4.58875e-07
4.12447e-06
3.60212e-07
4.13559e-06
3.38674e-07
4.14655e-06
3.44515e-07
3.01959e-07
4.14543e-06
4.30156e-06
-4.04025e-07
4.29906e-06
-9.08132e-08
4.31261e-06
4.15932e-07
4.31104e-06
5.66257e-08
4.30418e-06
2.4289e-07
4.33757e-06
7.02365e-07
4.34174e-06
2.88069e-07
4.34012e-06
2.77995e-07
4.33128e-06
-3.42723e-08
4.32173e-06
-2.71653e-08
4.29621e-06
8.37054e-08
4.28121e-06
6.33185e-08
4.30097e-06
4.32132e-07
4.29808e-06
4.40456e-07
4.31172e-06
3.85081e-07
4.32583e-06
4.44772e-07
4.32311e-06
3.62927e-07
4.33183e-06
3.29955e-07
4.34435e-06
3.31993e-07
3.02079e-07
4.34423e-06
4.5083e-06
-3.86548e-07
4.50545e-06
-8.79696e-08
4.5193e-06
4.02089e-07
4.51708e-06
5.8845e-08
4.5116e-06
2.48363e-07
4.54366e-06
6.70303e-07
4.54937e-06
2.82361e-07
4.54742e-06
2.79951e-07
4.53597e-06
-2.28263e-08
4.52701e-06
-1.82083e-08
4.5032e-06
1.0752e-07
4.48803e-06
7.84831e-08
4.5089e-06
4.11265e-07
4.50682e-06
4.42537e-07
4.51805e-06
3.73848e-07
4.53376e-06
4.29064e-07
4.53175e-06
3.64944e-07
4.53785e-06
3.23848e-07
4.55112e-06
3.18729e-07
3.00225e-07
4.55297e-06
4.72492e-06
-3.69348e-07
4.72173e-06
-8.47821e-08
4.73581e-06
3.88004e-07
4.73311e-06
6.15478e-08
4.72895e-06
2.52522e-07
4.75967e-06
6.39582e-07
4.76634e-06
2.75695e-07
4.76458e-06
2.81713e-07
4.75085e-06
-9.10152e-09
4.74229e-06
-9.64097e-09
4.72039e-06
1.29414e-07
4.70479e-06
9.40888e-08
4.72651e-06
3.89542e-07
4.72574e-06
4.43302e-07
4.73423e-06
3.65363e-07
4.75129e-06
4.12004e-07
4.75062e-06
3.65615e-07
4.75427e-06
3.20194e-07
4.76733e-06
3.05674e-07
2.95833e-07
4.77172e-06
4.95187e-06
-3.52417e-07
4.94834e-06
-8.12531e-08
4.96259e-06
3.73748e-07
4.95962e-06
6.45219e-08
4.95666e-06
2.55476e-07
4.98609e-06
6.10156e-07
4.99309e-06
2.68696e-07
4.99202e-06
2.82781e-07
4.97647e-06
6.4486e-09
4.96809e-06
-1.26091e-09
4.94828e-06
1.49225e-07
4.93201e-06
1.10362e-07
4.95413e-06
3.6742e-07
4.95522e-06
4.42207e-07
4.96079e-06
3.59795e-07
4.97867e-06
3.94122e-07
4.98e-06
3.64294e-07
4.98162e-06
3.18568e-07
4.99352e-06
2.93776e-07
2.88893e-07
5.00046e-06
5.18964e-06
-3.35743e-07
5.18578e-06
-7.73905e-08
5.20011e-06
3.5942e-07
5.1971e-06
6.75323e-08
5.1952e-06
2.57378e-07
5.22344e-06
5.81913e-07
5.23017e-06
2.61962e-07
5.23017e-06
2.82788e-07
5.21332e-06
2.32995e-08
5.20495e-06
7.10351e-09
5.18735e-06
1.6683e-07
5.1703e-06
1.27403e-07
5.19219e-06
3.45538e-07
5.19569e-06
4.38703e-07
5.19837e-06
3.57111e-07
5.21637e-06
3.76127e-07
5.22013e-06
3.60534e-07
5.22035e-06
3.18344e-07
5.23025e-06
2.83883e-07
2.799e-07
5.23924e-06
5.43876e-06
-3.19318e-07
5.43459e-06
-7.32216e-08
5.44887e-06
3.45141e-07
5.44606e-06
7.03471e-08
5.44503e-06
2.58409e-07
5.47225e-06
5.54687e-07
5.47836e-06
2.5586e-07
5.47945e-06
2.8169e-07
5.46184e-06
4.09105e-08
5.45337e-06
1.55793e-08
5.43806e-06
1.82139e-07
5.42029e-06
1.45174e-07
5.44122e-06
3.24608e-07
5.44751e-06
4.32406e-07
5.44768e-06
3.5695e-07
5.46481e-06
3.58988e-07
5.47137e-06
3.53979e-07
5.47094e-06
3.1877e-07
5.47838e-06
2.76446e-07
2.6986e-07
5.48842e-06
5.69978e-06
-3.03141e-07
5.69536e-06
-6.8797e-08
5.70944e-06
3.31054e-07
5.70704e-06
7.27496e-08
5.70669e-06
2.58762e-07
5.73307e-06
5.28307e-07
5.73849e-06
2.50438e-07
5.7404e-06
2.79779e-07
5.72252e-06
5.87886e-08
5.71384e-06
2.42663e-08
5.70089e-06
1.95089e-07
5.68258e-06
1.63486e-07
5.70185e-06
3.05333e-07
5.71107e-06
4.23185e-07
5.70939e-06
3.58631e-07
5.72468e-06
3.43698e-07
5.73407e-06
3.44589e-07
5.73385e-06
3.18991e-07
5.73883e-06
2.71465e-07
2.59936e-07
5.74875e-06
5.97327e-06
-2.87216e-07
5.96867e-06
-6.42014e-08
5.9824e-06
3.17322e-07
5.9806e-06
7.4555e-08
5.98076e-06
2.58595e-07
6.00637e-06
5.02702e-07
6.01125e-06
2.45561e-07
6.01361e-06
2.77414e-07
5.99584e-06
7.65618e-08
5.98689e-06
3.32111e-08
5.97631e-06
2.05672e-07
5.95778e-06
1.82019e-07
5.97475e-06
2.88362e-07
5.9868e-06
4.11132e-07
5.98418e-06
3.61249e-07
5.99677e-06
3.31114e-07
6.00874e-06
3.32617e-07
6.00948e-06
3.18252e-07
6.01248e-06
2.68467e-07
2.51168e-07
6.02124e-06
6.25981e-06
-2.71541e-07
6.25516e-06
-5.95493e-08
6.26837e-06
3.04115e-07
6.2673e-06
7.56198e-08
6.26791e-06
2.57993e-07
6.29264e-06
4.77967e-07
6.29723e-06
2.40976e-07
6.29973e-06
2.74913e-07
6.28232e-06
9.39704e-08
6.2731e-06
4.24252e-08
6.26484e-06
2.13933e-07
6.24647e-06
2.00388e-07
6.26065e-06
2.74186e-07
6.2752e-06
3.96584e-07
6.27271e-06
3.63736e-07
6.28204e-06
3.21782e-07
6.29587e-06
3.18791e-07
6.29836e-06
3.15759e-07
6.29989e-06
2.66942e-07
2.4414e-07
6.30691e-06
6.56004e-06
-2.56114e-07
6.55547e-06
-5.49817e-08
6.56799e-06
2.91594e-07
6.56775e-06
7.58658e-08
6.5688e-06
2.56943e-07
6.59237e-06
4.544e-07
6.59703e-06
2.3631e-07
6.59943e-06
2.72518e-07
6.58254e-06
1.1086e-07
6.57307e-06
5.18897e-08
6.56705e-06
2.1996e-07
6.54927e-06
2.1817e-07
6.56034e-06
2.6311e-07
6.57684e-06
3.80089e-07
6.57551e-06
3.65065e-07
6.5815e-06
3.15785e-07
6.59601e-06
3.04283e-07
6.60098e-06
3.1079e-07
6.60162e-06
2.66307e-07
2.38943e-07
6.60681e-06
6.87459e-06
-2.40917e-07
6.87028e-06
-5.06637e-08
6.88196e-06
2.7991e-07
6.88254e-06
7.52904e-08
6.88419e-06
2.55287e-07
6.90611e-06
4.32485e-07
6.91122e-06
2.31194e-07
6.91346e-06
2.70283e-07
6.89714e-06
1.2718e-07
6.88744e-06
6.15826e-08
6.88352e-06
2.2388e-07
6.86675e-06
2.34942e-07
6.8747e-06
2.55163e-07
6.89244e-06
3.62352e-07
6.89311e-06
3.64392e-07
6.8961e-06
3.12795e-07
6.9099e-06
2.90478e-07
6.91776e-06
3.02932e-07
6.91827e-06
2.658e-07
2.35467e-07
6.92175e-06
7.20414e-06
-2.25924e-07
7.20025e-06
-4.67687e-08
7.21097e-06
2.69193e-07
7.21228e-06
7.39717e-08
7.21482e-06
2.52751e-07
7.23456e-06
4.12744e-07
7.24042e-06
2.25338e-07
7.2426e-06
2.68099e-07
7.22675e-06
1.43031e-07
7.2169e-06
7.14319e-08
7.21494e-06
2.2584e-07
7.19958e-06
2.50301e-07
7.20451e-06
2.50235e-07
7.22276e-06
3.44098e-07
7.22605e-06
3.61111e-07
7.22674e-06
3.12103e-07
7.23855e-06
2.78664e-07
7.24907e-06
2.92413e-07
7.25047e-06
2.644e-07
2.33513e-07
7.25242e-06
7.54941e-06
-2.11104e-07
7.5461e-06
-4.34659e-08
7.55575e-06
2.59544e-07
7.55764e-06
7.20821e-08
7.56145e-06
2.48942e-07
7.57853e-06
3.95666e-07
7.58522e-06
2.18644e-07
7.5877e-06
2.65619e-07
7.57215e-06
1.58581e-07
7.5621e-06
8.14839e-08
7.56197e-06
2.25975e-07
7.54846e-06
2.63809e-07
7.55064e-06
2.48048e-07
7.56872e-06
3.26019e-07
7.57492e-06
3.54917e-07
7.5742e-06
3.12824e-07
7.58306e-06
2.69801e-07
7.59501e-06
2.80461e-07
7.59848e-06
2.60932e-07
2.32438e-07
7.59955e-06
7.91113e-06
-1.96419e-07
7.90857e-06
-4.09089e-08
7.91711e-06
2.51003e-07
7.9193e-06
6.98931e-08
7.92478e-06
2.43458e-07
7.93899e-06
3.81456e-07
7.94635e-06
2.11291e-07
7.94951e-06
2.62454e-07
7.93418e-06
1.73916e-07
7.92378e-06
9.18811e-08
7.92533e-06
2.2442e-07
7.91406e-06
2.7508e-07
7.91382e-06
2.48288e-07
7.9312e-06
3.08646e-07
7.94058e-06
3.45537e-07
7.9396e-06
3.13802e-07
7.9448e-06
2.64604e-07
7.95614e-06
2.69116e-07
7.96165e-06
2.55424e-07
2.30719e-07
7.96337e-06
8.29009e-06
-1.8183e-07
8.2884e-06
-3.92167e-08
8.29589e-06
2.43516e-07
8.29802e-06
6.77605e-08
8.30555e-06
2.3593e-07
8.31692e-06
3.70088e-07
8.32435e-06
2.03861e-07
8.32878e-06
2.58018e-07
8.31375e-06
1.88947e-07
8.30261e-06
1.03025e-07
8.3058e-06
2.21222e-07
8.29716e-06
2.8372e-07
8.29488e-06
2.50571e-07
8.31087e-06
2.92659e-07
8.32348e-06
3.3293e-07
8.32467e-06
3.12602e-07
8.33002e-06
2.5926e-07
8.34253e-06
2.56602e-07
8.35046e-06
2.47492e-07
2.29361e-07
8.35182e-06
8.68715e-06
-1.67316e-07
8.68635e-06
-3.84206e-08
8.69292e-06
2.36949e-07
8.69463e-06
6.6053e-08
8.70442e-06
2.26133e-07
8.71338e-06
3.61133e-07
8.71984e-06
1.97402e-07
8.72606e-06
2.51797e-07
8.71181e-06
2.03197e-07
8.69952e-06
1.15312e-07
8.70412e-06
2.16622e-07
8.69842e-06
2.89425e-07
8.6948e-06
2.54191e-07
8.70868e-06
2.78771e-07
8.72378e-06
3.17832e-07
8.72871e-06
3.07677e-07
8.73664e-06
2.51329e-07
8.75292e-06
2.40319e-07
8.76438e-06
2.36038e-07
2.2814e-07
8.7656e-06
9.10315e-06
-1.52851e-07
9.10321e-06
-3.84745e-08
9.10911e-06
2.31046e-07
9.11006e-06
6.5109e-08
9.12207e-06
2.14117e-07
9.1294e-06
3.53805e-07
9.13358e-06
1.93218e-07
9.14212e-06
2.43262e-07
9.12922e-06
2.16097e-07
9.11551e-06
1.29018e-07
9.12107e-06
2.11063e-07
9.1187e-06
2.918e-07
9.11454e-06
2.58351e-07
9.12599e-06
2.67314e-07
9.14224e-06
3.01582e-07
9.14777e-06
3.02149e-07
9.15004e-06
2.49059e-07
9.15985e-06
2.30508e-07
9.16926e-06
2.26632e-07
2.22768e-07
9.17463e-06
9.53905e-06
-1.38445e-07
9.5398e-06
-3.92258e-08
9.54537e-06
2.25481e-07
9.54519e-06
6.52841e-08
9.55929e-06
2.00027e-07
9.566e-06
3.47085e-07
9.5669e-06
1.92319e-07
9.57752e-06
2.32646e-07
9.56686e-06
2.26757e-07
9.55182e-06
1.44063e-07
9.55751e-06
2.05366e-07
9.55861e-06
2.90699e-07
9.5547e-06
2.62264e-07
9.5632e-06
2.58815e-07
9.57847e-06
2.8631e-07
9.58473e-06
2.95892e-07
9.58404e-06
2.49745e-07
9.58953e-06
2.25022e-07
9.59955e-06
2.16613e-07
2.15038e-07
9.60728e-06
9.99579e-06
-1.241e-07
9.99714e-06
-4.05723e-08
1.00027e-05
2.19941e-07
1.00011e-05
6.68853e-08
1.00169e-05
1.84201e-07
1.0024e-05
3.39987e-07
1.00213e-05
1.94969e-07
1.0033e-05
2.20953e-07
1.00255e-05
2.34251e-07
1.00094e-05
1.60167e-07
1.00144e-05
2.00385e-07
1.00187e-05
2.86396e-07
1.00157e-05
2.65299e-07
1.00211e-05
2.53394e-07
1.00347e-05
2.72697e-07
1.00427e-05
2.87889e-07
1.00435e-05
2.49008e-07
1.00478e-05
2.20691e-07
1.00583e-05
2.06132e-07
2.07351e-07
1.0066e-05
1.04744e-05
-1.09852e-07
1.04763e-05
-4.2471e-08
1.0482e-05
2.14245e-07
1.04787e-05
7.01267e-08
1.04958e-05
1.67173e-07
1.05043e-05
3.31427e-07
1.04983e-05
2.01002e-07
1.05094e-05
2.09866e-07
1.05059e-05
2.37714e-07
1.04895e-05
1.76551e-07
1.04928e-05
1.97129e-07
1.04995e-05
2.7968e-07
1.04979e-05
2.66882e-07
1.05011e-05
2.50261e-07
1.05131e-05
2.6061e-07
1.05226e-05
2.78423e-07
1.0525e-05
2.46634e-07
1.0528e-05
2.17703e-07
1.05366e-05
1.97532e-07
1.98752e-07
1.05452e-05
1.09759e-05
-9.57511e-08
1.09782e-05
-4.47854e-08
1.09843e-05
2.08138e-07
1.09794e-05
7.51114e-08
1.09969e-05
1.49597e-07
1.10077e-05
3.2066e-07
1.0999e-05
2.09739e-07
1.10079e-05
2.00971e-07
1.10086e-05
2.36954e-07
1.09929e-05
1.92258e-07
1.09936e-05
1.96445e-07
1.10018e-05
2.71465e-07
1.10023e-05
2.66424e-07
1.10042e-05
2.48277e-07
1.10146e-05
2.50218e-07
1.10246e-05
2.68444e-07
1.10285e-05
2.4275e-07
1.10312e-05
2.1502e-07
1.10378e-05
1.90889e-07
1.89795e-07
1.10468e-05
1.15015e-05
-8.18876e-08
1.1504e-05
-4.72939e-08
1.15108e-05
2.01375e-07
1.15041e-05
8.17968e-08
1.15214e-05
1.32236e-07
1.15349e-05
3.07189e-07
1.15246e-05
2.20092e-07
1.153e-05
1.95514e-07
1.15344e-05
2.32625e-07
1.15205e-05
2.06082e-07
1.15183e-05
1.98698e-07
1.15269e-05
2.62879e-07
1.15296e-05
2.63665e-07
1.15313e-05
2.46565e-07
1.154e-05
2.41529e-07
1.15501e-05
2.58331e-07
1.15555e-05
2.37352e-07
1.15587e-05
2.11893e-07
1.15638e-05
1.85745e-07
1.8166e-07
1.15719e-05
1.20523e-05
-6.83949e-08
1.20547e-05
-4.96741e-08
1.20624e-05
1.93676e-07
1.20542e-05
8.99696e-08
1.20705e-05
1.15967e-07
1.20868e-05
2.90902e-07
1.20762e-05
2.30686e-07
1.20777e-05
1.94017e-07
1.20842e-05
2.2608e-07
1.20734e-05
2.16888e-07
1.20688e-05
2.03306e-07
1.20765e-05
2.55209e-07
1.20813e-05
2.58839e-07
1.20835e-05
2.44405e-07
1.20909e-05
2.34116e-07
1.2101e-05
2.48193e-07
1.21075e-05
2.30903e-07
1.21112e-05
2.08171e-07
1.21159e-05
1.81027e-07
1.74791e-07
1.21228e-05
1.26297e-05
-5.54598e-08
1.26315e-05
-5.15151e-08
1.26404e-05
1.8473e-07
1.26311e-05
9.93363e-08
1.26453e-05
1.01757e-07
1.26643e-05
2.71921e-07
1.2655e-05
2.39988e-07
1.26526e-05
1.96418e-07
1.26597e-05
2.1894e-07
1.26525e-05
2.24046e-07
1.26469e-05
2.08951e-07
1.2653e-05
2.49112e-07
1.26591e-05
2.52713e-07
1.26622e-05
2.41361e-07
1.26688e-05
2.27444e-07
1.26787e-05
2.3832e-07
1.2686e-05
2.23576e-07
1.26902e-05
2.04024e-07
1.26952e-05
1.7605e-07
1.68921e-07
1.2701e-05
1.32348e-05
-4.33174e-08
1.32356e-05
-5.23388e-08
1.32461e-05
1.74262e-07
1.32359e-05
1.0949e-07
1.32472e-05
9.05066e-08
1.32684e-05
2.50651e-07
1.32619e-05
2.46543e-07
1.32562e-05
2.02141e-07
1.32625e-05
2.12651e-07
1.32589e-05
2.27579e-07
1.32536e-05
2.14275e-07
1.32582e-05
2.44537e-07
1.32648e-05
2.46055e-07
1.32688e-05
2.37397e-07
1.32751e-05
2.21144e-07
1.32845e-05
2.2891e-07
1.32925e-05
2.15558e-07
1.3297e-05
1.99579e-07
1.33018e-05
1.71219e-07
1.6312e-07
1.33076e-05
1.38691e-05
-3.22169e-08
1.38684e-05
-5.16852e-08
1.38805e-05
1.62137e-07
1.38702e-05
1.19821e-07
1.38777e-05
8.30278e-08
1.39006e-05
2.27734e-07
1.3898e-05
2.49093e-07
1.38898e-05
2.10355e-07
1.38943e-05
2.08177e-07
1.38938e-05
2.28096e-07
1.38898e-05
2.18312e-07
1.38932e-05
2.41141e-07
1.38998e-05
2.39405e-07
1.39046e-05
2.32612e-07
1.39108e-05
2.14954e-07
1.39196e-05
2.20134e-07
1.39279e-05
2.07163e-07
1.3933e-05
1.94531e-07
1.39373e-05
1.66951e-07
1.56858e-07
1.39435e-05
1.45338e-05
-2.23859e-08
1.45313e-05
-4.92001e-08
1.45449e-05
1.48549e-07
1.45353e-05
1.29503e-07
1.45385e-05
7.9782e-08
1.45621e-05
2.04123e-07
1.45641e-05
2.47144e-07
1.45547e-05
2.19681e-07
1.45569e-05
2.05969e-07
1.45585e-05
2.26489e-07
1.45564e-05
2.2044e-07
1.45591e-05
2.38442e-07
1.45654e-05
2.33089e-07
1.45707e-05
2.27323e-07
1.4577e-05
2.08706e-07
1.45852e-05
2.11871e-07
1.45937e-05
1.98739e-07
1.45996e-05
1.88548e-07
1.46034e-05
1.63208e-07
1.5073e-07
1.46095e-05
1.52305e-05
-1.39853e-08
1.5226e-05
-4.47279e-08
1.52405e-05
1.34032e-07
1.52324e-05
1.37619e-07
1.52314e-05
8.07465e-08
1.52544e-05
1.81155e-07
1.52607e-05
2.40848e-07
1.5252e-05
2.28433e-07
1.52519e-05
2.05983e-07
1.52547e-05
2.23694e-07
1.52547e-05
2.20442e-07
1.52573e-05
2.3588e-07
1.52632e-05
2.27219e-07
1.52687e-05
2.2183e-07
1.5275e-05
2.0232e-07
1.52831e-05
2.03824e-07
1.52911e-05
1.90693e-07
1.52979e-05
1.81781e-07
1.53017e-05
1.59412e-07
1.45392e-07
1.5307e-05
1.59604e-05
-7.09869e-09
1.59541e-05
-3.83653e-08
1.59687e-05
1.19433e-07
1.5963e-05
1.43339e-07
1.59583e-05
8.54356e-08
1.59788e-05
1.60604e-07
1.5989e-05
2.3064e-07
1.59825e-05
2.34978e-07
1.59808e-05
2.07645e-07
1.5984e-05
2.20505e-07
1.5986e-05
2.18419e-07
1.5989e-05
2.32932e-07
1.59945e-05
2.21659e-07
1.60001e-05
2.16302e-07
1.60064e-05
1.96013e-07
1.60144e-05
1.95787e-07
1.60221e-05
1.83048e-07
1.60292e-05
1.74688e-07
1.60336e-05
1.5492e-07
1.40919e-07
1.60381e-05
1.67252e-05
-1.7165e-09
1.67172e-05
-3.0371e-08
1.67311e-05
1.05548e-07
1.67282e-05
1.46205e-07
1.67208e-05
9.28419e-08
1.6737e-05
1.44484e-07
1.67504e-05
2.17192e-07
1.67474e-05
2.38002e-07
1.67451e-05
2.09949e-07
1.67481e-05
2.17445e-07
1.67519e-05
2.14693e-07
1.67556e-05
2.29197e-07
1.6761e-05
2.1627e-07
1.67666e-05
2.10699e-07
1.67726e-05
1.89985e-07
1.67806e-05
1.87818e-07
1.67882e-05
1.75469e-07
1.67951e-05
1.67763e-07
1.68004e-05
1.49647e-07
1.36885e-07
1.68044e-05
1.75264e-05
2.24177e-09
1.75171e-05
-2.11041e-08
1.75297e-05
9.29951e-08
1.75297e-05
1.46216e-07
1.75212e-05
1.01281e-07
1.75317e-05
1.34065e-07
1.7547e-05
2.0181e-07
1.75481e-05
2.36973e-07
1.75462e-05
2.11822e-07
1.75489e-05
2.14731e-07
1.75539e-05
2.09728e-07
1.75587e-05
2.24406e-07
1.7564e-05
2.10903e-07
1.75698e-05
2.04939e-07
1.75756e-05
1.84128e-07
1.75832e-05
1.80293e-07
1.75909e-05
1.67707e-07
1.75976e-05
1.61078e-07
1.76032e-05
1.44026e-07
1.32625e-07
1.76075e-05
1.83657e-05
4.93257e-09
1.83556e-05
-1.10535e-08
1.83663e-05
8.22636e-08
1.83688e-05
1.4371e-07
1.83609e-05
1.0927e-07
1.83661e-05
1.28775e-07
1.83813e-05
1.86627e-07
1.83863e-05
2.3197e-07
1.83858e-05
2.12402e-07
1.83882e-05
2.12313e-07
1.83938e-05
2.04065e-07
1.83998e-05
2.18426e-07
1.84054e-05
2.05302e-07
1.84112e-05
1.9914e-07
1.84172e-05
1.7817e-07
1.84241e-05
1.73348e-07
1.84318e-05
1.60007e-07
1.84387e-05
1.54216e-07
1.84442e-05
1.3853e-07
1.27871e-07
1.84489e-05
1.92448e-05
6.54773e-09
1.92345e-05
-7.83569e-10
1.92431e-05
7.37116e-08
1.92476e-05
1.39192e-07
1.9241e-05
1.15832e-07
1.92428e-05
1.26981e-07
1.9256e-05
1.73401e-07
1.92642e-05
2.23789e-07
1.92655e-05
2.11156e-07
1.92678e-05
2.09966e-07
1.92737e-05
1.98175e-07
1.92807e-05
2.11421e-07
1.9287e-05
1.99049e-07
1.92927e-05
1.93396e-07
1.92988e-05