/*--------------------------------*- C++ -*----------------------------------*\
| =========                 |                                                 |
| \\      /  F ield         | OpenFOAM: The Open Source CFD Toolbox           |
|  \\    /   O peration     | Version:  v1912                                 |
|   \\  /    A nd           | Website:  www.openfoam.com                      |
|    \\/     M anipulation  |                                                 |
\*---------------------------------------------------------------------------*/
FoamFile
{
    version     2.0;
    format      ascii;
    class       volVectorField;
    location    "3";
    object      U;
}
// * * * * * * * * * * * * * * * * * * * * * * * * * * * * * * * * * * * * * //

dimensions      [0 1 -1 0 0 0 0];


internalField   nonuniform List<vector> 
9600
(
(0.80086 -0.00648528 0)
(1.20704 0.0023625 0)
(0.927809 0.00728564 0)
(1.10025 -0.00710826 0)
(0.732596 0.0152194 0)
(1.39685 0.0194119 0)
(0.627698 -0.0123365 0)
(1.25724 0.0129745 0)
(0.794091 -0.0070175 0)
(1.10461 2.68403e-05 0)
(0.912025 -0.00441267 0)
(1.14488 -0.00118653 0)
(0.911701 0.0236752 0)
(1.14419 0.00410015 0)
(0.820379 0.0231557 0)
(1.17662 0.012175 0)
(0.78352 0.0102682 0)
(1.15751 0.0188156 0)
(0.821589 0.0152127 0)
(1.11141 0.0210791 0)
(0.812123 -0.00664094 0)
(1.19992 0.00155417 0)
(0.934961 0.00797058 0)
(1.0995 -0.00505687 0)
(0.738247 0.0122881 0)
(1.38583 0.0208307 0)
(0.670661 -0.0110421 0)
(1.24437 0.0115613 0)
(0.835693 -0.00514722 0)
(1.10076 -0.00193519 0)
(0.933643 -0.00557479 0)
(1.13984 -0.000745648 0)
(0.927497 0.0231699 0)
(1.12579 0.00662984 0)
(0.847761 0.0221195 0)
(1.13658 0.0135451 0)
(0.846522 0.0109458 0)
(1.08435 0.0172849 0)
(0.926146 0.0177415 0)
(0.991302 0.0192514 0)
(0.832843 -0.0068509 0)
(1.18246 0.000877779 0)
(0.950015 0.00864263 0)
(1.09533 -0.0033073 0)
(0.755815 0.00912467 0)
(1.36126 0.0218865 0)
(0.73948 -0.0100851 0)
(1.21407 0.0100273 0)
(0.894179 -0.00383644 0)
(1.08464 -0.00259304 0)
(0.966448 -0.00631017 0)
(1.12108 -0.000383419 0)
(0.965489 0.0232604 0)
(1.09608 0.00839974 0)
(0.903969 0.0214075 0)
(1.08169 0.0138163 0)
(0.927814 0.011871 0)
(1.01778 0.0155532 0)
(0.981216 0.0197283 0)
(0.969049 0.0190294 0)
(0.861339 -0.00704146 0)
(1.15389 0.000247125 0)
(0.970101 0.00913051 0)
(1.08584 -0.00161146 0)
(0.78832 0.00652075 0)
(1.32041 0.022147 0)
(0.822191 -0.00878548 0)
(1.16714 0.0086631 0)
(0.951405 -0.00250689 0)
(1.05928 -0.00331966 0)
(0.993118 -0.00694233 0)
(1.09038 -0.000346409 0)
(1.00875 0.0236361 0)
(1.07074 0.00954981 0)
(0.961153 0.0216726 0)
(1.04511 0.0133219 0)
(0.98203 0.0131004 0)
(0.997433 0.0149144 0)
(0.9963 0.0202469 0)
(0.985023 0.0200684 0)
(0.894201 -0.00719456 0)
(1.1169 -0.000413787 0)
(0.990547 0.00950117 0)
(1.07154 5.32763e-06 0)
(0.8336 0.00428033 0)
(1.26414 0.0219093 0)
(0.900482 -0.00723123 0)
(1.11337 0.00746041 0)
(0.99185 -0.00139014 0)
(1.03415 -0.00363279 0)
(1.00296 -0.00744185 0)
(1.0568 -0.000714115 0)
(1.03795 0.023782 0)
(1.05655 0.0105273 0)
(1.00074 0.0222194 0)
(1.03005 0.0130367 0)
(1.00624 0.0141737 0)
(1.00037 0.0149331 0)
(1.00159 0.0202727 0)
(0.998502 0.0210427 0)
(0.926875 -0.0072879 0)
(1.07686 -0.00104217 0)
(1.00668 0.00973457 0)
(1.05554 0.00137967 0)
(0.883588 0.00246881 0)
(1.19912 0.0212765 0)
(0.958908 -0.00564571 0)
(1.0658 0.00659625 0)
(1.01109 -0.000572953 0)
(1.01505 -0.0035643 0)
(0.99885 -0.00776152 0)
(1.02745 -0.00148991 0)
(1.04646 0.0235467 0)
(1.04973 0.0113519 0)
(1.02118 0.0226775 0)
(1.02584 0.0132678 0)
(1.0134 0.0147874 0)
(1.00431 0.0152302 0)
(1.00388 0.0202639 0)
(1.00382 0.0215265 0)
(0.955199 -0.00730015 0)
(1.04004 -0.00158604 0)
(1.01545 0.00979887 0)
(1.04195 0.0024155 0)
(0.92823 0.00120658 0)
(1.13567 0.0204658 0)
(0.993132 -0.00421854 0)
(1.03206 0.00613823 0)
(1.01441 -2.54004e-05 0)
(1.00241 -0.00323208 0)
(0.990237 -0.00787331 0)
(1.00538 -0.00245093 0)
(1.03889 0.0229203 0)
(1.0445 0.0118429 0)
(1.02832 0.0230856 0)
(1.02536 0.0137771 0)
(1.01449 0.0152146 0)
(1.00469 0.0157375 0)
(1.00314 0.02012 0)
(1.00317 0.0217486 0)
(0.97675 -0.00723002 0)
(1.01135 -0.00201135 0)
(1.01648 0.00968131 0)
(1.03346 0.00311894 0)
(0.961059 0.000491892 0)
(1.08311 0.019705 0)
(1.0081 -0.00307228 0)
(1.01183 0.00599816 0)
(1.00992 0.000329643 0)
(0.994873 -0.00280227 0)
(0.984247 -0.00783048 0)
(0.991191 -0.00336358 0)
(1.02413 0.0219667 0)
(1.03802 0.0119545 0)
(1.02828 0.0233719 0)
(1.02586 0.0143572 0)
(1.01494 0.015708 0)
(1.00396 0.0163662 0)
(1.00115 0.0199404 0)
(0.999921 0.0220437 0)
(0.991236 -0.0070962 0)
(0.99275 -0.00229737 0)
(1.01174 0.00938905 0)
(1.02993 0.00353367 0)
(0.981438 0.000242377 0)
(1.04619 0.0190854 0)
(1.01172 -0.00221639 0)
(1.00043 0.00604588 0)
(1.00388 0.00055381 0)
(0.991528 -0.00241231 0)
(0.98307 -0.00768359 0)
(0.984033 -0.00409986 0)
(1.00978 0.0208416 0)
(1.03025 0.0117462 0)
(1.02483 0.0234257 0)
(1.02569 0.0149137 0)
(1.01573 0.0162349 0)
(1.00374 0.0171235 0)
(0.999825 0.0199078 0)
(0.997007 0.0224599 0)
(0.999912 -0.00692746 0)
(0.983259 -0.00244172 0)
(1.00434 0.00895645 0)
(1.02901 0.00371803 0)
(0.992696 0.000332125 0)
(1.02454 0.0185993 0)
(1.0104 -0.00156605 0)
(0.993445 0.00617299 0)
(0.999415 0.000680391 0)
(0.991709 -0.00213772 0)
(0.985811 -0.00746375 0)
(0.982114 -0.00456559 0)
(0.999524 0.0197239 0)
(1.02198 0.0113363 0)
(1.01955 0.0232565 0)
(1.02338 0.0153813 0)
(1.01555 0.0167074 0)
(1.0036 0.0180197 0)
(0.999516 0.0199997 0)
(0.995803 0.0228823 0)
(1.00459 -0.00675138 0)
(0.980232 -0.00246001 0)
(0.996952 0.00843989 0)
(1.028 0.00372381 0)
(0.998971 0.00062396 0)
(1.01438 0.0182152 0)
(1.00777 -0.00100334 0)
(0.988637 0.00630761 0)
(0.997187 0.000688561 0)
(0.994251 -0.00200532 0)
(0.990709 -0.00718507 0)
(0.983482 -0.00475634 0)
(0.993593 0.0187481 0)
(1.0138 0.010884 0)
(1.01289 0.0229286 0)
(1.01824 0.015746 0)
(1.01313 0.0170619 0)
(1.00249 0.0189474 0)
(0.999541 0.0200935 0)
(0.996248 0.0232298 0)
(1.00685 -0.00658749 0)
(0.980858 -0.0023784 0)
(0.991183 0.00790534 0)
(1.02519 0.00358662 0)
(1.00314 0.000993902 0)
(1.011 0.0179118 0)
(1.00536 -0.000434726 0)
(0.985563 0.00640792 0)
(0.996722 0.0005618 0)
(0.997627 -0.00201062 0)
(0.996165 -0.00686 0)
(0.986588 -0.00473122 0)
(0.990719 0.0180034 0)
(1.00624 0.0105256 0)
(1.00537 0.0225131 0)
(1.01093 0.016035 0)
(1.00844 0.0172392 0)
(1.00012 0.0197691 0)
(0.99936 0.0200919 0)
(0.997721 0.023407 0)
(1.00774 -0.0064455 0)
(0.983037 -0.00222667 0)
(0.987565 0.00741223 0)
(1.02032 0.00333284 0)
(1.00633 0.00135114 0)
(1.01066 0.0176789 0)
(1.00366 0.000179177 0)
(0.98439 0.00645771 0)
(0.997347 0.000312096 0)
(1.00057 -0.00213143 0)
(1.00099 -0.00651599 0)
(0.990312 -0.00452107 0)
(0.989661 0.0175249 0)
(1.00003 0.0103467 0)
(0.998098 0.0220711 0)
(1.00317 0.0162938 0)
(1.00279 0.0171998 0)
(0.997197 0.0203877 0)
(0.999113 0.019938 0)
(0.999748 0.0233063 0)
(1.00781 -0.00632672 0)
(0.985522 -0.00203379 0)
(0.985986 0.00700254 0)
(1.0142 0.00299127 0)
(1.00847 0.00164234 0)
(1.01115 0.0175006 0)
(1.00276 0.000832955 0)
(0.985103 0.00645891 0)
(0.998607 -2.34585e-06 0)
(1.00248 -0.00233658 0)
(1.00444 -0.00617912 0)
(0.993792 -0.00417504 0)
(0.989678 0.0172849 0)
(0.995866 0.0103755 0)
(0.992457 0.0216341 0)
(0.99689 0.0165547 0)
(0.998054 0.0169538 0)
(0.994916 0.0207526 0)
(0.999368 0.0196152 0)
(1.00218 0.0228734 0)
(1.00736 -0.00622633 0)
(0.98769 -0.00182662 0)
(0.986056 0.00669497 0)
(1.00804 0.00259914 0)
(1.00917 0.00184755 0)
(1.01141 0.0173475 0)
(1.00261 0.00149786 0)
(0.987308 0.00641944 0)
(1.00028 -0.000326323 0)
(1.00336 -0.00258335 0)
(1.00621 -0.0058631 0)
(0.996345 -0.00375655 0)
(0.990356 0.0172168 0)
(0.993916 0.0105799 0)
(0.98941 0.0212113 0)
(0.993317 0.0168212 0)
(0.995569 0.0165548 0)
(0.99419 0.0208636 0)
(1.00053 0.0191635 0)
(1.00491 0.0221362 0)
(1.0066 -0.00613597 0)
(0.989262 -0.00162812 0)
(0.98732 0.00648699 0)
(1.00287 0.00219402 0)
(1.00839 0.0019707 0)
(1.01107 0.0171835 0)
(1.00299 0.00213847 0)
(0.99039 0.00634736 0)
(1.00227 -0.000616072 0)
(1.00354 -0.00282018 0)
(1.0064 -0.00556689 0)
(0.99757 -0.00331321 0)
(0.991338 0.0172208 0)
(0.993722 0.010903 0)
(0.98899 0.0207878 0)
(0.992509 0.017086 0)
(0.995552 0.0160679 0)
(0.995132 0.0207586 0)
(1.00248 0.0186645 0)
(1.00764 0.0211856 0)
(1.00574 -0.00604615 0)
(0.990144 -0.00145572 0)
(0.989331 0.00635923 0)
(0.999218 0.00181327 0)
(1.00652 0.00203271 0)
(1.01003 0.0169764 0)
(1.00363 0.00272412 0)
(0.993731 0.00624732 0)
(1.00446 -0.000837192 0)
(1.00337 -0.00299786 0)
(1.00537 -0.00526707 0)
(0.997443 -0.00288697 0)
(0.992224 0.0172038 0)
(0.99448 0.0112822 0)
(0.990409 0.0203354 0)
(0.99362 0.0173388 0)
(0.997236 0.0155545 0)
(0.997105 0.0204982 0)
(1.00462 0.0182026 0)
(1.00982 0.0201252 0)
(1.00497 -0.005948 0)
(0.990387 -0.00132055 0)
(0.991644 0.00628355 0)
(0.997132 0.00148823 0)
(1.00414 0.0020647 0)
(1.0084 0.0167053 0)
(1.0043 0.00323283 0)
(0.99682 0.0061169 0)
(1.00666 -0.000979682 0)
(1.00309 -0.00308547 0)
(1.00364 -0.00493324 0)
(0.996296 -0.00250105 0)
(0.992678 0.0171045 0)
(0.995417 0.011658 0)
(0.992577 0.0198294 0)
(0.995517 0.017568 0)
(0.999535 0.0150699 0)
(0.999236 0.0201348 0)
(1.00632 0.01784 0)
(1.01109 0.0190544 0)
(1.0044 -0.00583526 0)
(0.990169 -0.00122566 0)
(0.993828 0.00623161 0)
(0.996382 0.00123115 0)
(1.00175 0.00209717 0)
(1.00646 0.0163601 0)
(1.00488 0.00365427 0)
(0.999283 0.00595928 0)
(1.00859 -0.00105197 0)
(1.00286 -0.00306835 0)
(1.00173 -0.00454254 0)
(0.994656 -0.00216816 0)
(0.992564 0.0168921 0)
(0.996024 0.0119844 0)
(0.994598 0.0192629 0)
(0.997298 0.0177639 0)
(1.00162 0.0146537 0)
(1.00091 0.0196985 0)
(1.00725 0.0176025 0)
(1.01138 0.0180548 0)
(1.00408 -0.00570531 0)
(0.989739 -0.00116661 0)
(0.995561 0.00617909 0)
(0.996568 0.00104226 0)
(0.999636 0.00215312 0)
(1.00454 0.0159426 0)
(1.00535 0.00398902 0)
(1.00094 0.00578424 0)
(1.01003 -0.00107909 0)
(1.00274 -0.00294395 0)
(1.00003 -0.00408198 0)
(0.993039 -0.00186472 0)
(0.991974 0.0165676 0)
(0.996108 0.0122419 0)
(0.995991 0.0186419 0)
(0.998481 0.0179129 0)
(1.00309 0.014323 0)
(1.00195 0.0192191 0)
(1.00743 0.0174833 0)
(1.01099 0.0171705 0)
(1.00394 -0.00555905 0)
(0.98932 -0.00113376 0)
(0.996717 0.00611013 0)
(0.99723 0.000912632 0)
(0.997977 0.00224416 0)
(1.00289 0.0154618 0)
(1.00573 0.0042538 0)
(1.00183 0.00560194 0)
(1.01084 -0.00107964 0)
(1.00274 -0.00273944 0)
(0.998755 -0.00354917 0)
(0.991816 -0.00155926 0)
(0.99115 0.0161588 0)
(0.99573 0.0124353 0)
(0.996663 0.0179729 0)
(0.998965 0.018005 0)
(1.00388 0.0140753 0)
(1.00245 0.0187116 0)
(1.00708 0.0174548 0)
(1.01029 0.0164268 0)
(1.00391 -0.00539926 0)
(0.989051 -0.00111658 0)
(0.99736 0.00601917 0)
(0.997982 0.000827255 0)
(0.996832 0.00237001 0)
(1.00165 0.0149321 0)
(1.00599 0.00446342 0)
(1.00219 0.00543256 0)
(1.01107 -0.00107847 0)
(1.00281 -0.00248116 0)
(0.997916 -0.00295095 0)
(0.991159 -0.00124237 0)
(0.990368 0.0157028 0)
(0.995094 0.0125733 0)
(0.996785 0.0172758 0)
(0.998908 0.0180378 0)
(1.0041 0.0138962 0)
(1.00262 0.0181644 0)
(1.00647 0.0174737 0)
(1.00956 0.0158459 0)
(1.00391 -0.00522965 0)
(0.98898 -0.00110642 0)
(0.997645 0.00590826 0)
(0.998603 0.000772256 0)
(0.996157 0.00252174 0)
(1.00084 0.0143702 0)
(1.00609 0.00462787 0)
(1.0023 0.0052882 0)
(1.01088 -0.00108615 0)
(1.00286 -0.00219693 0)
(0.997388 -0.00230706 0)
(0.991056 -0.000892867 0)
(0.989848 0.0152203 0)
(0.994436 0.0126816 0)
(0.996626 0.0165668 0)
(0.998578 0.0180005 0)
(1.00394 0.0137786 0)
(1.00266 0.0175719 0)
(1.00578 0.01749 0)
(1.00895 0.0154283 0)
(1.00389 -0.00505335 0)
(0.989104 -0.00109751 0)
(0.997717 0.00578104 0)
(0.99905 0.000737792 0)
(0.995827 0.00268819 0)
(1.0004 0.0137932 0)
(1.00604 0.00475458 0)
(1.00239 0.00517212 0)
(1.01044 -0.00109432 0)
(1.00281 -0.00191226 0)
(0.997011 -0.00163184 0)
(0.991369 -0.000516789 0)
(0.989701 0.0147362 0)
(0.993945 0.0127743 0)
(0.996428 0.0158619 0)
(0.998227 0.0178878 0)
(1.00359 0.0137176 0)
(1.0027 0.0169407 0)
(1.0051 0.0174611 0)
(1.00845 0.0151567 0)
(1.00381 -0.00487295 0)
(0.989399 -0.00108724 0)
(0.997673 0.00564353 0)
(0.999382 0.000715895 0)
(0.99569 0.00285372 0)
(1.00025 0.0132159 0)
(1.00587 0.00484887 0)
(1.00257 0.00508672 0)
(1.00986 -0.00109696 0)
(1.00265 -0.00163507 0)
(0.996672 -0.000941847 0)
(0.991913 -0.000129808 0)
(0.98992 0.0142706 0)
(0.993713 0.0128607 0)
(0.996345 0.0151729 0)
(0.998015 0.0177048 0)
(1.00321 0.0137105 0)
(1.00282 0.0162802 0)
(1.00449 0.017345 0)
(1.00801 0.01503 0)
(1.00367 -0.0046907 0)
(0.989837 -0.00107351 0)
(0.997567 0.00549866 0)
(0.999674 0.000703277 0)
(0.99563 0.00301093 0)
(1.00027 0.0126452 0)
(1.00563 0.00490597 0)
(1.00286 0.00503531 0)
(1.00923 -0.0010821 0)
(1.00237 -0.00137209 0)
(0.996326 -0.000257431 0)
(0.992539 0.000264692 0)
(0.990424 0.0138029 0)
(0.993744 0.0129564 0)
(0.996435 0.0145109 0)
(0.998013 0.0174491 0)
(1.00286 0.0137588 0)
(1.00304 0.0156208 0)
(1.004 0.0171084 0)
(1.00757 0.0150369 0)
(1.00347 -0.00450764 0)
(0.990381 -0.00105668 0)
(0.997434 0.00534805 0)
(0.999969 0.000699559 0)
(0.995594 0.00315263 0)
(1.00039 0.0120905 0)
(1.00537 0.00492372 0)
(1.00322 0.00501566 0)
(1.00861 -0.00103358 0)
(1.00199 -0.00112388 0)
(0.995979 0.000411128 0)
(0.993158 0.000661187 0)
(0.991108 0.0133243 0)
(0.993987 0.0130566 0)
(0.996682 0.0138954 0)
(0.998222 0.017118 0)
(1.00259 0.0138516 0)
(1.00333 0.0150059 0)
(1.00367 0.0167392 0)
(1.00712 0.0151435 0)
(1.00322 -0.00432616 0)
(0.990987 -0.0010356 0)
(0.997303 0.00519282 0)
(1.00027 0.000705194 0)
(0.995578 0.00327744 0)
(1.00053 0.0115503 0)
(1.00512 0.00490571 0)
(1.00356 0.00502009 0)
(1.00804 -0.000936413 0)
(1.00158 -0.000894191 0)
(0.995652 0.00106316 0)
(0.993742 0.00104353 0)
(0.991879 0.0128302 0)
(0.994369 0.0131592 0)
(0.99703 0.0133338 0)
(0.998601 0.0167125 0)
(1.00239 0.0139798 0)
(1.00367 0.0144727 0)
(1.00351 0.0162407 0)
(1.00666 0.0152802 0)
(1.00297 -0.00414671 0)
(0.991607 -0.00100977 0)
(0.997195 0.00503214 0)
(1.00055 0.000722175 0)
(0.995606 0.00338198 0)
(1.00065 0.0110313 0)
(1.00489 0.00484785 0)
(1.00383 0.00504655 0)
(1.00754 -0.000785639 0)
(1.00118 -0.000681388 0)
(0.995363 0.00168344 0)
(0.99429 0.0014177 0)
(0.992675 0.0123019 0)
(0.99482 0.0132617 0)
(0.997414 0.0128346 0)
(0.999093 0.0162326 0)
(1.00227 0.0141259 0)
(1.00399 0.0140458 0)
(1.00353 0.0156391 0)
(1.00624 0.0153642 0)
(1.00272 -0.00396966 0)
(0.992199 -0.00097973 0)
(0.997125 0.00486925 0)
(1.00078 0.000747112 0)
(0.995702 0.00346483 0)
(1.00074 0.0105324 0)
(1.00469 0.00476476 0)
(1.00397 0.00508407 0)
(1.00713 -0.000579297 0)
(1.00085 -0.000486006 0)
(0.995126 0.00226272 0)
(0.994811 0.0017998 0)
(0.993456 0.0117331 0)
(0.995285 0.0133494 0)
(0.997777 0.0124135 0)
(0.999636 0.0156853 0)
(1.00221 0.0142575 0)
(1.00427 0.0137431 0)
(1.0037 0.0149706 0)
(1.0059 0.0153281 0)
(1.00251 -0.00379588 0)
(0.992735 -0.000945226 0)
(0.997095 0.0047015 0)
(1.00096 0.000780677 0)
(0.995876 0.00353199 0)
(1.00078 0.0100505 0)
(1.00451 0.00465611 0)
(1.00398 0.00511875 0)
(1.00679 -0.000321972 0)
(1.00064 -0.000300154 0)
(0.994949 0.00280236 0)
(0.99531 0.0021903 0)
(0.994208 0.0111375 0)
(0.995725 0.0134094 0)
(0.998083 0.0120786 0)
(1.00018 0.0150771 0)
(1.0022 0.0143393 0)
(1.00446 0.0135653 0)
(1.00395 0.0142991 0)
(1.00568 0.0151367 0)
(1.00234 -0.00362418 0)
(0.993205 -0.000909135 0)
(0.997103 0.00453227 0)
(1.00107 0.000819929 0)
(0.996118 0.00357837 0)
(1.00078 0.00959184 0)
(1.00435 0.0045372 0)
(1.00387 0.00514123 0)
(1.00649 -2.56405e-05 0)
(1.00056 -0.000115823 0)
(0.994843 0.00328956 0)
(0.995781 0.00259537 0)
(0.994932 0.0105207 0)
(0.99612 0.0134259 0)
(0.998314 0.0118457 0)
(1.00068 0.0144178 0)
(1.00223 0.0143488 0)
(1.00456 0.0134995 0)
(1.00423 0.0136775 0)
(1.00558 0.0147831 0)
(1.00221 -0.00345573 0)
(0.993615 -0.000868366 0)
(0.997137 0.00435967 0)
(1.00114 0.000860776 0)
(0.996407 0.00360971 0)
(1.00077 0.00915062 0)
(1.00419 0.00442449 0)
(1.00367 0.00514298 0)
(1.00622 0.000297715 0)
(1.00059 6.28758e-05 0)
(0.994813 0.00372691 0)
(0.996217 0.00302096 0)
(0.99564 0.00989647 0)
(0.996468 0.0133715 0)
(0.998466 0.0117247 0)
(1.00112 0.0137361 0)
(1.00229 0.0142492 0)
(1.00456 0.0135258 0)
(1.00447 0.0131613 0)
(1.0056 0.0142805 0)
(1.0021 -0.00328954 0)
(0.993978 -0.000824688 0)
(0.99719 0.00418812 0)
(1.00117 0.000900425 0)
(0.996718 0.00362811 0)
(1.00074 0.008727 0)
(1.00403 0.00431708 0)
(1.00343 0.00512713 0)
(1.00594 0.000640193 0)
(1.00071 0.00024277 0)
(0.99486 0.0041137 0)
(0.996609 0.00346553 0)
(0.996342 0.00928868 0)
(0.996787 0.0132295 0)
(0.998545 0.0116997 0)
(1.00149 0.0130754 0)
(1.0024 0.014021 0)
(1.00449 0.0135958 0)
(1.00463 0.0127985 0)
(1.0057 0.0136984 0)
(1.00202 -0.00312592 0)
(0.994308 -0.000777722 0)
(0.997252 0.00402001 0)
(1.00118 0.000934338 0)
(0.99703 0.0036395 0)
(1.0007 0.00831294 0)
(1.00387 0.00422438 0)
(1.00318 0.00509643 0)
(1.00566 0.000994934 0)
(1.00088 0.000431366 0)
(0.994978 0.00444325 0)
(0.996949 0.0039243 0)
(0.997043 0.00872143 0)
(0.997101 0.0129972 0)
(0.998564 0.0117482 0)
(1.00179 0.0124763 0)
(1.00255 0.0136767 0)
(1.00438 0.0136456 0)
(1.00468 0.0125737 0)
(1.00581 0.0131387 0)
(1.00195 -0.00296499 0)
(0.994619 -0.000725633 0)
(0.997318 0.00385015 0)
(1.00118 0.000963957 0)
(0.997331 0.00363849 0)
(1.00066 0.00791077 0)
(1.0037 0.00414855 0)
(1.00294 0.0050554 0)
(1.00536 0.00134414 0)
(1.00108 0.000626705 0)
(0.995159 0.00471959 0)
(0.997238 0.00439831 0)
(0.997734 0.00820626 0)
(0.997439 0.0126719 0)
(0.998541 0.011846 0)
(1.00202 0.0119696 0)
(1.00276 0.0132322 0)
(1.00427 0.0136431 0)
(1.00464 0.0124509 0)
(1.00589 0.0126778 0)
(1.00188 -0.00280669 0)
(0.994918 -0.00067493 0)
(0.997386 0.00369197 0)
(1.00118 0.000981424 0)
(0.997617 0.00363661 0)
(1.00062 0.00751873 0)
(1.00353 0.00406936 0)
(1.00271 0.00501248 0)
(1.00506 0.00169465 0)
(1.0013 0.000822374 0)
(0.995393 0.00494135 0)
(0.997475 0.00487603 0)
(0.9984 0.00776562 0)
(0.997825 0.0122633 0)
(0.998499 0.0119602 0)
(1.00218 0.0115698 0)
(1.00301 0.0126918 0)
(1.0042 0.0135757 0)
(1.00452 0.0123959 0)
(1.0059 0.0123271 0)
(1.00181 -0.00265027 0)
(0.99521 -0.000624654 0)
(0.997453 0.00353767 0)
(1.00118 0.000991148 0)
(0.997886 0.00362973 0)
(1.00057 0.00714457 0)
(1.00337 0.00399586 0)
(1.00252 0.00496613 0)
(1.00475 0.00202884 0)
(1.00152 0.00102633 0)
(0.995673 0.00511579 0)
(0.99767 0.00533615 0)
(0.999024 0.00740497 0)
(0.99827 0.0117786 0)
(0.998461 0.012061 0)
(1.00225 0.0113158 0)
(1.00331 0.0120855 0)
(1.0042 0.0134067 0)
(1.00436 0.0123752 0)
(1.00584 0.0120535 0)
(1.00175 -0.00249724 0)
(0.995493 -0.000573156 0)
(0.997518 0.00339214 0)
(1.00118 0.000985347 0)
(0.998142 0.00361786 0)
(1.00051 0.00678724 0)
(1.0032 0.00391737 0)
(1.00234 0.00493931 0)
(1.00445 0.00235097 0)
(1.00173 0.00122437 0)
(0.995993 0.00524119 0)
(0.99783 0.00578982 0)
(0.999589 0.00713049 0)
(0.998777 0.0112356 0)
(0.998459 0.0120897 0)
(1.00224 0.0111946 0)
(1.00361 0.0114879 0)
(1.00429 0.0131113 0)
(1.00418 0.0123798 0)
(1.00571 0.0118488 0)
(1.00168 -0.00234599 0)
(0.995771 -0.00052946 0)
(0.997581 0.00326032 0)
(1.00119 0.000972065 0)
(0.998384 0.00359486 0)
(1.00045 0.00647031 0)
(1.00304 0.00381778 0)
(1.00218 0.0049086 0)
(1.00414 0.0026713 0)
(1.00193 0.00143257 0)
(0.996354 0.00530249 0)
(0.997968 0.00621477 0)
(1.00008 0.00695468 0)
(0.999327 0.01067 0)
(0.998514 0.0120335 0)
(1.00216 0.0111688 0)
(1.0039 0.0109703 0)
(1.00447 0.0126793 0)
(1.00402 0.0123688 0)
(1.00549 0.0117328 0)
(1.00161 -0.00219633 0)
(0.996042 -0.000489657 0)
(0.997639 0.00314112 0)
(1.00119 0.000943498 0)
(0.998616 0.00355216 0)
(1.00038 0.0061869 0)
(1.00288 0.00370996 0)
(1.00204 0.00487993 0)
(1.00384 0.00297696 0)
(1.00212 0.00162828 0)
(0.996748 0.00534109 0)
(0.998098 0.0065829 0)
(1.0005 0.00686033 0)
(0.99991 0.0100853 0)
(0.998644 0.0118674 0)
(1.00204 0.0112186 0)
(1.00413 0.0105782 0)
(1.00474 0.0121607 0)
(1.00394 0.0122698 0)
(1.00521 0.0117238 0)
(1.00154 -0.00204873 0)
(0.996307 -0.000458384 0)
(0.997691 0.00303219 0)
(1.0012 0.000916804 0)
(0.99884 0.00349128 0)
(1.00031 0.00594806 0)
(1.00273 0.00358156 0)
(1.00193 0.00482889 0)
(1.00353 0.00329382 0)
(1.00229 0.00184007 0)
(0.99718 0.00530652 0)
(0.998225 0.00692571 0)
(1.00083 0.00683824 0)
(1.0005 0.00953008 0)
(0.998863 0.0115827 0)
(1.00189 0.0112559 0)
(1.00429 0.0103251 0)
(1.00507 0.0115992 0)
(1.00396 0.0120623 0)
(1.0049 0.0117782 0)
(1.00147 -0.00190191 0)
(0.996565 -0.000435461 0)
(0.997739 0.00294115 0)
(1.0012 0.00088461 0)
(0.999058 0.00340176 0)
(1.00022 0.00576067 0)
(1.00257 0.00344713 0)
(1.00184 0.00476311 0)
(1.00323 0.00359886 0)
(1.00243 0.00206967 0)
(0.997641 0.00523902 0)
(0.998371 0.0071908 0)
(1.00109 0.00689499 0)
(1.00108 0.00900724 0)
(0.99916 0.0112009 0)
(1.00176 0.0112484 0)
(1.00437 0.0101333 0)
(1.0054 0.0110485 0)
(1.0041 0.0116746 0)
(1.00461 0.011788 0)
(1.0014 -0.00175547 0)
(0.996819 -0.000419924 0)
(0.99778 0.00285704 0)
(1.0012 0.000857102 0)
(0.999274 0.00327827 0)
(1.00013 0.00561431 0)
(1.00242 0.0033236 0)
(1.00178 0.00465897 0)
(1.00294 0.00391133 0)
(1.00254 0.00231686 0)
(0.998124 0.00513322 0)
(0.998538 0.00737658 0)
(1.00126 0.00699928 0)
(1.00162 0.00855506 0)
(0.999542 0.0107276 0)
(1.00166 0.011176 0)
(1.00437 0.00995435 0)
(1.00571 0.0104566 0)
(1.00436 0.0111437 0)
(1.00444 0.0115832 0)
(1.00133 -0.00160998 0)
(0.997066 -0.00041686 0)
(0.997817 0.00278684 0)
(1.00119 0.000842064 0)
(0.999489 0.00311982 0)
(1.00003 0.00550326 0)
(1.00224 0.00322939 0)
(1.00176 0.00451225 0)
(1.00267 0.00419338 0)
(1.0026 0.00260662 0)
(0.998619 0.00497972 0)
(0.998747 0.00748356 0)
(1.00139 0.00713606 0)
(1.0021 0.00818889 0)
(0.999977 0.010192 0)
(1.00161 0.0110287 0)
(1.00427 0.0098239 0)
(1.00596 0.00990567 0)
(1.00469 0.0106139 0)
(1.00442 0.0112222 0)
(1.00125 -0.0014646 0)
(0.997311 -0.000421712 0)
(0.997848 0.0027259 0)
(1.00117 0.000829978 0)
(0.999705 0.00293466 0)
(0.999931 0.00540198 0)
(1.00206 0.00318679 0)
(1.00175 0.00432649 0)
(1.00242 0.00442999 0)
(1.00263 0.00292572 0)
(0.999113 0.00483039 0)
(0.998998 0.00748152 0)
(1.00146 0.00728887 0)
(1.0025 0.00789758 0)
(1.00046 0.00964964 0)
(1.00162 0.0108022 0)
(1.00411 0.00975502 0)
(1.00614 0.00956357 0)
(1.00505 0.0101209 0)
(1.00453 0.0109109 0)
(1.00118 -0.00132029 0)
(0.997548 -0.000433653 0)
(0.997878 0.00265821 0)
(1.00114 0.000847485 0)
(0.999921 0.00271516 0)
(0.999842 0.00530208 0)
(1.00185 0.00320909 0)
(1.00177 0.00409488 0)
(1.00221 0.00461978 0)
(1.0026 0.00328031 0)
(0.99958 0.00469023 0)
(0.999297 0.00738841 0)
(1.00151 0.0074005 0)
(1.00283 0.00772929 0)
(1.00096 0.00914087 0)
(1.00171 0.0104793 0)
(1.00394 0.00975114 0)
(1.00623 0.00936986 0)
(1.00543 0.0096507 0)
(1.00475 0.0106176 0)
(1.0011 -0.0011768 0)
(0.997782 -0.000451605 0)
(0.997907 0.00259725 0)
(1.00108 0.000875982 0)
(1.00013 0.00247092 0)
(0.999771 0.00518664 0)
(1.00162 0.00329354 0)
(1.0018 0.00387824 0)
(1.00205 0.00471238 0)
(1.00254 0.00365658 0)
(1.00001 0.0046075 0)
(0.999632 0.00721047 0)
(1.00155 0.00745449 0)
(1.00307 0.00762339 0)
(1.00144 0.00870625 0)
(1.0019 0.0101239 0)
(1.00381 0.00971451 0)
(1.00622 0.0092608 0)
(1.00578 0.0092204 0)
(1.00505 0.0102358 0)
(1.00102 -0.00103347 0)
(0.99801 -0.000475775 0)
(0.997939 0.0025264 0)
(1.00101 0.00093009 0)
(1.00035 0.00221992 0)
(0.999724 0.00504187 0)
(1.00137 0.00343407 0)
(1.00182 0.00368436 0)
(1.00194 0.00472588 0)
(1.00246 0.00402592 0)
(1.00038 0.00457013 0)
(0.999993 0.00698718 0)
(1.00161 0.00744607 0)
(1.00326 0.00755807 0)
(1.00189 0.00835695 0)
(1.00215 0.00976052 0)
(1.00371 0.00958181 0)
(1.00613 0.00919923 0)
(1.00606 0.00889845 0)
(1.00541 0.00975315 0)
(1.00094 -0.00089325 0)
(0.998233 -0.000503114 0)
(0.997977 0.002453 0)
(1.00092 0.00101022 0)
(1.00055 0.00196253 0)
(0.999711 0.00484602 0)
(1.00111 0.00361511 0)
(1.00182 0.00356103 0)
(1.00188 0.00465024 0)
(1.00237 0.00434654 0)
(1.00068 0.00461344 0)
(1.00036 0.00676232 0)
(1.0017 0.00737188 0)
(1.00339 0.007496 0)
(1.0023 0.00804896 0)
(1.00243 0.00940399 0)
(1.00367 0.00939613 0)
(1.006 0.0091171 0)
(1.00621 0.0086657 0)
(1.00575 0.00925389 0)
(1.00087 -0.000754507 0)
(0.998449 -0.000531637 0)
(0.998026 0.00236553 0)
(1.00082 0.00111057 0)
(1.00074 0.00172084 0)
(0.99974 0.00461493 0)
(1.00084 0.00380074 0)
(1.0018 0.0034989 0)
(1.00186 0.00451973 0)
(1.00229 0.0046143 0)
(1.00092 0.0047209 0)
(1.00072 0.00655747 0)
(1.00181 0.00723437 0)
(1.00349 0.00742232 0)
(1.00266 0.00780804 0)
(1.00273 0.0090655 0)
(1.00367 0.00915059 0)
(1.00586 0.00894954 0)
(1.00627 0.00846966 0)
(1.00603 0.00887421 0)
(1.00079 -0.000620476 0)
(0.998658 -0.000558196 0)
(0.99809 0.00226768 0)
(1.00069 0.00122937 0)
(1.00091 0.00150452 0)
(0.99981 0.00433405 0)
(1.00058 0.00397317 0)
(1.00173 0.00352599 0)
(1.00188 0.00436997 0)
(1.00224 0.00478857 0)
(1.00111 0.00485924 0)
(1.00104 0.00639629 0)
(1.00194 0.0070687 0)
(1.00359 0.00733959 0)
(1.00298 0.00759747 0)
(1.00303 0.00871275 0)
(1.0037 0.00886882 0)
(1.00573 0.00876289 0)
(1.00629 0.00827622 0)
(1.00621 0.00861371 0)
(1.00071 -0.000492819 0)
(0.998858 -0.000573974 0)
(0.998172 0.00215038 0)
(1.00055 0.00136354 0)
(1.00105 0.00132408 0)
(0.999927 0.00400817 0)
(1.00035 0.00411293 0)
(1.00163 0.00362281 0)
(1.00191 0.00422818 0)
(1.00223 0.00488588 0)
(1.00127 0.0049984 0)
(1.00133 0.00627745 0)
(1.00209 0.00689179 0)
(1.00367 0.00722373 0)
(1.00326 0.00738361 0)
(1.00332 0.00837422 0)
(1.00376 0.00858751 0)
(1.0056 0.00858319 0)
(1.00629 0.00802948 0)
(1.00632 0.00834871 0)
(1.00064 -0.000374933 0)
(0.999048 -0.00057542 0)
(0.998275 0.00201343 0)
(1.00041 0.00150189 0)
(1.00116 0.00119485 0)
(1.00008 0.00364927 0)
(1.00016 0.00418406 0)
(1.00149 0.00377098 0)
(1.00194 0.00412811 0)
(1.00226 0.00491634 0)
(1.0014 0.00510833 0)
(1.00157 0.00618684 0)
(1.00223 0.00671547 0)
(1.00375 0.00709119 0)
(1.00351 0.00717227 0)
(1.0036 0.00804729 0)
(1.00385 0.00826817 0)
(1.00545 0.00838485 0)
(1.00625 0.00778646 0)
(1.00643 0.00804386 0)
(1.00057 -0.000268782 0)
(0.999224 -0.000558677 0)
(0.998399 0.00185552 0)
(1.00027 0.00163579 0)
(1.00124 0.00112295 0)
(1.00027 0.00327962 0)
(1.00004 0.00418236 0)
(1.00134 0.003944 0)
(1.00195 0.00407221 0)
(1.00231 0.00488946 0)
(1.00152 0.00517497 0)
(1.00178 0.00612496 0)
(1.00236 0.00654264 0)
(1.00382 0.00694208 0)
(1.00371 0.00696358 0)
(1.00385 0.00772634 0)
(1.00398 0.0079234 0)
(1.00533 0.00816647 0)
(1.00616 0.00761152 0)
(1.00653 0.00771161 0)
(1.00051 -0.000176955 0)
(0.999385 -0.000519867 0)
(0.998544 0.00168022 0)
(1.00013 0.00175528 0)
(1.00127 0.00111373 0)
(1.00048 0.00291384 0)
(0.999982 0.0040985 0)
(1.00118 0.00411718 0)
(1.00194 0.00406592 0)
(1.00239 0.00483712 0)
(1.00166 0.00519607 0)
(1.00195 0.00607195 0)
(1.00248 0.00638076 0)
(1.00388 0.00677353 0)
(1.00388 0.00675388 0)
(1.00408 0.00743508 0)
(1.00413 0.00758695 0)
(1.00526 0.00789459 0)
(1.00602 0.00746641 0)
(1.00658 0.00740253 0)
(1.00045 -0.000100305 0)
(0.999528 -0.000458707 0)
(0.998708 0.0014982 0)
(1.00001 0.00184505 0)
(1.00126 0.00116605 0)
(1.00069 0.00257984 0)
(1 0.00393581 0)
(1.00104 0.00425353 0)
(1.0019 0.00409568 0)
(1.00246 0.00477429 0)
(1.0018 0.00516653 0)
(1.0021 0.00600685 0)
(1.00258 0.00623425 0)
(1.00392 0.00660549 0)
(1.00404 0.00654014 0)
(1.00428 0.00715663 0)
(1.00428 0.00727925 0)
(1.00525 0.00757722 0)
(1.00587 0.00729685 0)
(1.00657 0.00717263 0)
(1.0004 -3.95575e-05 0)
(0.99965 -0.000378638 0)
(0.998884 0.00132338 0)
(0.999924 0.00189713 0)
(1.00121 0.00126713 0)
(1.00089 0.00230027 0)
(1.00009 0.00371755 0)
(1.00093 0.00433248 0)
(1.00183 0.00414245 0)
(1.00253 0.00470709 0)
(1.00194 0.00509418 0)
(1.00224 0.00592392 0)
(1.00266 0.00609215 0)
(1.00395 0.00644524 0)
(1.00416 0.00632629 0)
(1.00447 0.00686479 0)
(1.00441 0.00699639 0)
(1.00526 0.00726896 0)
(1.00576 0.00706991 0)
(1.00648 0.00699197 0)
(1.00035 6.67716e-06 0)
(0.999753 -0.000282788 0)
(0.999068 0.00116516 0)
(0.999865 0.00190939 0)
(1.00113 0.00138831 0)
(1.00106 0.00210254 0)
(1.00023 0.00346659 0)
(1.00087 0.00434247 0)
(1.00175 0.00419168 0)
(1.00258 0.00464287 0)
(1.0021 0.00498259 0)
(1.00238 0.00581593 0)
(1.00273 0.00594806 0)
(1.00396 0.00628338 0)
(1.00425 0.00613361 0)
(1.00464 0.00656855 0)
(1.00455 0.00670235 0)
(1.00528 0.00699125 0)
(1.00568 0.00680247 0)
(1.00637 0.00680188 0)
(1.00031 3.96481e-05 0)
(0.999835 -0.00017534 0)
(0.999253 0.00102646 0)
(0.99984 0.00188667 0)
(1.00104 0.00150725 0)
(1.00119 0.00199657 0)
(1.00041 0.00320789 0)
(1.00086 0.00427464 0)
(1.00166 0.00422016 0)
(1.00261 0.00459014 0)
(1.00225 0.00484486 0)
(1.00252 0.00567317 0)
(1.00279 0.00580236 0)
(1.00396 0.00611217 0)
(1.0043 0.00595396 0)
(1.00477 0.00630327 0)
(1.00469 0.00638106 0)
(1.0053 0.00671521 0)
(1.00562 0.00653934 0)
(1.00626 0.00657398 0)
(1.00027 6.01841e-05 0)
(0.999898 -6.30514e-05 0)
(0.999431 0.000913236 0)
(0.999846 0.0018351 0)
(1.00095 0.00160867 0)
(1.00128 0.00195731 0)
(1.0006 0.0029746 0)
(1.0009 0.00414339 0)
(1.00158 0.00421384 0)
(1.0026 0.00454471 0)
(1.00239 0.00470049 0)
(1.00268 0.00549508 0)
(1.00286 0.00564322 0)
(1.00395 0.00594191 0)
(1.00433 0.0057601 0)
(1.00486 0.00607348 0)
(1.00483 0.00607019 0)
(1.00536 0.00640295 0)
(1.00557 0.00629483 0)
(1.00616 0.00632345 0)
(1.00024 7.11265e-05 0)
(0.999945 5.00918e-05 0)
(0.999598 0.000826031 0)
(0.99988 0.00176211 0)
(1.00086 0.00168569 0)
(1.00134 0.00195592 0)
(1.00078 0.00278168 0)
(1.00099 0.0039689 0)
(1.00153 0.00416769 0)
(1.00258 0.0044969 0)
(1.0025 0.00456074 0)
(1.00283 0.00529594 0)
(1.00293 0.00545426 0)
(1.00393 0.00577792 0)
(1.00434 0.00555891 0)
(1.00492 0.00583808 0)
(1.00492 0.00580545 0)
(1.00543 0.00606849 0)
(1.00554 0.00603868 0)
(1.00606 0.00608276 0)
(1.00022 7.46523e-05 0)
(0.999977 0.000156244 0)
(0.999748 0.000768047 0)
(0.999937 0.00167381 0)
(1.00079 0.00173343 0)
(1.00137 0.00197184 0)
(1.00095 0.00262943 0)
(1.00111 0.00377608 0)
(1.00151 0.004077 0)
(1.00254 0.00444042 0)
(1.00259 0.00442899 0)
(1.00298 0.0050872 0)
(1.00302 0.00523571 0)
(1.00391 0.0055989 0)
(1.00432 0.0053799 0)
(1.00497 0.00558359 0)
(1.00499 0.00556516 0)
(1.0055 0.00575967 0)
(1.00556 0.00573793 0)
(1.00596 0.00585198 0)