/*--------------------------------*- C++ -*----------------------------------*\
| =========                 |                                                 |
| \\      /  F ield         | OpenFOAM: The Open Source CFD Toolbox           |
|  \\    /   O peration     | Version:  v1912                                 |
|   \\  /    A nd           | Website:  www.openfoam.com                      |
|    \\/     M anipulation  |                                                 |
\*---------------------------------------------------------------------------*/
FoamFile
{
    version     2.0;
    format      ascii;
    class       volScalarField;
    location    "5";
    object      p;
}
// * * * * * * * * * * * * * * * * * * * * * * * * * * * * * * * * * * * * * //

dimensions      [0 2 -2 0 0 0 0];


internalField   nonuniform List<scalar> 
9600
(
9.3138e-11
0.0017756
-0.00375125
0.00276004
0.00465177
0.00494136
0.0088226
0.00928263
0.00438819
0.00754905
0.0085374
0.00737916
0.00550908
0.00679864
0.00788125
0.011375
0.0127619
0.0142564
0.015617
0.0195468
-6.29429e-06
0.0017775
-0.00374128
0.00276747
0.00463987
0.0049508
0.00882609
0.00928183
0.00439857
0.00751623
0.00854067
0.00740355
0.00552271
0.00675562
0.00784769
0.0113166
0.0127502
0.0142154
0.0156341
0.0191147
-1.23482e-05
0.00178088
-0.00373314
0.00276715
0.00461873
0.00498622
0.00883309
0.00928326
0.00441613
0.00747762
0.00855067
0.00742724
0.00553216
0.0067023
0.00781128
0.0112465
0.012739
0.0141704
0.0156225
0.0186665
-1.87709e-05
0.00178394
-0.00371498
0.00276615
0.00459708
0.00504546
0.00884036
0.00928409
0.00445338
0.00744228
0.00855541
0.00744819
0.00555083
0.00662347
0.00776963
0.0111698
0.0127273
0.0141195
0.0155843
0.0182564
-2.66236e-05
0.00178746
-0.00367925
0.00277027
0.0045753
0.005121
0.00884726
0.00928333
0.00451128
0.00741265
0.00855258
0.00746756
0.00558023
0.00651819
0.00772532
0.0110848
0.0127126
0.01406
0.0155315
0.01788
-3.58281e-05
0.00179207
-0.00362134
0.00277807
0.0045517
0.00520597
0.00885264
0.00927892
0.00458702
0.00739038
0.00854288
0.00748536
0.00562198
0.00643879
0.00768077
0.010993
0.0126959
0.0139953
0.0154655
0.0175236
-4.58591e-05
0.00179831
-0.00354213
0.0027867
0.00452615
0.00529436
0.00885519
0.00926972
0.0046754
0.0073733
0.0085286
0.00750199
0.00567777
0.00637437
0.00764073
0.0108992
0.0126773
0.0139271
0.0153829
0.0171835
-5.88832e-05
0.00180673
-0.00344476
0.00279474
0.00449885
0.00538095
0.00885256
0.00925509
0.0047723
0.00735839
0.00851133
0.00751719
0.00574889
0.00632901
0.00761066
0.0108071
0.0126548
0.0138545
0.0152808
0.0168584
-6.83305e-05
0.00181812
-0.00333167
0.00280105
0.00446959
0.00546163
0.00884175
0.00923484
0.00487507
0.00734349
0.00849156
0.00753003
0.00583545
0.00630624
0.00759474
0.0107197
0.0126261
0.0137766
0.0151579
0.0165464
-7.69708e-05
0.00183356
-0.00320384
0.00280523
0.00443901
0.00553373
0.00881981
0.00920888
0.0049821
0.00732776
0.00846974
0.00753949
0.00593586
0.00630733
0.00759524
0.0106401
0.0125901
0.0136924
0.0150143
0.0162445
-8.4769e-05
0.0018542
-0.00306155
0.00280806
0.00440913
0.00559611
0.00878475
0.0091772
0.00509211
0.00731123
0.00844666
0.00754488
0.00604728
0.00633144
0.00761239
0.0105709
0.0125463
0.0136019
0.0148516
0.0159497
-9.16353e-05
0.00188092
-0.0029052
0.0028114
0.00438247
0.00564906
0.00873628
0.00913992
0.00520396
0.00729419
0.00842334
0.00754632
0.0061664
0.00637603
0.00764431
0.0105139
0.0124956
0.0135056
0.0146722
0.0156596
-9.76698e-05
0.00191383
-0.00273598
0.00281681
0.0043608
0.00569379
0.00867598
0.00909734
0.00531658
0.00727692
0.00840081
0.00754474
0.00628995
0.00643757
0.00768787
0.0104696
0.0124389
0.0134035
0.0144799
0.0153729
-0.000102836
0.00195226
-0.00255596
0.00282532
0.00434448
0.00573166
0.00860677
0.00904988
0.00542913
0.00725961
0.00837996
0.00754146
0.006415
0.00651263
0.00773946
0.0104373
0.0123774
0.0132958
0.0142787
0.0150888
-0.000106829
0.00199512
-0.00236759
0.00283684
0.00433269
0.00576369
0.00853202
0.00899798
0.00554112
0.00724241
0.00836146
0.0075378
0.00653908
0.00659838
0.00779551
0.0104152
0.0123124
0.0131819
0.0140722
0.0148074
-0.000109398
0.00204127
-0.00217293
0.00285099
0.0043242
0.00579054
0.00845482
0.00894207
0.00565226
0.00722551
0.0083456
0.00753484
0.0066602
0.00669262
0.00785306
0.0104006
0.0122449
0.0130609
0.0138631
0.0145292
-0.000110291
0.00208972
-0.00197343
0.00286739
0.00431802
0.00581258
0.00837758
0.00888259
0.00576232
0.00720914
0.00833235
0.00753341
0.00677671
0.00679361
0.00790981
0.0103906
0.0121759
0.012932
0.0136524
0.0142552
-0.000109252
0.00213965
-0.00177005
0.00288595
0.00431363
0.00582994
0.00830194
0.00882005
0.00587105
0.0071935
0.00832147
0.00753433
0.00688733
0.00689985
0.00796414
0.0103817
0.0121061
0.0127949
0.0134404
0.0139864
-0.000106032
0.00219046
-0.00156338
0.00290677
0.00431086
0.00584249
0.00822894
0.00875492
0.0059781
0.00717883
0.0083125
0.00753844
0.00699121
0.00700999
0.00801503
0.010371
0.0120357
0.0126502
0.0132267
0.0137237
-0.00010038
0.00224166
-0.00135368
0.00292996
0.00430971
0.00585013
0.00815925
0.00868772
0.00608296
0.0071654
0.00830485
0.00754641
0.00708777
0.0071227
0.00806245
0.010356
0.0119647
0.0124993
0.0130106
0.0134681
-9.20033e-05
0.0022928
-0.00114115
0.00295562
0.00431039
0.0058527
0.00809324
0.00861904
0.006185
0.0071535
0.008298
0.00755883
0.00717664
0.00723652
0.00810722
0.0103349
0.0118925
0.0123438
0.0127917
0.0132205
-8.05796e-05
0.00234348
-0.000926046
0.00298383
0.00431316
0.00585005
0.00803099
0.00854949
0.0062835
0.00714357
0.00829143
0.00757626
0.00725776
0.00734983
0.00814902
0.0103063
0.0118187
0.0121861
0.0125698
0.0129808
-6.57629e-05
0.00239336
-0.000708597
0.00301448
0.00431816
0.00584208
0.00797241
0.00847976
0.00637775
0.00713607
0.00828461
0.00759904
0.00733149
0.00746101
0.00819104
0.0102695
0.0117423
0.0120283
0.0123452
0.0127487
-4.72093e-05
0.00244215
-0.000489006
0.00304746
0.00432557
0.00582872
0.00791711
0.0084107
0.00646698
0.00713133
0.00827723
0.00762718
0.00739833
0.00756844
0.00823404
0.0102246
0.0116624
0.0118717
0.0121181
0.0125239
-2.45708e-05
0.00248959
-0.000267454
0.00308259
0.00433555
0.00581004
0.00786457
0.0083432
0.00655056
0.00712956
0.0082691
0.00766058
0.00745895
0.00767057
0.0082771
0.010172
0.0115784
0.0117183
0.0118883
0.0123049
2.53762e-06
0.00253541
-4.4066e-05
0.00311966
0.00434827
0.00578626
0.00781413
0.0082782
0.00662801
0.0071308
0.00826005
0.00769885
0.00751401
0.00776594
0.00832065
0.0101123
0.0114895
0.0115704
0.0116569
0.0120875
3.45426e-05
0.00257937
0.000181031
0.00315856
0.0043638
0.00575781
0.00776504
0.00821665
0.0066989
0.007135
0.00825015
0.00774128
0.00756417
0.00785318
0.00836488
0.0100464
0.0113942
0.0114306
0.0114274
0.0118658
7.18657e-05
0.00262122
0.000407699
0.00319923
0.00438219
0.00572526
0.00771632
0.00815941
0.00676302
0.00714179
0.00823977
0.00778701
0.00761036
0.0079314
0.00840953
0.00997575
0.0112911
0.0112989
0.0112049
0.011636
0.0001149
0.00266082
0.000635781
0.00324166
0.0044034
0.00568942
0.00766701
0.00810704
0.00682046
0.00715061
0.00822938
0.00783516
0.00765318
0.00799981
0.00845427
0.00990278
0.0111796
0.0111735
0.0109937
0.0113985
0.000164078
0.00269802
0.000865043
0.0032859
0.00442722
0.00565131
0.00761614
0.00805993
0.00687151
0.00716062
0.00821935
0.00788513
0.00769311
0.00805769
0.0084982
0.00982986
0.0110611
0.0110523
0.0107963
0.0111565
0.000219874
0.00273274
0.0010952
0.00333211
0.00445323
0.00561209
0.00756274
0.00801831
0.00691688
0.00717076
0.00820996
0.00793626
0.00773061
0.00810506
0.00854029
0.00975786
0.0109365
0.0109347
0.010614
0.0109139
0.000282732
0.00276483
0.00132574
0.00338068
0.00448102
0.00557299
0.00750605
0.00798208
0.00695752
0.00718002
0.00820153
0.00798803
0.00776534
0.0081418
0.00858053
0.00968781
0.010806
0.0108202
0.0104492
0.0106742
0.000353051
0.00279419
0.00155587
0.0034322
0.00451017
0.00553521
0.00744571
0.00795091
0.00699464
0.00718693
0.00819407
0.00804095
0.00779704
0.00816692
0.00861875
0.00962208
0.0106695
0.0107063
0.0103048
0.0104447
0.000431225
0.00282077
0.00178463
0.0034874
0.00454017
0.00549979
0.00738147
0.00792422
0.00703011
0.00719008
0.00818641
0.00809563
0.00782633
0.00817959
0.00865367
0.00956416
0.010529
0.0105878
0.0101793
0.0102344
0.000517643
0.00284461
0.00201089
0.00354714
0.0045705
0.00546768
0.00731351
0.00790089
0.00706578
0.0071892
0.00817707
0.008152
0.00785409
0.00817935
0.00868279
0.00951661
0.0103898
0.0104616
0.0100665
0.0100503
0.000612653
0.00286585
0.00223329
0.00361233
0.0046007
0.00546075
0.00724256
0.00787996
0.00710282
0.0071842
0.00816429
0.00821028
0.00788191
0.00816566
0.00870322
0.00947956
0.0102563
0.0103281
0.00995943
0.00989581
0.000716556
0.0028848
0.00245039
0.00368385
0.00463052
0.00543716
0.00716883
0.0078605
0.00714269
0.00717552
0.00814552
0.00826994
0.00791194
0.00813831
0.00871243
0.00945325
0.0101327
0.0101885
0.00985088
0.00976784
0.000829567
0.00290187
0.00266079
0.00376249
0.00466
0.00541831
0.00709302
0.00784073
0.00718637
0.00716501
0.00811817
0.00832902
0.00794716
0.00809836
0.00870528
0.00943791
0.0100257
0.0100464
0.00973492
0.00965822
0.000951863
0.00291782
0.00286299
0.00384856
0.0046828
0.0054048
0.00701604
0.00781893
0.00723401
0.00715534
0.00808033
0.0083836
0.00799097
0.00804959
0.00867541
0.0094281
0.0099422
0.00990992
0.0096092
0.00955931
0.0010835
0.00293345
0.00305586
0.00394207
0.00471308
0.00539739
0.00693897
0.00779314
0.00728541
0.00714946
0.00803248
0.0084286
0.00804313
0.00799711
0.00862118
0.0094179
0.00988437
0.00978893
0.0094743
0.00946105
0.00122454
0.00294953
0.00323821
0.00404306
0.00474427
0.00539639
0.00686335
0.00776144
0.0073397
0.00714972
0.00797533
0.00846125
0.00810301
0.00794592
0.00854073
0.00939774
0.00984933
0.00969465
0.00934134
0.00935663
0.0013749
0.00296729
0.00340884
0.00415087
0.00477712
0.00540219
0.00679109
0.00772237
0.00739529
0.0071586
0.00791049
0.0084775
0.00816812
0.00790379
0.00843646
0.00935074
0.00982718
0.00963208
0.00922548
0.00925035
0.00153436
0.00298799
0.00356673
0.00426528
0.00481218
0.00541457
0.00672476
0.00767544
0.00744899
0.0071778
0.00784279
0.00847473
0.00823302
0.00787487
0.00831714
0.00927239
0.00979865
0.00959779
0.00913999
0.00915611
0.00170268
0.00301299
0.00371042
0.00438635
0.00485045
0.00543153
0.00666728
0.00762193
0.00749676
0.00720785
0.00777626
0.00845134
0.00829546
0.007865
0.00819106
0.00916266
0.00975979
0.00958672
0.00909846
0.0090541
0.00187911
0.00304428
0.00383873
0.00451353
0.00489316
0.00544984
0.00662099
0.00756434
0.00753573
0.0072472
0.00771581
0.00840891
0.00834654
0.00788249
0.00808956
0.00899339
0.00971101
0.00957671
0.00903917
0.00888373
0.00206268
0.00308369
0.00395052
0.00464607
0.00494286
0.00546558
0.00658563
0.00750838
0.00756456
0.00729203
0.00766479
0.00835165
0.0083844
0.0079247
0.00801659
0.00887985
0.00968401
0.00958851
0.0089789
0.00865141
0.0022523
0.00313317
0.00404579
0.00478174
0.00500326
0.0054769
0.00655931
0.00746009
0.0075834
0.00733901
0.00762376
0.00828213
0.00841269
0.00797975
0.00793879
0.00869979
0.00953144
0.00953588
0.00893921
0.00860986
0.00244656
0.00319406
0.00412617
0.00491731
0.00507828
0.00548365
0.00653652
0.00742277
0.00759644
0.00738388
0.00759271
0.00820716
0.00841841
0.00804609
0.00792089
0.00856845
0.00943046
0.0095237
0.00889923
0.00842111
0.00264389
0.00326766
0.00419432
0.00504778
0.00517027
0.00548907
0.00650846
0.00739578
0.00761158
0.00742629
0.00756814
0.00812612
0.00840531
0.00811207
0.00791801
0.00841331
0.00921664
0.00943833
0.00887411
0.00832863
0.00284272
0.00335508
0.00425354
0.00516831
0.00527897
0.00549896
0.00646972
0.00737634
0.00763483
0.00746765
0.00754763
0.00804268
0.0083719
0.00816229
0.00792535
0.00827272
0.00900256
0.00933577
0.00889869
0.0083285
0.00304147
0.00345695
0.0043078
0.0052745
0.0054018
0.00552161
0.00642094
0.00735414
0.00766702
0.00751393
0.00753086
0.00795409
0.00831539
0.00819985
0.00795351
0.00815939
0.0087871
0.00920518
0.00892098
0.00836328
0.00323891
0.00357349
0.00436088
0.00536388
0.00553463
0.00556431
0.00636337
0.00731845
0.00770698
0.0075709
0.00751767
0.00786095
0.0082451
0.00822421
0.00799003
0.00807858
0.00858514
0.00904344
0.00891603
0.00841854
0.00343401
0.00370425
0.00441676
0.00543579
0.00567036
0.00563041
0.00630318
0.00726278
0.0077469
0.00764132
0.00751575
0.00777005
0.00815949
0.00822814
0.0080325
0.00803399
0.00841042
0.00885934
0.00887285
0.00847848
0.00362598
0.00384832
0.00447902
0.00549036
0.00580178
0.00572098
0.00625101
0.00718517
0.00777377
0.00772503
0.00753369
0.00768506
0.00805888
0.00821297
0.00807551
0.00801649
0.00826881
0.00866758
0.00878866
0.00852579
0.00381431
0.00400385
0.00455085
0.00552994
0.00592208
0.00583255
0.00621764
0.0070886
0.00777553
0.00781678
0.00757684
0.00761563
0.00794822
0.00817341
0.00811085
0.00802108
0.00816472
0.00849382
0.00867537
0.00853704
0.0039987
0.0041687
0.00463459
0.00555792
0.0060265
0.00595977
0.0062112
0.00698153
0.00774324
0.00790359
0.00764625
0.00757206
0.00783579
0.00810848
0.00813209
0.00804315
0.00809448
0.00832782
0.00854609
0.00851029
0.00417913
0.00434014
0.00473198
0.00557944
0.00611197
0.00609424
0.00623581
0.0068774
0.00767377
0.00796889
0.00773918
0.00756375
0.00773505
0.00802188
0.00812808
0.00807371
0.00806121
0.00821224
0.00842691
0.00846736
0.00435583
0.00451496
0.00484373
0.00560082
0.00617649
0.00622569
0.00629165
0.0067913
0.00757001
0.0079964
0.00784594
0.00759451
0.00765768
0.00792368
0.00809498
0.00809945
0.00806266
0.00812745
0.00831616
0.00841857
0.00452929
0.00469018
0.00496911
0.00562817
0.00622128
0.0063441
0.00637358
0.00673663
0.00744567
0.00797599
0.00794832
0.00766381
0.00761316
0.00782754
0.00803772
0.00810305
0.00808476
0.00808155
0.00821278
0.0083667
0.00470002
0.00486337
0.00510645
0.00566523
0.00624853
0.00644464
0.006472
0.00671925
0.00732549
0.00791033
0.00802328
0.00776233
0.00760841
0.00774297
0.00796713
0.00808166
0.00810296
0.00807734
0.00812998
0.00830247
0.00486853
0.00503277
0.00525188
0.00571469
0.00626404
0.00652577
0.00657519
0.006736
0.00722823
0.00781227
0.00805465
0.00786859
0.00764516
0.00768119
0.00789176
0.00804313
0.00809947
0.00809757
0.00809321
0.00823277
0.00503507
0.00519739
0.00540061
0.00577836
0.00627578
0.00658736
0.00667454
0.00678047
0.0071631
0.00770408
0.0080423
0.00795881
0.00771555
0.00765518
0.00781853
0.00799582
0.008077
0.00811079
0.00810047
0.00817869
0.00519979
0.00535675
0.00554832
0.0058561
0.00629134
0.00663134
0.00676408
0.00684245
0.00713068
0.00760427
0.00799358
0.00801797
0.00780019
0.00766802
0.00776096
0.00794282
0.00804638
0.00810323
0.00812561
0.00816517
0.0053625
0.00551079
0.00569191
0.005946
0.00631602
0.00666135
0.00683962
0.006913
0.00712734
0.00752473
0.00792415
0.00804233
0.00788115
0.00771212
0.00773132
0.00789011
0.00801458
0.00808082
0.00814251
0.00819168
0.00552264
0.00565974
0.00582978
0.00604501
0.00635265
0.00668318
0.00689965
0.00698502
0.00714694
0.00747063
0.0078514
0.00803514
0.00794637
0.00777372
0.00773145
0.00784774
0.0079829
0.00805651
0.0081407
0.00822709
0.00567954
0.00580413
0.00596131
0.00614924
0.00640191
0.00670252
0.00694531
0.00705326
0.0071823
0.00744136
0.00778761
0.00800503
0.00798787
0.00784235
0.00775818
0.00782186
0.00795322
0.00803823
0.00812822
0.00825097
0.0058325
0.00594437
0.00608642
0.00625477
0.00646295
0.00672417
0.0069786
0.00711357
0.00722703
0.00743433
0.00773943
0.00796617
0.00800517
0.00790597
0.00780723
0.00781641
0.00792854
0.00802601
0.0081166
0.00825943
0.0059808
0.00608057
0.0062056
0.00635823
0.006533
0.00675236
0.00700367
0.0071631
0.00727478
0.00744567
0.0077087
0.00792994
0.00800605
0.00795309
0.00786957
0.00783642
0.00791232
0.00801663
0.00811231
0.00826261
0.00612369
0.00621268
0.00631943
0.00645775
0.00660847
0.00678796
0.00702521
0.00720254
0.00732118
0.00747032
0.00769459
0.00790074
0.00800195
0.00798448
0.00793019
0.00788098
0.00791336
0.00801219
0.00811462
0.00826672
0.00626057
0.00633996
0.00642815
0.00655252
0.00668641
0.00683053
0.00704562
0.00723253
0.00736347
0.00750395
0.00769652
0.00788164
0.00800042
0.00800881
0.00797761
0.00793679
0.00793597
0.00801652
0.00812569
0.00827894
0.0063906
0.00646228
0.00653203
0.00664166
0.00676334
0.00687903
0.00706802
0.00725461
0.00739853
0.00754035
0.00771062
0.00787404
0.00800567
0.00804034
0.00802289
0.00799576
0.0079801
0.00803154
0.00813791
0.00829241
0.00651327
0.00657874
0.00663138
0.00672486
0.00683632
0.00693043
0.00709336
0.00727225
0.00742709
0.00757669
0.00773261
0.00787447
0.00801062
0.0080744
0.00807578
0.00806321
0.00805573
0.00808521
0.00817205
0.00831417
0.00662783
0.00668924
0.00672601
0.00680183
0.00690333
0.00698117
0.0071193
0.00728535
0.0074482
0.00761074
0.00776768
0.0078954
0.0080218
0.00810164
0.00812162
0.00811376
0.00811821
0.00815312
0.00823884
0.00838734
0.00673366
0.00679251
0.00681649
0.00687348
0.00696374
0.00702818
0.00714358
0.0072929
0.00745777
0.00762887
0.00780017
0.00794665
0.00808312
0.00818193
0.00822831
0.00822448
0.00820977
0.0082119
0.00825545
0.00836899
0.00683001
0.00688674
0.00690081
0.00694005
0.00701853
0.00707127
0.00716626
0.00729727
0.0074575
0.00762268
0.00777734
0.00792451
0.00808257
0.00821141
0.00830848
0.00837596
0.00842319
0.00846779
0.00852799
0.00864012
0.00691792
0.00697169
0.00697724
0.00699917
0.00706549
0.00710721
0.00718514
0.00730467
0.00747696
0.00768512
0.00789187
0.00806262
0.00823457
0.00834962
0.00840703
0.00842648
0.00841784
0.00840944
0.00841645
0.0084695
0.00699844
0.00704155
0.00703731
0.00704216
0.00709342
0.00712329
0.00716413
0.0072278
0.00732563
0.00745385
0.00765592
0.00791756
0.00824503
0.00855298
0.00878836
0.00899011
0.00917377
0.009359
0.00954959
0.00971458
0.00707173
0.00712984
0.0071291
0.00712109
0.00715068
0.00716761
0.00720574
0.00729174
0.00746506
0.00768211
0.00794704
0.00818281
0.00837945
0.00854343
0.00861665
0.0086369
0.00864183
0.0086293
0.00861522
0.00862849
0.00708636
0.00710728
0.00712887
0.00714355
0.00716741
0.00717082
0.00718683
0.00725954
0.00741978
0.00759674
0.00784161
0.00811983
0.00837359
0.00863144
0.00888115
0.00911932
0.00935384
0.00957307
0.00976639
0.00990048
0.00723699
0.00729292
0.00726289
0.00719923
0.00717213
0.00713909
0.00710547
0.0071256
0.00729621
0.00757432
0.00794801
0.00833857
0.00861671
0.00880554
0.00896321
0.00909847
0.00922415
0.00935619
0.00948979
0.00958284
0.0231073
0.0175701
0.00967455
0.00396343
0.00253701
0.00376016
0.00506545
0.00576004
0.00622848
0.00665381
0.00699549
0.00726202
0.00746161
0.00766815
0.00802371
0.00855707
0.00902681
0.00924364
0.00943415
0.00979303
0.0100859
0.0101963
0.0103185
0.0105607
0.0108898
0.0112159
0.0114774
0.0117497
0.0121011
0.0124205
0.0126717
0.0129809
0.0133471
0.0136998
0.0140713
0.0144855
0.0148674
0.0151956
0.0155393
0.0158857
0.016209
0.0165591
0.0169087
0.0172492
0.0176313
0.0180614
0.018484
0.0188455
0.0192328
0.0196952
0.0201216
0.0205516
0.0210485
0.0215737
0.0220267
0.0223585
0.0226175
0.0229183
0.0234402
0.024106
0.0246843
0.0252366
0.025832
0.0263402
0.0268066
0.0272512
0.0277617
0.0283761
0.028979
0.029538
0.030166
0.0307859
0.0313632
0.0319629
0.0326148
0.033293
0.03394
0.0346221
0.0353327
0.0360741
0.0368017
0.0375392
0.0382689
0.0390625
0.0398887
0.0407237
0.0415647
0.0423668
0.0432069
0.0440825
0.0449517
0.0458808
0.0467533
0.0476743
0.0486136
0.0494894
0.0503765
0.0512202
0.0520066
0.0526869
0.0223834
0.0174385
0.00975868
0.00411425
0.00263714
0.00381103
0.00509868
0.00578289
0.00624433
0.00666575
0.00700534
0.00727068
0.00746911
0.0076743
0.00802879
0.00856181
0.00903156
0.00924782
0.00943749
0.00979622
0.0100892
0.0101992
0.0103208
0.0105627
0.0108916
0.0112176
0.0114791
0.0117511
0.0121024
0.0124218
0.0126728
0.0129818
0.0133481
0.0137007
0.0140721
0.0144863
0.0148682
0.0151963
0.01554
0.0158864
0.0162097
0.0165597
0.0169094
0.0172499
0.017632
0.018062
0.0184846
0.0188461
0.0192333
0.0196957
0.0201221
0.020552
0.0210489
0.0215741
0.0220272
0.0223591
0.0226179
0.0229187
0.0234405
0.0241064
0.0246847
0.0252369
0.0258323
0.0263405
0.0268068
0.0272515
0.0277619
0.0283763
0.0289792
0.0295382
0.0301662
0.0307861
0.0313634
0.031963
0.0326149
0.0332932
0.0339401
0.0346223
0.0353329
0.0360742
0.0368019
0.0375394
0.038269
0.0390626
0.0398889
0.0407238
0.0415648
0.042367
0.043207
0.0440826
0.0449518
0.0458809
0.0467534
0.0476744
0.0486137
0.0494895
0.0503766
0.0512202
0.0520066
0.0526869
0.0217429
0.017323
0.00993737
0.00439864
0.00281102
0.00387044
0.00512099
0.00580234
0.00626335
0.00668118
0.0070166
0.00727947
0.00747673
0.00768084
0.00803419
0.00856652
0.00903593
0.00925157
0.00944059
0.00979923
0.010092
0.0102016
0.0103229
0.0105646
0.0108933
0.0112192
0.0114804
0.0117523
0.0121036
0.012423
0.0126737
0.0129826
0.0133489
0.0137014
0.0140727
0.014487
0.0148689
0.0151969
0.0155406
0.015887
0.0162103
0.0165603
0.0169099
0.0172504
0.0176324
0.0180625
0.0184852
0.0188466
0.0192337
0.0196961
0.0201225
0.0205524
0.0210493
0.0215745
0.0220277
0.0223595
0.0226183
0.0229188
0.0234406
0.0241067
0.024685
0.0252371
0.0258326
0.0263408
0.0268071
0.0272517
0.0277621
0.0283765
0.0289794
0.0295383
0.0301663
0.0307862
0.0313635
0.0319631
0.032615
0.0332934
0.0339403
0.0346224
0.035333
0.0360743
0.036802
0.0375395
0.0382691
0.0390627
0.039889
0.0407239
0.0415649
0.0423671
0.0432071
0.0440827
0.0449519
0.045881
0.0467535
0.0476744
0.0486138
0.0494896
0.0503766
0.0512203
0.0520067
0.0526869
0.0211362
0.0171972
0.0101508
0.00474751
0.003045
0.00395122
0.00515081
0.00583093
0.006293
0.00670451
0.00703198
0.00729027
0.00748674
0.00769097
0.00804292
0.00857288
0.00904092
0.00925639
0.00944516
0.00980309
0.0100952
0.0102046
0.010326
0.0105675
0.0108957
0.0112213
0.0114823
0.0117539
0.0121052
0.0124243
0.0126748
0.0129836
0.0133499
0.0137023
0.0140735
0.0144878
0.0148697
0.0151976
0.0155412
0.0158877
0.0162108
0.0165608
0.0169105
0.0172509
0.0176329
0.018063
0.0184857
0.0188471
0.0192341
0.0196966
0.0201229
0.0205527
0.0210497
0.021575
0.0220282
0.02236
0.0226186
0.0229189
0.0234407
0.0241071
0.0246854
0.0252373
0.025833
0.0263412
0.0268073
0.0272518
0.0277622
0.0283767
0.0289796
0.0295385
0.0301665
0.0307864
0.0313637
0.0319633
0.0326152
0.0332935
0.0339404
0.0346225
0.0353331
0.0360744
0.0368021
0.0375396
0.0382692
0.0390628
0.0398891
0.040724
0.0415651
0.0423672
0.0432072
0.0440828
0.044952
0.0458811
0.0467536
0.0476745
0.0486139
0.0494897
0.0503767
0.0512204
0.0520068
0.052687
0.0205218
0.0170387
0.010366
0.00511563
0.00330325
0.00404301
0.00518279
0.00586455
0.00633126
0.00673569
0.00705235
0.00730386
0.00749972
0.00770582
0.00805662
0.00858193
0.00904678
0.00926275
0.00945201
0.0098082
0.0100988
0.0102085
0.0103309
0.010572
0.0108991
0.011224
0.0114849
0.0117566
0.0121075
0.0124262
0.0126763
0.012985
0.0133512
0.0137035
0.0140746
0.0144888
0.0148705
0.0151983
0.0155419
0.0158884
0.0162114
0.0165613
0.016911
0.0172514
0.0176334
0.0180635
0.0184863
0.0188477
0.0192346
0.0196971
0.0201234
0.0205532
0.0210501
0.0215754
0.0220288
0.0223606
0.022619
0.0229189
0.0234408
0.0241076
0.0246858
0.0252375
0.0258333
0.0263416
0.0268076
0.0272521
0.0277624
0.0283769
0.0289799
0.0295386
0.0301667
0.0307866
0.0313638
0.0319634
0.0326153
0.0332937
0.0339405
0.0346226
0.0353332
0.0360746
0.0368023
0.0375397
0.0382693
0.0390629
0.0398892
0.0407241
0.0415652
0.0423673
0.0432073
0.0440829
0.0449521
0.0458812
0.0467537
0.0476746
0.048614
0.0494898
0.0503768
0.0512205
0.052007
0.0526871
0.0198989
0.0168483
0.0105764
0.00549029
0.00357599
0.00414218
0.00521407
0.00589886
0.00637356
0.00677132
0.00707578
0.0073193
0.00751496
0.00772474
0.0080751
0.0085939
0.00905375
0.00927097
0.00946149
0.00981464
0.0101027
0.0102136
0.010338
0.0105788
0.0109039
0.0112276
0.0114888
0.0117606
0.0121109
0.0124289
0.0126786
0.0129869
0.0133528
0.013705
0.014076
0.01449
0.0148715
0.0151992
0.0155429
0.0158893
0.016212
0.0165618
0.0169116
0.017252
0.017634
0.018064
0.0184869
0.0188483
0.0192351
0.0196977
0.020124
0.0205537
0.0210507
0.021576
0.0220294
0.0223613
0.0226194
0.0229189
0.0234409
0.0241081
0.0246863
0.0252378
0.0258338
0.0263421
0.026808
0.0272523
0.0277625
0.0283772
0.0289802
0.0295388
0.0301669
0.0307869
0.031364
0.0319635
0.0326154
0.0332938
0.0339407
0.0346227
0.0353334
0.0360747
0.0368024
0.0375399
0.0382695
0.039063
0.0398893
0.0407243
0.0415653
0.0423674
0.0432074
0.044083
0.0449522
0.0458813
0.0467538
0.0476747
0.0486141
0.0494899
0.050377
0.0512207
0.0520073
0.0526873
0.0192788
0.016632
0.0107787
0.0058666
0.00386116
0.00424945
0.00524508
0.00593273
0.00641816
0.00680983
0.00710109
0.00733581
0.00753149
0.00774598
0.00809658
0.00860802
0.00906193
0.00928103
0.00947332
0.00982224
0.0101068
0.0102197
0.0103472
0.0105879
0.0109102
0.0112322
0.0114938
0.0117661
0.0121156
0.0124326
0.0126819
0.0129896
0.013355
0.0137069
0.0140778
0.0144914
0.0148726
0.0152004
0.0155442
0.0158905
0.0162127
0.0165624
0.0169122
0.0172528
0.0176347
0.0180645
0.0184874
0.018849
0.0192357
0.0196981
0.0201245
0.0205544
0.0210514
0.0215766
0.0220301
0.0223621
0.0226198
0.0229189
0.0234411
0.0241087
0.0246868
0.0252381
0.0258343
0.0263427
0.0268084
0.0272526
0.0277628
0.0283775
0.0289806
0.0295391
0.0301672
0.0307872
0.0313643
0.0319637
0.0326156
0.0332941
0.0339408
0.0346229
0.0353335
0.0360749
0.0368026
0.03754
0.0382696
0.0390631
0.0398894
0.0407244
0.0415655
0.0423675
0.0432075
0.0440832
0.0449523
0.0458814
0.046754
0.0476748
0.0486143
0.04949
0.0503772
0.0512211
0.0520078
0.0526875
0.0186729
0.0163932
0.0109677
0.00624047
0.00415754
0.00436612
0.00527676
0.00596576
0.00646444
0.00685089
0.0071282
0.00735334
0.00754878
0.00776822
0.0081194
0.00862335
0.00907109
0.00929256
0.00948692
0.00983079
0.0101112
0.0102267
0.0103581
0.0105986
0.0109176
0.0112375
0.0114998
0.0117729
0.0121212
0.0124373
0.0126865
0.0129935
0.0133577
0.0137093
0.01408
0.0144929
0.0148738
0.0152017
0.0155458
0.015892
0.0162139
0.0165632
0.016913
0.0172538
0.0176355
0.0180649
0.0184879
0.0188498
0.0192364
0.0196985
0.0201249
0.0205551
0.0210522
0.0215773
0.022031
0.0223631
0.0226204
0.022919
0.0234412
0.0241093
0.0246873
0.0252385
0.0258349
0.0263433
0.0268089
0.0272529
0.0277631
0.028378
0.028981
0.0295395
0.0301676
0.0307876
0.0313646
0.031964
0.0326159
0.0332943
0.033941
0.034623
0.0353337
0.036075
0.0368027
0.0375401
0.0382697
0.0390632
0.0398896
0.0407246
0.0415657
0.0423676
0.0432076
0.0440833
0.0449524
0.0458816
0.0467541
0.0476749
0.0486145
0.0494902
0.0503774
0.0512216
0.0520085
0.0526878
0.0180891
0.0161343
0.0111389
0.00660835
0.00446338
0.00449316
0.00530996
0.00599753
0.00651169
0.00689436
0.00715728
0.0073719
0.00756652
0.00779073
0.00814263
0.00863916
0.0090807
0.00930489
0.00950164
0.00984015
0.0101161
0.0102343
0.0103699
0.0106103
0.0109258
0.0112434
0.0115067
0.0117805
0.0121275
0.0124426
0.0126921
0.0129985
0.0133613
0.0137122
0.0140824
0.0144945
0.0148749
0.015203
0.0155476
0.0158939
0.0162154
0.0165643
0.0169141
0.0172552
0.0176367
0.0180655
0.0184885
0.0188509
0.0192371
0.0196986
0.0201251
0.0205558
0.0210528
0.0215779
0.022032
0.0223644
0.0226214
0.0229192
0.0234414
0.02411
0.0246878
0.0252388
0.0258355
0.0263441
0.0268094
0.0272533
0.0277636
0.0283785
0.0289815
0.0295399
0.030168
0.0307881
0.0313649
0.0319643
0.0326162
0.0332946
0.0339413
0.0346233
0.0353339
0.0360752
0.0368029
0.0375403
0.0382698
0.0390633
0.0398897
0.0407247
0.0415658
0.0423678
0.0432077
0.0440834
0.0449526
0.0458817
0.0467542
0.047675
0.0486147
0.0494904
0.0503777
0.0512223
0.0520094
0.0526882
0.0175338
0.015859
0.0112892
0.00696708
0.00477628
0.00463096
0.00534524
0.00602742
0.00655906
0.00694003
0.00718847
0.00739164
0.00758469
0.00781338
0.00816594
0.00865493
0.00909009
0.00931722
0.00951683
0.0098501
0.0101215
0.0102422
0.0103823
0.0106226
0.0109342
0.0112495
0.0115141
0.0117888
0.0121341
0.0124482
0.0126983
0.0130045
0.0133658
0.0137157
0.014085
0.014496
0.0148758
0.0152042
0.0155493
0.0158959
0.0162173
0.0165657
0.0169156
0.017257
0.0176383
0.0180661
0.0184891
0.0188523
0.0192383
0.0196988
0.0201252
0.0205563
0.0210532
0.021578
0.0220327
0.0223659
0.0226226
0.0229199
0.0234421
0.0241108
0.0246882
0.0252389
0.025836
0.0263449
0.02681
0.0272538
0.0277641
0.0283791
0.0289821
0.0295405
0.0301686
0.0307886
0.0313654
0.0319648
0.0326166
0.033295
0.0339416
0.0346236
0.0353342
0.0360755
0.0368031
0.0375405
0.03827
0.0390634
0.0398899
0.0407249
0.041566
0.0423679
0.0432078
0.0440836
0.0449527
0.0458819
0.0467544
0.0476752
0.048615
0.0494907
0.0503781
0.0512232
0.0520106
0.0526887
0.0170108
0.0155716
0.0114163
0.00731363
0.00509343
0.00477933
0.00538289
0.00605496
0.00660595
0.00698789
0.00722214
0.007413
0.00760382
0.00783658
0.00818938
0.00867027
0.00909864
0.00932884
0.00953186
0.00986024
0.010127
0.0102504
0.010395
0.0106353
0.010943
0.0112558
0.0115217
0.0117975
0.0121411
0.0124538
0.0127048
0.0130109
0.013371
0.0137197
0.0140878
0.0144975
0.0148768
0.0152054
0.0155508
0.0158979
0.0162192
0.0165675
0.0169176
0.0172594
0.0176403
0.018067
0.0184899
0.018854
0.0192398
0.0196992
0.0201253
0.0205567
0.0210533
0.0215776
0.0220329
0.022367
0.022624
0.0229211
0.0234434
0.0241121
0.0246886
0.0252387
0.0258363
0.0263456
0.0268106
0.0272544
0.0277648
0.0283797
0.0289827
0.0295411
0.0301693
0.0307892
0.0313661
0.0319654
0.0326172
0.0332955
0.033942
0.034624
0.0353346
0.0360758
0.0368033
0.0375407
0.0382701
0.0390635
0.0398901
0.0407252
0.0415662
0.042368
0.0432079
0.0440837
0.0449529
0.0458821
0.0467546
0.0476753
0.0486154
0.049491
0.0503785
0.0512244
0.0520122
0.0526893
0.0165219
0.0152768
0.0115187
0.00764459
0.00541203
0.00493825
0.00542401
0.00608041
0.00665199
0.00703787
0.00725876
0.00743673
0.00762474
0.00786111
0.00821337
0.00868518
0.00910606
0.00933929
0.00954621
0.00987016
0.0101324
0.0102586
0.0104079
0.0106485
0.0109522
0.0112622
0.0115293
0.0118065
0.0121483
0.0124596
0.0127113
0.0130176
0.0133765
0.0137241
0.0140909
0.0144991
0.0148777
0.0152065
0.0155522
0.0158996
0.0162211
0.0165693
0.0169198
0.0172622
0.0176426
0.0180679
0.0184907
0.018856
0.0192418
0.0196999
0.0201256
0.0205571
0.0210532
0.0215766
0.0220324
0.0223676
0.022625
0.0229224
0.0234455
0.0241143
0.0246894
0.0252383
0.025836
0.0263459
0.026811
0.027255
0.0277655
0.0283803
0.0289833
0.0295418
0.03017
0.0307899
0.0313668