/*--------------------------------*- C++ -*----------------------------------*\
| =========                 |                                                 |
| \\      /  F ield         | OpenFOAM: The Open Source CFD Toolbox           |
|  \\    /   O peration     | Version:  v1912                                 |
|   \\  /    A nd           | Website:  www.openfoam.com                      |
|    \\/     M anipulation  |                                                 |
\*---------------------------------------------------------------------------*/
FoamFile
{
    version     2.0;
    format      ascii;
    class       surfaceScalarField;
    location    "5";
    object      phi;
}
// * * * * * * * * * * * * * * * * * * * * * * * * * * * * * * * * * * * * * //

dimensions      [0 3 -1 0 0 0 0];
oriented        oriented;


internalField   nonuniform List<scalar> 
19000
(
1.13559e-06
-2.07194e-07
1.17654e-06
-5.36859e-07
1.27345e-06
-2.4249e-06
1.27087e-06
1.20211e-06
1.22811e-06
1.0178e-06
1.23799e-06
8.64415e-07
1.24657e-06
-1.18448e-06
1.24741e-06
-1.28545e-06
1.27005e-06
-1.56576e-06
1.21937e-06
-2.62379e-07
1.24436e-06
-3.17247e-07
1.30048e-06
-4.86493e-07
1.31928e-06
-4.63113e-07
1.29557e-06
-1.871e-08
1.25779e-06
1.01807e-07
1.2168e-06
2.57133e-07
1.19932e-06
1.91718e-07
1.18559e-06
2.00146e-07
1.1865e-06
1.33399e-07
8.98499e-08
1.16307e-06
1.18909e-06
-1.72026e-07
1.22736e-06
-5.75124e-07
1.33515e-06
-2.53269e-06
1.35034e-06
1.18691e-06
1.29779e-06
1.07035e-06
1.32659e-06
8.35622e-07
1.31455e-06
-1.17244e-06
1.30048e-06
-1.27138e-06
1.3299e-06
-1.59518e-06
1.29141e-06
-2.23884e-07
1.31036e-06
-3.36201e-07
1.36839e-06
-5.44518e-07
1.39095e-06
-4.85683e-07
1.37439e-06
-2.14884e-09
1.32284e-06
1.53364e-07
1.29484e-06
2.85132e-07
1.25573e-06
2.30824e-07
1.26292e-06
1.9296e-07
1.23681e-06
1.59507e-07
7.50871e-08
1.25157e-06
1.24475e-06
-1.33992e-07
1.2748e-06
-6.05171e-07
1.38851e-06
-2.64641e-06
1.43778e-06
1.13764e-06
1.38807e-06
1.12007e-06
1.41096e-06
8.12732e-07
1.37178e-06
-1.13325e-06
1.34806e-06
-1.24766e-06
1.37537e-06
-1.62249e-06
1.36163e-06
-2.1015e-07
1.37115e-06
-3.45717e-07
1.43216e-06
-6.05532e-07
1.45865e-06
-5.12165e-07
1.45627e-06
2.22763e-10
1.39976e-06
2.09882e-07
1.3726e-06
3.12289e-07
1.33104e-06
2.72388e-07
1.32855e-06
1.9545e-07
1.3129e-06
1.75153e-07
7.91776e-08
1.30881e-06
1.30411e-06
-9.40015e-08
1.32107e-06
-6.2213e-07
1.43107e-06
-2.75641e-06
1.51734e-06
1.05137e-06
1.48617e-06
1.15123e-06
1.49529e-06
8.03615e-07
1.4303e-06
-1.06826e-06
1.39559e-06
-1.21295e-06
1.41303e-06
-1.63993e-06
1.42188e-06
-2.19e-07
1.42609e-06
-3.49934e-07
1.4828e-06
-6.62242e-07
1.51802e-06
-5.47379e-07
1.5286e-06
-1.03539e-08
1.48437e-06
2.54112e-07
1.45261e-06
3.44048e-07
1.41657e-06
3.08423e-07
1.40365e-06
2.08376e-07
1.3915e-06
1.87295e-07
8.9024e-08
1.38166e-06
1.3693e-06
-5.4949e-08
1.36954e-06
-6.22368e-07
1.46666e-06
-2.85352e-06
1.58428e-06
9.33749e-07
1.58309e-06
1.15242e-06
1.57624e-06
8.10465e-07
1.49151e-06
-9.83524e-07
1.44548e-06
-1.16692e-06
1.45067e-06
-1.64512e-06
1.47579e-06
-2.44122e-07
1.48019e-06
-3.54327e-07
1.52612e-06
-7.08175e-07
1.56857e-06
-5.89831e-07
1.59243e-06
-3.42108e-08
1.56722e-06
2.79317e-07
1.53779e-06
3.73485e-07
1.50552e-06
3.40685e-07
1.48742e-06
2.2648e-07
1.47299e-06
2.01721e-07
1.02383e-07
1.45963e-06
1.44168e-06
-2.0956e-08
1.42403e-06
-6.04711e-07
1.50318e-06
-2.93268e-06
1.6436e-06
7.93331e-07
1.67406e-06
1.12197e-06
1.65411e-06
8.30415e-07
1.55805e-06
-8.87465e-07
1.50225e-06
-1.11112e-06
1.49585e-06
-1.63872e-06
1.53136e-06
-2.7964e-07
1.53775e-06
-3.60711e-07
1.56996e-06
-7.40384e-07
1.61297e-06
-6.32843e-07
1.64928e-06
-7.05212e-08
1.64329e-06
2.85305e-07
1.62281e-06
3.93969e-07
1.59489e-06
3.68601e-07
1.57416e-06
2.47208e-07
1.55703e-06
2.1885e-07
1.20132e-07
1.53929e-06
1.52103e-06
4.2276e-09
1.48737e-06
-5.71045e-07
1.54805e-06
-2.99337e-06
1.70232e-06
6.39067e-07
1.7569e-06
1.06739e-06
1.7284e-06
8.58912e-07
1.62839e-06
-7.87456e-07
1.56697e-06
-1.0497e-06
1.55118e-06
-1.62294e-06
1.59272e-06
-3.21177e-07
1.59966e-06
-3.67649e-07
1.61773e-06
-7.58457e-07
1.65489e-06
-6.70007e-07
1.69992e-06
-1.15553e-07
1.71107e-06
2.74159e-07
1.70264e-06
4.02402e-07
1.68119e-06
3.90046e-07
1.65989e-06
2.6851e-07
1.64113e-06
2.37612e-07
1.42107e-07
1.61915e-06
1.60574e-06
1.8621e-08
1.56075e-06
-5.26061e-07
1.60458e-06
-3.03719e-06
1.76355e-06
4.801e-07
1.83048e-06
1.00045e-06
1.79824e-06
8.91151e-07
1.70042e-06
-6.89631e-07
1.63863e-06
-9.8791e-07
1.61567e-06
-1.59998e-06
1.65928e-06
-3.64782e-07
1.66457e-06
-3.72944e-07
1.6697e-06
-7.63583e-07
1.69743e-06
-6.97736e-07
1.74612e-06
-1.64249e-07
1.7709e-06
2.49384e-07
1.77478e-06
3.98515e-07
1.76145e-06
4.03379e-07
1.74153e-06
2.8843e-07
1.72266e-06
2.56484e-07
1.67032e-07
1.69773e-06
1.69365e-06
2.25429e-08
1.64376e-06
-4.76165e-07
1.6718e-06
-3.06523e-06
1.82571e-06
3.26189e-07
1.89437e-06
9.31791e-07
1.86302e-06
9.22502e-07
1.77277e-06
-5.99383e-07
1.71553e-06
-9.30675e-07
1.68705e-06
-1.5715e-06
1.72882e-06
-4.06545e-07
1.73125e-06
-3.75377e-07
1.72592e-06
-7.58251e-07
1.7431e-06
-7.14918e-07
1.79074e-06
-2.11892e-07
1.8247e-06
2.1543e-07
1.83913e-06
3.84079e-07
1.83436e-06
4.08148e-07
1.81727e-06
3.0552e-07
1.79978e-06
2.73975e-07
1.92924e-07
1.77389e-06
1.78311e-06
1.81544e-08
1.73481e-06
-4.27864e-07
1.74666e-06
-3.07708e-06
1.88561e-06
1.87235e-07
1.94939e-06
8.68016e-07
1.92348e-06
9.48404e-07
1.84543e-06
-5.21328e-07
1.79648e-06
-8.81727e-07
1.76362e-06
-1.53864e-06
1.80024e-06
-4.43164e-07
1.79994e-06
-3.75074e-07
1.7875e-06
-7.45816e-07
1.79448e-06
-7.21892e-07
1.83726e-06
-2.54679e-07
1.87568e-06
1.77012e-07
1.89761e-06
3.62148e-07
1.90065e-06
4.05111e-07
1.88721e-06
3.18963e-07
1.87222e-06
2.88958e-07
2.17614e-07
1.84753e-06
1.87346e-06
8.44679e-09
1.83177e-06
-3.86174e-07
1.82639e-06
-3.07171e-06
1.94228e-06
7.13458e-08
1.99869e-06
8.11606e-07
1.98233e-06
9.64762e-07
1.91951e-06
-4.58508e-07
1.88089e-06
-8.43106e-07
1.84475e-06
-1.50249e-06
1.87439e-06
-4.7281e-07
1.87229e-06
-3.72969e-07
1.85615e-06
-7.29676e-07
1.85399e-06
-7.19735e-07
1.88915e-06
-2.89838e-07
1.92767e-06
1.38496e-07
1.95351e-06
3.36301e-07
1.96272e-06
3.95905e-07
1.9532e-06
3.28482e-07
1.94142e-06
3.00735e-07
2.39183e-07
1.91985e-06
1.96503e-06
-3.74002e-09
1.93251e-06
-3.53661e-07
1.9098e-06
-3.049e-06
1.99861e-06
-1.74675e-08
2.04791e-06
7.62311e-07
2.04372e-06
9.68953e-07
1.99679e-06
-4.11582e-07
1.96866e-06
-8.14978e-07
1.93048e-06
-1.46431e-06
1.95316e-06
-4.95484e-07
1.9503e-06
-3.7011e-07
1.93308e-06
-7.12461e-07
1.92325e-06
-7.09898e-07
1.94916e-06
-3.15747e-07
1.98429e-06
1.0336e-07
2.01065e-06
3.09942e-07
2.024e-06
3.82559e-07
2.01831e-06
3.34164e-07
2.01005e-06
3.09001e-07
2.56248e-07
1.99298e-06
2.05876e-06
-1.63144e-08
2.0356e-06
-3.30497e-07
1.99724e-06
-3.01064e-06
2.06001e-06
-8.02422e-08
2.10357e-06
7.18758e-07
2.1119e-06
9.60623e-07
2.07906e-06
-3.78742e-07
2.06001e-06
-7.95927e-07
2.02097e-06
-1.42528e-06
2.03809e-06
-5.12605e-07
2.03526e-06
-3.67271e-07
2.01847e-06
-6.95677e-07
2.00256e-06
-6.93984e-07
2.01879e-06
-3.31983e-07
2.04835e-06
7.38037e-08
2.07259e-06
2.85704e-07
2.08811e-06
3.67036e-07
2.08598e-06
3.36296e-07
2.08123e-06
3.13754e-07
2.68147e-07
2.06933e-06
2.15577e-06
-2.8083e-08
2.14056e-06
-3.1529e-07
2.08978e-06
-2.95985e-06
2.13145e-06
-1.21917e-07
2.17068e-06
6.79534e-07
2.18981e-06
9.41496e-07
2.1676e-06
-3.56537e-07
2.15533e-06
-7.83651e-07
2.11624e-06
-1.3862e-06
2.12976e-06
-5.26129e-07
2.12742e-06
-3.6493e-07
2.1116e-06
-6.79852e-07
2.09119e-06
-6.73578e-07
2.09838e-06
-3.39168e-07
2.12155e-06
5.06332e-08
2.14215e-06
2.65101e-07
2.15828e-06
3.50903e-07
2.15932e-06
3.35261e-07
2.1578e-06
3.15273e-07
2.74933e-07
2.15101e-06
2.25698e-06
-3.85747e-08
2.24779e-06
-3.06102e-07
2.18825e-06
-2.90031e-06
2.21527e-06
-1.48932e-07
2.25124e-06
6.43558e-07
2.27841e-06
9.14327e-07
2.26301e-06
-3.41134e-07
2.25511e-06
-7.7575e-07
2.21626e-06
-1.34735e-06
2.22787e-06
-5.37743e-07
2.22632e-06
-3.63381e-07
2.21142e-06
-6.64949e-07
2.18797e-06
-6.50128e-07
2.18743e-06
-3.38628e-07
2.20457e-06
3.34963e-08
2.22116e-06
2.48507e-07
2.23686e-06
3.35208e-07
2.24065e-06
3.31467e-07
2.24186e-06
3.14062e-07
2.77242e-07
2.23955e-06
2.36304e-06
-4.77417e-08
2.3581e-06
-3.01158e-07
2.29285e-06
-2.83507e-06
2.311e-06
-1.67077e-07
2.34453e-06
6.1003e-07
2.37714e-06
8.81716e-07
2.36533e-06
-3.29327e-07
2.35983e-06
-7.70254e-07
2.32113e-06
-1.30864e-06
2.33183e-06
-5.48449e-07
2.33125e-06
-3.62799e-07
2.31704e-06
-6.50743e-07
2.29182e-06
-6.24902e-07
2.2852e-06
-3.32015e-07
2.29738e-06
2.13232e-08
2.31046e-06
2.35421e-07
2.32517e-06
3.20503e-07
2.33133e-06
3.25307e-07
2.33466e-06
3.10728e-07
2.76066e-07
2.33584e-06
2.47437e-06
-5.57123e-08
2.47231e-06
-2.99099e-07
2.40336e-06
-2.76612e-06
2.41677e-06
-1.80493e-07
2.44854e-06
5.78268e-07
2.4848e-06
8.45453e-07
2.4744e-06
-3.18926e-07
2.46994e-06
-7.65795e-07
2.4311e-06
-1.26981e-06
2.44119e-06
-5.5854e-07
2.44162e-06
-3.6323e-07
2.4279e-06
-6.37016e-07
2.40197e-06
-5.98973e-07
2.39098e-06
-3.21031e-07
2.39953e-06
1.27809e-08
2.41008e-06
2.24868e-07
2.42363e-06
3.06956e-07
2.43179e-06
3.17138e-07
2.43669e-06
3.05831e-07
2.72505e-07
2.44025e-06
2.59124e-06
-6.26621e-08
2.59108e-06
-2.98932e-07
2.51947e-06
-2.69451e-06
2.53072e-06
-1.91741e-07
2.56138e-06
5.47607e-07
2.60034e-06
8.06493e-07
2.59004e-06
-3.08622e-07
2.58575e-06
-7.61508e-07
2.54657e-06
-1.23062e-06
2.55584e-06
-5.67815e-07
2.5572e-06
-3.6459e-07
2.54375e-06
-6.23566e-07
2.518e-06
-5.73218e-07
2.50422e-06
-3.07256e-07
2.51041e-06
6.5957e-09
2.51954e-06
2.15737e-07
2.53205e-06
2.94447e-07
2.54187e-06
3.07314e-07
2.54795e-06
2.99756e-07
2.67547e-07
2.5529e-06
2.71394e-06
-6.87728e-08
2.7149e-06
-2.99892e-07
2.64109e-06
-2.62071e-06
2.65167e-06
-2.02319e-07
2.68187e-06
5.17415e-07
2.72311e-06
7.65245e-07
2.71216e-06
-2.97673e-07
2.70752e-06
-7.56866e-07
2.66793e-06
-1.19103e-06
2.67597e-06
-5.75857e-07
2.67808e-06
-3.66696e-07
2.66469e-06
-6.10179e-07
2.63978e-06
-5.48303e-07
2.62459e-06
-2.92065e-07
2.62947e-06
1.71802e-09
2.63822e-06
2.06981e-07
2.64998e-06
2.82689e-07
2.66108e-06
2.96215e-07
2.66817e-06
2.92668e-07
2.61949e-07
2.67376e-06
2.84271e-06
-7.42144e-08
2.84419e-06
-3.01371e-07
2.76836e-06
-2.54488e-06
2.77916e-06
-2.13122e-07
2.80943e-06
4.8715e-07
2.85281e-06
7.21869e-07
2.84078e-06
-2.8565e-07
2.83543e-06
-7.51511e-07
2.79557e-06
-1.15118e-06
2.80197e-06
-5.82255e-07
2.80461e-06
-3.69336e-07
2.79105e-06
-5.96615e-07
2.76742e-06
-5.24674e-07
2.75194e-06
-2.76589e-07
2.75628e-06
-2.61861e-09
2.76553e-06
1.97733e-07
2.77686e-06
2.71351e-07
2.78882e-06
2.84257e-07
2.79689e-06
2.84598e-07
2.56185e-07
2.80266e-06
2.9778e-06
-7.91204e-08
2.97934e-06
-3.02908e-07
2.90163e-06
-2.46717e-06
2.91321e-06
-2.24705e-07
2.9439e-06
4.56468e-07
2.98931e-06
6.7645e-07
2.976e-06
-2.72333e-07
2.96965e-06
-7.45161e-07
2.92982e-06
-1.11135e-06
2.93428e-06
-5.86719e-07
2.93727e-06
-3.7232e-07
2.9233e-06
-5.82646e-07
2.9012e-06
-5.02572e-07
2.88629e-06
-2.61684e-07
2.89055e-06
-6.87803e-09
2.90089e-06
1.87391e-07
2.91209e-06
2.60153e-07
2.92447e-06
2.71873e-07
2.9335e-06
2.75574e-07
2.50458e-07
2.93923e-06
3.11945e-06
-8.35648e-08
3.12074e-06
-3.04197e-07
3.04138e-06
-2.38781e-06
3.05408e-06
-2.37402e-07
3.08525e-06
4.25297e-07
3.13262e-06
6.29076e-07
3.11801e-06
-2.5772e-07
3.11039e-06
-7.37543e-07
3.07096e-06
-1.07191e-06
3.07335e-06
-5.89112e-07
3.07652e-06
-3.75491e-07
3.06201e-06
-5.68133e-07
3.04149e-06
-4.82052e-07
3.02772e-06
-2.47919e-07
3.03207e-06
-1.12234e-08
3.04377e-06
1.75688e-07
3.055e-06
2.48921e-07
3.06741e-06
2.59468e-07
3.07729e-06
2.65692e-07
2.44772e-07
3.08297e-06
3.26791e-06
-8.75599e-08
3.26878e-06
-3.05071e-07
3.1881e-06
-2.30713e-06
3.20209e-06
-2.51391e-07
3.23353e-06
3.93851e-07
3.28276e-06
5.79848e-07
3.26711e-06
-2.42071e-07
3.25794e-06
-7.28375e-07
3.21923e-06
-1.03321e-06
3.21955e-06
-5.89427e-07
3.22277e-06
-3.78717e-07
3.20769e-06
-5.53051e-07
3.18868e-06
-4.63039e-07
3.17634e-06
-2.35579e-07
3.1807e-06
-1.55814e-08
3.19368e-06
1.62703e-07
3.20502e-06
2.37582e-07
3.21713e-06
2.47364e-07
3.2277e-06
2.55121e-07
2.39001e-07
3.23347e-06
3.42345e-06
-9.10774e-08
3.42385e-06
-3.05476e-07
3.34221e-06
-2.22548e-06
3.35757e-06
-2.66755e-07
3.38886e-06
3.62563e-07
3.4398e-06
5.2891e-07
3.42366e-06
-2.25934e-07
3.41266e-06
-7.17373e-07
3.3749e-06
-9.95447e-07
3.37323e-06
-5.87756e-07
3.37639e-06
-3.81877e-07
3.36082e-06
-5.37484e-07
3.34315e-06
-4.45364e-07
3.33229e-06
-2.24718e-07
3.33645e-06
-1.97472e-08
3.35037e-06
1.48782e-07
3.36184e-06
2.26121e-07
3.37344e-06
2.35761e-07
3.38448e-06
2.44077e-07
2.32933e-07
3.39055e-06
3.58641e-06
-9.40767e-08
3.58638e-06
-3.05446e-07
3.50407e-06
-2.14317e-06
3.52084e-06
-2.83526e-07
3.55145e-06
3.31947e-07
3.60386e-06
4.76507e-07
3.58802e-06
-2.10101e-07
3.57494e-06
-7.04289e-07
3.53823e-06
-9.58736e-07
3.53473e-06
-5.84258e-07
3.53772e-06
-3.84863e-07
3.5218e-06
-5.21567e-07
3.50528e-06
-4.28841e-07
3.49579e-06
-2.15227e-07
3.49955e-06
-2.35087e-08
3.51391e-06
1.34417e-07
3.52549e-06
2.14539e-07
3.53651e-06
2.24743e-07
3.54779e-06
2.32794e-07
2.26326e-07
3.5544e-06
3.75716e-06
-9.65264e-08
3.75682e-06
-3.05107e-07
3.674e-06
-2.06035e-06
3.69217e-06
-3.01699e-07
3.72164e-06
3.02478e-07
3.7751e-06
4.23049e-07
3.7605e-06
-1.95503e-07
3.74519e-06
-6.88972e-07
3.70953e-06
-9.23079e-07
3.7044e-06
-5.79131e-07
3.7071e-06
-3.87566e-07
3.69098e-06
-5.05446e-07
3.67543e-06
-4.13283e-07
3.66713e-06
-2.06928e-07
3.67033e-06
-2.67091e-08
3.68464e-06
1.20103e-07
3.69633e-06
2.02847e-07
3.70678e-06
2.14298e-07
3.71806e-06
2.21508e-07
2.18991e-07
3.7254e-06
3.93607e-06
-9.84126e-08
3.93566e-06
-3.04693e-07
3.85235e-06
-1.97704e-06
3.87183e-06
-3.21179e-07
3.89983e-06
2.74476e-07
3.95373e-06
3.69144e-07
3.94132e-06
-1.83089e-07
3.92377e-06
-6.71426e-07
3.88914e-06
-8.88447e-07
3.8826e-06
-5.72592e-07
3.8849e-06
-3.89865e-07
3.86869e-06
-4.89239e-07
3.85394e-06
-3.98528e-07
3.84663e-06
-1.99617e-07
3.8492e-06
-2.92805e-08
3.86306e-06
1.06241e-07
3.87483e-06
1.91083e-07
3.88478e-06
2.0434e-07
3.89584e-06
2.10451e-07
2.10839e-07
3.90399e-06
4.12357e-06
-9.97359e-08
4.12344e-06
-3.04558e-07
4.03948e-06
-1.89308e-06
4.06001e-06
-3.41706e-07
4.08645e-06
2.4804e-07
4.14003e-06
3.15559e-07
4.13063e-06
-1.73687e-07
4.11107e-06
-6.51871e-07
4.07743e-06
-8.54802e-07
4.06971e-06
-5.64873e-07
4.07147e-06
-3.91625e-07
4.05525e-06
-4.73024e-07
4.04116e-06
-3.84434e-07
4.03459e-06
-1.93047e-07
4.03657e-06
-3.1264e-08
4.0497e-06
9.3117e-08
4.06148e-06
1.79304e-07
4.07105e-06
1.94763e-07
4.08169e-06
1.99817e-07
2.01929e-07
4.0906e-06
4.32007e-06
-1.00502e-07
4.32065e-06
-3.05135e-07
4.23584e-06
-1.80828e-06
4.25692e-06
-3.62792e-07
4.28193e-06
2.23032e-07
4.33437e-06
2.63118e-07
4.32858e-06
-1.67896e-07
4.30745e-06
-6.30743e-07
4.27475e-06
-8.22094e-07
4.2661e-06
-5.56221e-07
4.26715e-06
-3.92679e-07
4.25098e-06
-4.56854e-07
4.23744e-06
-3.70894e-07
4.23136e-06
-1.86965e-07
4.23284e-06
-3.27455e-08
4.24501e-06
8.09466e-08
4.25675e-06
1.67562e-07
4.26606e-06
1.85457e-07
4.27614e-06
1.89729e-07
1.92443e-07
4.28563e-06
4.52598e-06
-1.0071e-07
4.52772e-06
-3.06869e-07
4.44188e-06
-1.72244e-06
4.46282e-06
-3.83728e-07
4.48675e-06
1.99102e-07
4.53728e-06
2.12584e-07
4.53536e-06
-1.65971e-07
4.51325e-06
-6.08642e-07
4.48146e-06
-7.90299e-07
4.47214e-06
-5.46904e-07
4.47229e-06
-3.92826e-07
4.45621e-06
-4.40772e-07
4.4431e-06
-3.57786e-07
4.43734e-06
-1.81209e-07
4.43834e-06
-3.37438e-08
4.44944e-06
6.98448e-08
4.46114e-06
1.55864e-07
4.47023e-06
1.76367e-07
4.47976e-06
1.80201e-07
1.82657e-07
4.48954e-06
4.74175e-06
-1.00341e-07
4.745e-06
-3.10118e-07
4.6581e-06
-1.63555e-06
4.67805e-06
-4.03678e-07
4.70139e-06
1.75765e-07
4.74942e-06
1.64556e-07
4.75127e-06
-1.67825e-07
4.72884e-06
-5.86208e-07
4.69793e-06
-7.59391e-07
4.68822e-06
-5.37197e-07
4.68726e-06
-3.9186e-07
4.67131e-06
-4.24822e-07
4.65847e-06
-3.44947e-07
4.65298e-06
-1.75722e-07
4.65347e-06
-3.42299e-08
4.66347e-06
5.98454e-08
4.67512e-06
1.44208e-07
4.68407e-06
1.67421e-07
4.69308e-06
1.71194e-07
1.72873e-07
4.70286e-06
4.96781e-06
-9.93569e-08
4.97277e-06
-3.15073e-07
4.88503e-06
-1.54781e-06
4.90314e-06
-4.21787e-07
4.92641e-06
1.52488e-07
4.97155e-06
1.19421e-07
4.97682e-06
-1.73098e-07
4.95462e-06
-5.64009e-07
4.92454e-06
-7.2931e-07
4.91472e-06
-5.27373e-07
4.91248e-06
-3.89616e-07
4.89669e-06
-4.09038e-07
4.88397e-06
-3.32229e-07
4.87877e-06
-1.70515e-07
4.87873e-06
-3.41925e-08
4.88763e-06
5.09488e-08
4.89923e-06
1.32607e-07
4.90817e-06
1.5848e-07
4.91666e-06
1.62707e-07
1.63329e-07
4.9262e-06
5.20466e-06
-9.77029e-08
5.21129e-06
-3.21705e-07
5.12318e-06
-1.4597e-06
5.1387e-06
-4.37302e-07
5.16241e-06
1.2878e-07
5.20446e-06
7.73638e-08
5.21261e-06
-1.81245e-07
5.1911e-06
-5.42496e-07
5.16174e-06
-6.99956e-07
5.15202e-06
-5.17653e-07
5.14844e-06
-3.86035e-07
5.13281e-06
-3.93407e-07
5.12013e-06
-3.19547e-07
5.11528e-06
-1.65668e-07
5.11482e-06
-3.37283e-08
5.12256e-06
4.32063e-08
5.13402e-06
1.21146e-07
5.1431e-06
1.49395e-07
5.15114e-06
1.54674e-07
1.54226e-07
5.16024e-06
5.45281e-06
-9.53234e-08
5.46088e-06
-3.29777e-07
5.37311e-06
-1.37192e-06
5.38546e-06
-4.49651e-07
5.40997e-06
1.0427e-07
5.44892e-06
3.84155e-08
5.45931e-06
-1.91639e-07
5.43878e-06
-5.21968e-07
5.41005e-06
-6.71226e-07
5.40054e-06
-5.0814e-07
5.39575e-06
-3.81242e-07
5.38016e-06
-3.77815e-07
5.36757e-06
-3.06959e-07
5.36314e-06
-1.61241e-07
5.36241e-06
-3.30007e-08
5.36887e-06
3.67492e-08
5.3801e-06
1.09915e-07
5.38945e-06
1.40044e-07
5.39723e-06
1.46894e-07
1.45791e-07
5.40567e-06
5.71281e-06
-9.21796e-08
5.72192e-06
-3.38884e-07
5.63534e-06
-1.28534e-06
5.64418e-06
-4.58497e-07
5.66969e-06
7.87623e-08
5.70559e-06
2.51339e-09
5.7176e-06
-2.0365e-07
5.69824e-06
-5.02602e-07
5.67004e-06
-6.43034e-07
5.66073e-06
-4.98822e-07
5.65504e-06
-3.75554e-07
5.63931e-06
-3.62085e-07
5.62688e-06
-2.94532e-07
5.62285e-06
-1.57212e-07
5.62208e-06
-3.2224e-08
5.62728e-06
3.15486e-08
5.63807e-06
9.91182e-08
5.64776e-06
1.30354e-07
5.65557e-06
1.39089e-07
1.38126e-07
5.66323e-06
5.98528e-06
-8.82664e-08
5.99492e-06
-3.48523e-07
5.9104e-06
-1.20082e-06
5.91564e-06
-4.63741e-07
5.94214e-06
5.22617e-08
5.9751e-06
-3.04436e-08
5.98814e-06
-2.16685e-07
5.97004e-06
-4.84507e-07
5.94233e-06
-6.15322e-07
5.93309e-06
-4.89582e-07
5.92691e-06
-3.69374e-07
5.91095e-06
-3.46125e-07
5.89861e-06
-2.82196e-07
5.89503e-06
-1.53626e-07
5.89442e-06
-3.1619e-08
5.89851e-06
2.74568e-08
5.90859e-06
8.90411e-08
5.91854e-06
1.20406e-07
5.92658e-06
1.31045e-07
1.31062e-07
5.93365e-06
6.27085e-06
-8.36232e-08
6.28049e-06
-3.58163e-07
6.19884e-06
-1.11917e-06
6.20058e-06
-4.65485e-07
6.22789e-06
2.49576e-08
6.25801e-06
-6.05665e-08
6.27159e-06
-2.30269e-07
6.2548e-06
-4.67717e-07
6.22756e-06
-5.88075e-07
6.21821e-06
-4.80237e-07
6.21194e-06
-3.63107e-07
6.1958e-06
-3.29984e-07
6.1834e-06
-2.69796e-07
6.18036e-06
-1.50585e-07
6.18013e-06
-3.13863e-08
6.18323e-06
2.43535e-08
6.19235e-06
7.99206e-08
6.20236e-06
1.10402e-07
6.2107e-06
1.227e-07
1.24322e-07
6.21744e-06
6.57018e-06
-7.83366e-08
6.57931e-06
-3.6729e-07
6.50122e-06
-1.04108e-06
6.49971e-06
-4.63973e-07
6.52742e-06
-2.7572e-09
6.55492e-06
-8.80624e-08
6.5687e-06
-2.44049e-07
6.55317e-06
-4.52193e-07
6.52639e-06
-5.61286e-07
6.51672e-06
-4.70575e-07
6.51067e-06
-3.57054e-07
6.49464e-06
-3.13956e-07
6.48194e-06
-2.57091e-07
6.47944e-06
-1.48085e-07
6.47984e-06
-3.17894e-08
6.48207e-06
2.21227e-08
6.49004e-06
7.1957e-08
6.49987e-06
1.00563e-07
6.50848e-06
1.14095e-07
1.17618e-07
6.51518e-06
6.88399e-06
-7.25339e-08
6.89214e-06
-3.75446e-07
6.81818e-06
-9.67118e-07
6.81367e-06
-4.5947e-07
6.84132e-06
-3.04006e-08
6.86649e-06
-1.13233e-07
6.88011e-06
-2.57668e-07
6.86583e-06
-4.3792e-07
6.83953e-06
-5.34979e-07
6.82933e-06
-4.60374e-07
6.82362e-06
-3.51343e-07
6.80818e-06
-2.98516e-07
6.795e-06
-2.43913e-07
6.79279e-06
-1.45881e-07
6.79413e-06
-3.31217e-08
6.79568e-06
2.0572e-08
6.80236e-06
6.5276e-08
6.81177e-06
9.11493e-08
6.82051e-06
1.05358e-07
1.10709e-07
6.82742e-06
7.21297e-06
-6.63718e-08
7.21976e-06
-3.8223e-07
7.15036e-06
-8.97722e-07
7.14308e-06
-4.52183e-07
7.17039e-06
-5.77106e-08
7.1933e-06
-1.36145e-07
7.20642e-06
-2.7079e-07
7.19347e-06
-4.24966e-07
7.1677e-06
-5.09216e-07
7.15674e-06
-4.49415e-07
7.1514e-06
-3.45995e-07
7.13707e-06
-2.84189e-07
7.12338e-06
-2.30229e-07
7.12111e-06
-1.4361e-07
7.12355e-06
-3.55599e-08
7.12478e-06
1.93429e-08
7.13006e-06
5.99962e-08
7.13869e-06
8.25163e-08
7.14746e-06
9.65942e-08
1.03385e-07
7.15478e-06
7.55789e-06
-6.00325e-08
7.56294e-06
-3.87282e-07
7.49841e-06
-8.33194e-07
7.48846e-06
-4.42237e-07
7.51538e-06
-8.4628e-08
7.53595e-06
-1.56718e-07
7.54823e-06
-2.83065e-07
7.53676e-06
-4.13501e-07
7.51171e-06
-4.84165e-07
7.49978e-06
-4.37482e-07
7.49466e-06
-3.40869e-07
7.48185e-06
-2.71385e-07
7.46798e-06
-2.16361e-07
7.46526e-06
-1.40886e-07
7.46868e-06
-3.89845e-08
7.47019e-06
1.7838e-08
7.47379e-06
5.63986e-08
7.48101e-06
7.5288e-08
7.48945e-06
8.81611e-08
9.50929e-08
7.49774e-06
7.91948e-06
-5.3706e-08
7.92249e-06
-3.90291e-07
7.86306e-06
-7.73762e-07
7.85045e-06
-4.29622e-07
7.87697e-06
-1.11153e-07
7.89536e-06
-1.75109e-07
7.90632e-06
-2.94019e-07
7.89641e-06
-4.03598e-07
7.87231e-06
-4.60061e-07
7.85931e-06
-4.24482e-07
7.85418e-06
-3.35744e-07
7.84305e-06
-2.60255e-07
7.82949e-06
-2.028e-07
7.82612e-06
-1.37512e-07
7.83044e-06
-4.33083e-08
7.83295e-06
1.53321e-08
7.8348e-06
5.45472e-08
7.83932e-06
7.0763e-08
7.84574e-06
8.17419e-08
8.50181e-08
7.85582e-06
8.29857e-06
-4.75923e-08
8.29921e-06
-3.90936e-07
8.2451e-06
-7.19654e-07
8.22987e-06
-4.14384e-07
8.25595e-06
-1.37234e-07
8.27229e-06
-1.91455e-07
8.28145e-06
-3.03171e-07
8.27313e-06
-3.95282e-07
8.25032e-06
-4.37247e-07
8.23618e-06
-4.10348e-07
8.23076e-06
-3.30324e-07
8.22143e-06
-2.50921e-07
8.20868e-06
-1.9005e-07
8.20455e-06
-1.33382e-07
8.20961e-06
-4.83718e-08
8.21445e-06
1.04954e-08
8.21845e-06
5.05409e-08
8.22639e-06
6.28256e-08
8.23632e-06
7.18099e-08
7.60396e-08
8.2453e-06
8.69596e-06
-4.18938e-08
8.69392e-06
-3.88893e-07
8.64532e-06
-6.71057e-07
8.6276e-06
-3.96665e-07
8.65313e-06
-1.62762e-07
8.66757e-06
-2.0589e-07
8.67452e-06
-3.10129e-07
8.66755e-06
-3.88309e-07
8.6465e-06
-4.1619e-07
8.63137e-06
-3.95224e-07
8.62531e-06
-3.24262e-07
8.61754e-06
-2.43148e-07
8.60603e-06
-1.78549e-07
8.60185e-06
-1.29196e-07
8.60916e-06
-5.56788e-08
8.61883e-06
8.20828e-10
8.62788e-06
4.14904e-08
8.63599e-06
5.47204e-08
8.64182e-06
6.59808e-08
7.08349e-08
8.64702e-06
9.11253e-06
-3.68064e-08
9.10745e-06
-3.83816e-07
9.06444e-06
-6.28038e-07
9.0448e-06
-3.77027e-07
9.06911e-06
-1.87075e-07
9.08244e-06
-2.19216e-07
9.08657e-06
-3.14261e-07
9.08049e-06
-3.82228e-07
9.06158e-06
-3.97283e-07
9.04575e-06
-3.79395e-07
9.03891e-06
-3.17415e-07
9.03257e-06
-2.36813e-07
9.02249e-06
-1.68462e-07
9.01806e-06
-1.24767e-07
9.02493e-06
-6.25561e-08
9.03496e-06
-9.20502e-09
9.04401e-06
3.24384e-08
9.05214e-06
4.65944e-08
9.05845e-06
5.9669e-08
6.75239e-08
9.06176e-06
9.54917e-06
-3.25184e-08
9.54083e-06
-3.75473e-07
9.50318e-06
-5.90394e-07
9.4825e-06
-3.56343e-07
9.50407e-06
-2.08648e-07
9.51784e-06
-2.3298e-07
9.51893e-06
-3.15358e-07
9.51283e-06
-3.76122e-07
9.49625e-06
-3.80711e-07
9.48028e-06
-3.63419e-07
9.47235e-06
-3.09488e-07
9.46731e-06
-2.31776e-07
9.45966e-06
-1.60811e-07
9.45383e-06
-1.18935e-07
9.45489e-06
-6.3615e-08
9.45969e-06
-1.40021e-08
9.45915e-06
3.29729e-08
9.45767e-06
4.80796e-08
9.46165e-06
5.56819e-08
5.69559e-08
9.47222e-06
1.00068e-05
-2.917e-08
9.99501e-06
-3.63699e-07
9.96244e-06
-5.57822e-07
9.94208e-06
-3.35979e-07
9.95931e-06
-2.2588e-07
9.97401e-06
-2.47677e-07
9.97283e-06
-3.14183e-07
9.9657e-06
-3.68986e-07
9.9512e-06
-3.66216e-07
9.93587e-06
-3.48087e-07
9.92691e-06
-3.00527e-07
9.92187e-06
-2.26738e-07
9.91457e-06
-1.53511e-07
9.9105e-06
-1.14861e-07
9.91611e-06
-6.92295e-08
9.92781e-06
-2.57007e-08
9.94016e-06
2.06178e-08
9.94902e-06
3.92281e-08
9.9539e-06
5.07974e-08
5.87395e-08
9.95212e-06
1.04864e-05
-2.68972e-08
1.04713e-05
-3.48603e-07
1.04431e-05
-5.29642e-07
1.04242e-05
-3.17134e-07
1.04363e-05
-2.37945e-07
1.04518e-05
-2.63161e-07
1.04495e-05
-3.1189e-07
1.04403e-05
-3.59808e-07
1.04273e-05
-3.53169e-07
1.04131e-05
-3.33894e-07
1.0403e-05
-2.90473e-07
1.03986e-05
-2.22262e-07
1.0393e-05
-1.47927e-07
1.03871e-05
-1.0895e-07
1.03854e-05
-6.75869e-08
1.03896e-05
-2.98907e-08
1.03932e-05
1.70376e-08
1.03929e-05
3.95448e-08
1.03954e-05
4.82681e-08
5.07015e-08
1.04034e-05
1.09889e-05
-2.57754e-08
1.09709e-05
-3.30558e-07
1.09463e-05
-5.05047e-07
1.09299e-05
-3.00798e-07
1.09367e-05
-2.44718e-07
1.09514e-05
-2.77854e-07
1.09498e-05
-3.10343e-07
1.09383e-05
-3.48279e-07
1.09256e-05
-3.40412e-07
1.09124e-05
-3.20759e-07
1.09019e-05
-2.79987e-07
1.08966e-05
-2.16941e-07
1.08907e-05
-1.42015e-07
1.08846e-05
-1.02857e-07
1.08827e-05
-6.57019e-08
1.08863e-05
-3.34477e-08
1.08919e-05
1.14435e-08
1.08955e-05
3.5951e-08
1.08986e-05
4.50963e-08
4.52512e-08
1.09041e-05
1.15154e-05
-2.58347e-08
1.1495e-05
-3.10153e-07
1.14731e-05
-4.83118e-07
1.14596e-05
-2.87312e-07
1.14619e-05
-2.46996e-07
1.1474e-05
-2.89955e-07
1.14743e-05
-3.10689e-07
1.14612e-05
-3.35151e-07
1.14474e-05
-3.26638e-07
1.14349e-05
-3.08196e-07
1.14237e-05
-2.68801e-07
1.14174e-05
-2.10707e-07
1.14127e-05
-1.37295e-07
1.14077e-05
-9.78565e-08
1.14053e-05
-6.32591e-08
1.14078e-05
-3.59689e-08
1.14146e-05
4.65861e-09
1.142e-05
3.05038e-08
1.14227e-05
4.24174e-08
4.11216e-08
1.14268e-05
1.2067e-05
-2.70372e-08
1.20449e-05
-2.88029e-07
1.20247e-05
-4.62925e-07
1.20143e-05
-2.76896e-07
1.20132e-05
-2.45915e-07
1.20212e-05
-2.97921e-07
1.20234e-05
-3.12906e-07
1.20105e-05
-3.22215e-07
1.19949e-05
-3.11047e-07
1.19821e-05
-2.95476e-07
1.1971e-05
-2.57703e-07
1.19648e-05
-2.04415e-07
1.19607e-05
-1.33207e-07
1.19563e-05
-9.35199e-08
1.19537e-05
-6.05858e-08
1.19555e-05
-3.77834e-08
1.19619e-05
-1.79425e-09
1.19682e-05
2.41845e-08
1.19714e-05
3.92452e-08
3.77039e-08
1.19748e-05
1.26448e-05
-2.92709e-08
1.26217e-05
-2.64914e-07
1.26024e-05
-4.4357e-07
1.25948e-05
-2.69345e-07
1.25916e-05
-2.42699e-07
1.25949e-05
-3.01216e-07
1.25981e-05
-3.16095e-07
1.25868e-05
-3.10966e-07
1.25698e-05
-2.9407e-07
1.25563e-05
-2.81903e-07
1.25453e-05
-2.46686e-07
1.2539e-05
-1.98159e-07
1.25355e-05
-1.29734e-07
1.25319e-05
-8.99078e-08
1.25293e-05
-5.7982e-08
1.25303e-05
-3.87266e-08
1.25356e-05
-7.14869e-09
1.25424e-05
1.74162e-08
1.25463e-05
3.5286e-08
3.4647e-08
1.25494e-05
1.325e-05
-3.23601e-08
1.32266e-05
-2.41504e-07
1.32073e-05
-4.24289e-07
1.32023e-05
-2.64362e-07
1.31982e-05
-2.38522e-07
1.31968e-05
-2.99887e-07
1.31993e-05
-3.18547e-07
1.31909e-05
-3.02612e-07
1.31737e-05
-2.76803e-07
1.31588e-05
-2.67054e-07
1.31475e-05
-2.35324e-07
1.31413e-05
-1.92043e-07
1.31385e-05
-1.26843e-07
1.31355e-05
-8.69225e-08
1.31328e-05
-5.53469e-08
1.3133e-05
-3.8841e-08
1.3137e-05
-1.12368e-08
1.31439e-05
1.05622e-08
1.31487e-05
3.04792e-08
3.15202e-08
1.31518e-05
1.38839e-05
-3.60499e-08
1.38609e-05
-2.18527e-07
1.38411e-05
-4.045e-07
1.38382e-05
-2.61427e-07
1.38339e-05
-2.34292e-07
1.38287e-05
-2.94677e-07
1.38288e-05
-3.1859e-07
1.38235e-05
-2.97331e-07
1.38075e-05
-2.60834e-07
1.37913e-05
-2.50842e-07
1.3779e-05
-2.23078e-07
1.37727e-05
-1.8571e-07
1.37703e-05
-1.2447e-07
1.37682e-05
-8.47524e-08
1.37657e-05
-5.28419e-08
1.37653e-05
-3.85132e-08
1.37682e-05
-1.40492e-08
1.37744e-05
4.30574e-09
1.37797e-05
2.51448e-08
2.81708e-08
1.37831e-05
1.45477e-05
-4.00485e-08
1.45258e-05
-1.96618e-07
1.4505e-05
-3.83742e-07
1.45036e-05
-2.60072e-07
1.45001e-05
-2.30713e-07
1.44919e-05
-2.86479e-07
1.44884e-05
-3.15083e-07
1.44854e-05
-2.94377e-07
1.44722e-05
-2.47618e-07
1.4455e-05
-2.33641e-07
1.44416e-05
-2.09684e-07
1.44347e-05
-1.78784e-07
1.44326e-05
-1.22405e-07
1.44313e-05
-8.34284e-08
1.44291e-05
-5.06315e-08
1.44282e-05
-3.76879e-08
1.443e-05
-1.58522e-08
1.44352e-05
-8.90749e-10
1.44408e-05
1.96099e-08
2.43897e-08
1.44446e-05
1.52429e-05
-4.40214e-08
1.52226e-05
-1.76343e-07
1.52006e-05
-3.61789e-07
1.52002e-05
-2.59652e-07
1.51977e-05
-2.28164e-07
1.51874e-05
-2.7626e-07
1.51802e-05
-3.07885e-07
1.5178e-05
-2.92161e-07
1.51683e-05
-2.37862e-07
1.51512e-05
-2.16606e-07
1.51366e-05
-1.95021e-07
1.51287e-05
-1.70942e-07
1.51265e-05
-1.20214e-07
1.5126e-05
-8.29228e-08
1.51243e-05
-4.89494e-08
1.51232e-05
-3.65704e-08
1.51243e-05
-1.69614e-08
1.51284e-05
-4.9532e-09
1.51337e-05
1.43558e-08
2.04111e-08
1.51376e-05
1.5971e-05
-4.76451e-08
1.59528e-05
-1.58146e-07
1.59296e-05
-3.38634e-07
1.59293e-05
-2.59318e-07
1.59279e-05
-2.2683e-07
1.59166e-05
-2.6489e-07
1.59061e-05
-2.97442e-07
1.59027e-05
-2.88699e-07
1.58964e-05
-2.31606e-07
1.58811e-05
-2.013e-07
1.58655e-05
-1.79404e-07
1.58566e-05
-1.62038e-07
1.58538e-05
-1.17423e-07
1.58538e-05
-8.29633e-08
1.58529e-05
-4.80452e-08
1.58518e-05
-3.54764e-08
1.58521e-05
-1.72326e-08
1.58552e-05
-8.07871e-09
1.58599e-05
9.64276e-09
1.65483e-08
1.58638e-05
1.67336e-05
-5.06351e-08
1.67178e-05
-1.4231e-07
1.66937e-05
-3.14572e-07
1.66924e-05
-2.58031e-07
1.66919e-05
-2.26341e-07
1.66802e-05
-2.5321e-07
1.66673e-05
-2.84496e-07
1.6661e-05
-2.82426e-07
1.66576e-05
-2.2822e-07
1.66455e-05
-1.89167e-07
1.66299e-05
-1.63795e-07
1.66198e-05
-1.51968e-07
1.66161e-05
-1.13735e-07
1.66162e-05
-8.30577e-08
1.66161e-05
-4.78882e-08
1.66154e-05
-3.48009e-08
1.66151e-05
-1.6899e-08
1.66171e-05
-1.01343e-08
1.66214e-05
5.34952e-09
1.2923e-08
1.6625e-05
1.75325e-05
-5.27887e-08
1.75191e-05
-1.28883e-07
1.74946e-05
-2.90135e-07
1.74912e-05
-2.54621e-07
1.74911e-05
-2.26234e-07
1.74798e-05
-2.41926e-07
1.74652e-05
-2.69843e-07
1.74556e-05
-2.72815e-07
1.74533e-05
-2.25969e-07
1.74453e-05
-1.8117e-07
1.74312e-05
-1.49647e-07
1.74202e-05
-1.40941e-07
1.74153e-05
-1.08884e-07
1.74151e-05
-8.28111e-08
1.74153e-05
-4.81696e-08
1.74153e-05
-3.47837e-08
1.7415e-05
-1.66156e-08
1.74158e-05
-1.09035e-08
1.74195e-05
1.66842e-09
9.3516e-09
1.74231e-05
1.83696e-05
-5.40042e-08
1.83583e-05
-1.17633e-07
1.83342e-05
-2.66018e-07
1.83277e-05
-2.48154e-07
1.83278e-05
-2.26342e-07
1.83176e-05
-2.31672e-07
1.83023e-05
-2.54586e-07
1.82899e-05
-2.60386e-07
1.8286e-05
-2.22089e-07