/*--------------------------------*- C++ -*----------------------------------*\
| =========                 |                                                 |
| \\      /  F ield         | OpenFOAM: The Open Source CFD Toolbox           |
|  \\    /   O peration     | Version:  v1912                                 |
|   \\  /    A nd           | Website:  www.openfoam.com                      |
|    \\/     M anipulation  |                                                 |
\*---------------------------------------------------------------------------*/
FoamFile
{
    version     2.0;
    format      ascii;
    class       volVectorField;
    location    "5";
    object      U;
}
// * * * * * * * * * * * * * * * * * * * * * * * * * * * * * * * * * * * * * //

dimensions      [0 1 -1 0 0 0 0];


internalField   nonuniform List<vector> 
9600
(
(0.723385 -0.0023425 0)
(1.20391 -0.00553357 0)
(0.819973 -0.0279233 0)
(1.34133 0.0157048 0)
(0.8554 0.0139526 0)
(1.22877 0.013261 0)
(0.905269 -0.0197573 0)
(1.21706 -0.0233339 0)
(0.924853 -0.03062 0)
(1.2422 -0.0064783 0)
(0.857578 -0.00703301 0)
(1.2575 -0.0112536 0)
(0.975452 -0.0123627 0)
(1.27516 -0.00112018 0)
(0.952947 0.00232355 0)
(1.19468 0.00819366 0)
(0.894439 0.00679159 0)
(1.15086 0.00823984 0)
(0.880773 0.00597551 0)
(1.14951 0.00418449 0)
(0.750498 -0.00190312 0)
(1.1771 -0.00607575 0)
(0.835975 -0.0296056 0)
(1.32864 0.015344 0)
(0.896188 0.0146164 0)
(1.20913 0.0130765 0)
(0.968927 -0.0198126 0)
(1.17226 -0.0233341 0)
(0.955155 -0.031429 0)
(1.21252 -0.00509106 0)
(0.907602 -0.00763178 0)
(1.22087 -0.013166 0)
(1.01989 -0.0132751 0)
(1.24554 -9.72824e-05 0)
(1.00849 0.00408368 0)
(1.14908 0.00969509 0)
(0.971064 0.00817664 0)
(1.07632 0.00834359 0)
(0.986889 0.00683964 0)
(1.03677 0.0034298 0)
(0.793966 -0.00152554 0)
(1.13562 -0.00651091 0)
(0.856965 -0.0309177 0)
(1.29383 0.0150914 0)
(0.962371 0.0155257 0)
(1.19074 0.0126642 0)
(1.01691 -0.0193807 0)
(1.12002 -0.0229625 0)
(0.981093 -0.0318913 0)
(1.16183 -0.00455648 0)
(0.966694 -0.0080635 0)
(1.16398 -0.014725 0)
(1.06953 -0.0138547 0)
(1.20178 3.73901e-05 0)
(1.07299 0.00608235 0)
(1.11025 0.0107042 0)
(1.03044 0.00988255 0)
(1.04448 0.00810556 0)
(1.02472 0.00769727 0)
(1.02652 0.00379826 0)
(0.844831 -0.00114117 0)
(1.08893 -0.0067683 0)
(0.878629 -0.0322313 0)
(1.24006 0.0143965 0)
(1.02715 0.0161611 0)
(1.1768 0.0124052 0)
(1.05352 -0.0184438 0)
(1.07653 -0.0224498 0)
(0.996696 -0.0323203 0)
(1.10761 -0.00452234 0)
(1.00942 -0.00817855 0)
(1.10973 -0.0163131 0)
(1.09378 -0.014682 0)
(1.16473 -0.000102194 0)
(1.11103 0.00778188 0)
(1.10051 0.0117402 0)
(1.05993 0.0113454 0)
(1.04848 0.00846004 0)
(1.03833 0.00830166 0)
(1.03579 0.00432982 0)
(0.894421 -0.000737773 0)
(1.04748 -0.00686839 0)
(0.896408 -0.0334166 0)
(1.17915 0.0130562 0)
(1.07533 0.0163696 0)
(1.16809 0.0123853 0)
(1.0741 -0.0171344 0)
(1.04808 -0.0216903 0)
(0.999769 -0.0325013 0)
(1.06424 -0.00491032 0)
(1.02995 -0.00828194 0)
(1.07179 -0.0176485 0)
(1.09101 -0.0157893 0)
(1.13725 -0.00061371 0)
(1.12385 0.00890665 0)
(1.10485 0.0128868 0)
(1.07744 0.0127059 0)
(1.06109 0.00916463 0)
(1.05026 0.00895271 0)
(1.04447 0.00483611 0)
(0.935854 -0.000362859 0)
(1.01865 -0.00677178 0)
(0.908337 -0.0344532 0)
(1.12466 0.0112968 0)
(1.10384 0.0161314 0)
(1.16213 0.0126053 0)
(1.08251 -0.0155862 0)
(1.03436 -0.0207332 0)
(0.996209 -0.0324901 0)
(1.03624 -0.00559177 0)
(1.03604 -0.00841513 0)
(1.04912 -0.0186304 0)
(1.07394 -0.0170228 0)
(1.11307 -0.00153394 0)
(1.12119 0.00942368 0)
(1.10866 0.0138455 0)
(1.08902 0.0139239 0)
(1.07277 0.0100296 0)
(1.06077 0.00968108 0)
(1.05188 0.0055868 0)
(0.9658 -5.84022e-05 0)
(1.00432 -0.00648012 0)
(0.915368 -0.0353044 0)
(1.08485 0.0093268 0)
(1.11552 0.0154973 0)
(1.15528 0.0129848 0)
(1.08252 -0.0139292 0)
(1.02939 -0.0196374 0)
(0.991881 -0.0322812 0)
(1.02029 -0.00644552 0)
(1.03582 -0.00856312 0)
(1.03498 -0.0192363 0)
(1.0531 -0.0181585 0)
(1.08844 -0.00278958 0)
(1.10903 0.00932895 0)
(1.10628 0.0143844 0)
(1.09419 0.0149072 0)
(1.08016 0.0109546 0)
(1.06789 0.0105056 0)
(1.0568 0.00660405 0)
(0.984545 0.00014349 0)
(1.00153 -0.00603076 0)
(0.920378 -0.035957 0)
(1.05969 0.00724598 0)
(1.11449 0.0145946 0)
(1.14433 0.0134507 0)
(1.0771 -0.01227 0)
(1.02765 -0.018499 0)
(0.98957 -0.0319085 0)
(1.01108 -0.00739177 0)
(1.03279 -0.00869307 0)
(1.02414 -0.0194846 0)
(1.03308 -0.0190511 0)
(1.06336 -0.00423207 0)
(1.09078 0.00870632 0)
(1.09682 0.0144493 0)
(1.09217 0.0155836 0)
(1.08152 0.0118527 0)
(1.07014 0.0113811 0)
(1.05803 0.00781954 0)
(0.994704 0.000232555 0)
(1.00504 -0.00548769 0)
(0.926401 -0.0363987 0)
(1.04358 0.00516025 0)
(1.10395 0.0135983 0)
(1.12774 0.013939 0)
(1.06804 -0.010694 0)
(1.02602 -0.0174035 0)
(0.989421 -0.0313993 0)
(1.00468 -0.00834171 0)
(1.02748 -0.00877017 0)
(1.01448 -0.0194353 0)
(1.01538 -0.0196579 0)
(1.03935 -0.00571376 0)
(1.06919 0.00770295 0)
(1.08153 0.0140848 0)
(1.08336 0.0159138 0)
(1.07654 0.0126506 0)
(1.06686 0.0122313 0)
(1.05498 0.00913037 0)
(0.999521 0.000223341 0)
(1.01 -0.00492626 0)
(0.935073 -0.0366224 0)
(1.0303 0.0032219 0)
(1.08629 0.0126368 0)
(1.10607 0.0143793 0)
(1.05678 -0.00928732 0)
(1.02347 -0.0164296 0)
(0.99062 -0.0307824 0)
(0.999235 -0.00920277 0)
(1.02028 -0.00878769 0)
(1.00594 -0.0191751 0)
(1.00078 -0.0199805 0)
(1.01806 -0.00709738 0)
(1.04686 0.00647399 0)
(1.06267 0.0133907 0)
(1.06926 0.0159116 0)
(1.06615 0.013303 0)
(1.0586 0.0129863 0)
(1.04797 0.010425 0)
(1.00162 0.000144269 0)
(1.01354 -0.00441559 0)
(0.946047 -0.0366284 0)
(1.01648 0.00155806 0)
(1.06417 0.0117793 0)
(1.08165 0.0147068 0)
(1.04482 -0.00811582 0)
(1.02002 -0.0156283 0)
(0.992297 -0.0300854 0)
(0.994436 -0.00991602 0)
(1.01235 -0.00875596 0)
(0.999142 -0.0187908 0)
(0.989885 -0.0200352 0)
(1.00077 -0.008286 0)
(1.02605 0.00517255 0)
(1.04271 0.0124999 0)
(1.05209 0.0156342 0)
(1.05213 0.0137892 0)
(1.04685 0.0136023 0)
(1.03812 0.0116011 0)
(1.00256 2.78208e-05 0)
(1.01485 -0.00400073 0)
(0.957605 -0.0364278 0)
(1.00216 0.00024005 0)
(1.04108 0.0110391 0)
(1.05778 0.014866 0)
(1.03364 -0.00721117 0)
(1.01615 -0.0150243 0)
(0.993798 -0.0293384 0)
(0.990629 -0.0104708 0)
(1.00514 -0.00869504 0)
(0.994463 -0.0183575 0)
(0.98278 -0.0198571 0)
(0.987969 -0.00921415 0)
(1.00834 0.00393859 0)
(1.02378 0.0115431 0)
(1.03417 0.0151608 0)
(1.03656 0.0141084 0)
(1.03353 0.0140634 0)
(1.02701 0.0125773 0)
(1.00304 -0.000100661 0)
(1.01441 -0.00369774 0)
(0.967892 -0.036042 0)
(0.989222 -0.000723066 0)
(1.02058 0.0103974 0)
(1.03743 0.0148288 0)
(1.02436 -0.00656101 0)
(1.01238 -0.0146068 0)
(0.994751 -0.0285696 0)
(0.988017 -0.0108869 0)
(0.999609 -0.00862658 0)
(0.991755 -0.0179252 0)
(0.978904 -0.0194923 0)
(0.979372 -0.00985026 0)
(0.994471 0.00286486 0)
(1.00737 0.0106272 0)
(1.01744 0.0145739 0)
(1.02139 0.0142715 0)
(1.02045 0.0143653 0)
(1.01614 0.0132984 0)
(1.00332 -0.000225442 0)
(1.01306 -0.00349615 0)
(0.975842 -0.0355046 0)
(0.979417 -0.00137868 0)
(1.00502 0.00982613 0)
(1.0222 0.0146101 0)
(1.01745 -0.00611825 0)
(1.00907 -0.0143348 0)
(0.995076 -0.0277987 0)
(0.986431 -0.0112048 0)
(0.995916 -0.00856269 0)
(0.990496 -0.0175176 0)
(0.977301 -0.0189841 0)
(0.97415 -0.010196 0)
(0.984425 0.00199511 0)
(0.994247 0.00982662 0)
(1.00325 0.0139421 0)
(1.00809 0.0142911 0)
(1.00897 0.0145127 0)
(1.00662 0.0137482 0)
(1.00348 -0.00033848 0)
(1.01151 -0.00337236 0)
(0.98135 -0.0348551 0)
(0.973262 -0.00180244 0)
(0.994872 0.00930026 0)
(1.01211 0.0142455 0)
(1.01275 -0.00581707 0)
(1.00639 -0.0141626 0)
(0.994903 -0.0270317 0)
(0.985492 -0.0114661 0)
(0.993656 -0.00851458 0)
(0.990081 -0.0171366 0)
(0.977013 -0.0183736 0)
(0.971329 -0.0102829 0)
(0.977686 0.00133381 0)
(0.984561 0.00917274 0)
(0.992249 0.0133133 0)
(0.997495 0.01418 0)
(0.999853 0.0145262 0)
(0.999046 0.0139483 0)
(1.00357 -0.000437684 0)
(1.01007 -0.00330338 0)
(0.9849 -0.0341242 0)
(0.970119 -0.00207994 0)
(0.989126 0.00881634 0)
(1.00607 0.013781 0)
(1.00978 -0.005597 0)
(1.00433 -0.0140492 0)
(0.994458 -0.0262679 0)
(0.984866 -0.0117031 0)
(0.992235 -0.00848918 0)
(0.990015 -0.0167758 0)
(0.97732 -0.0176959 0)
(0.970061 -0.0101588 0)
(0.97356 0.000855955 0)
(0.978013 0.00865675 0)
(0.984488 0.0127204 0)
(0.98985 0.0139513 0)
(0.993308 0.0144335 0)
(0.993573 0.0139474 0)
(1.00366 -0.00052364 0)
(1.00886 -0.00327211 0)
(0.987102 -0.0333343 0)
(0.968909 -0.00227322 0)
(0.986254 0.00836499 0)
(1.00278 0.0132496 0)
(1.00798 -0.00541501 0)
(1.00282 -0.0139646 0)
(0.993952 -0.0255033 0)
(0.984375 -0.011929 0)
(0.991162 -0.00848957 0)
(0.989978 -0.0164278 0)
(0.977779 -0.0169838 0)
(0.96973 -0.00987693 0)
(0.971366 0.000521808 0)
(0.974056 0.00824609 0)
(0.979599 0.0121782 0)
(0.984923 0.0136241 0)
(0.989143 0.014257 0)
(0.990043 0.0138069 0)
(1.00376 -0.000597918 0)
(1.00784 -0.00326583 0)
(0.988421 -0.0325011 0)
(0.968711 -0.00242521 0)
(0.984958 0.00793061 0)
(1.00116 0.0126712 0)
(1.00693 -0.00524215 0)
(1.00173 -0.0138885 0)
(0.993519 -0.0247326 0)
(0.983986 -0.0121412 0)
(0.990157 -0.00851423 0)
(0.989816 -0.0160858 0)
(0.978162 -0.0162688 0)
(0.969934 -0.00949085 0)
(0.970524 0.000284766 0)
(0.972076 0.00790062 0)
(0.977003 0.0116821 0)
(0.982228 0.0132225 0)
(0.986944 0.0140118 0)
(0.988155 0.013585 0)
(1.0039 -0.000663352 0)
(1.00699 -0.00327265 0)
(0.989139 -0.0316377 0)
(0.968973 -0.00256229 0)
(0.984422 0.00750443 0)
(1.00054 0.0120553 0)
(1.00632 -0.00506399 0)
(1.00096 -0.0138092 0)
(0.993208 -0.023952 0)
(0.983736 -0.0123327 0)
(0.989136 -0.00855926 0)
(0.989504 -0.0157427 0)
(0.978392 -0.0155678 0)
(0.970434 -0.00904273 0)
(0.970585 0.000108274 0)
(0.971511 0.0075834 0)
(0.976108 0.0112202 0)
(0.981209 0.0127676 0)
(0.986232 0.0137089 0)
(0.987562 0.0133237 0)
(1.00404 -0.000720992 0)
(1.0063 -0.0032869 0)
(0.989428 -0.030748 0)
(0.969457 -0.00269876 0)
(0.984226 0.00708261 0)
(1.00053 0.0114064 0)
(1.00597 -0.00487064 0)
(1.0004 -0.0137197 0)
(0.99301 -0.0231651 0)
(0.983671 -0.0124915 0)
(0.988132 -0.0086192 0)
(0.989097 -0.0153946 0)
(0.978486 -0.0148943 0)
(0.971109 -0.00857185 0)
(0.971224 -3.57302e-05 0)
(0.971906 0.00726 0)
(0.97639 0.0107796 0)
(0.981349 0.0122744 0)
(0.986533 0.0133552 0)
(0.987893 0.0130463 0)
(1.00415 -0.000772643 0)
(1.00576 -0.00330434 0)
(0.989412 -0.0298327 0)
(0.970113 -0.00283961 0)
(0.984182 0.00665587 0)
(1.00087 0.0107239 0)
(1.00575 -0.00465729 0)
(0.999989 -0.0136146 0)
(0.99289 -0.0223755 0)
(0.983814 -0.0126087 0)
(0.987222 -0.00868895 0)
(0.988672 -0.015041 0)
(0.978519 -0.014259 0)
(0.971907 -0.00810796 0)
(0.972214 -0.000168922 0)
(0.972894 0.00690483 0)
(0.977396 0.0103482 0)
(0.982181 0.0117582 0)
(0.987403 0.0129531 0)
(0.98876 0.0127637 0)
(1.00421 -0.000819521 0)
(1.00534 -0.0033211 0)
(0.9892 -0.028895 0)
(0.970963 -0.00299243 0)
(0.984211 0.00622119 0)
(1.00137 0.010011 0)
(1.0056 -0.00442217 0)
(0.999691 -0.0134884 0)
(0.992814 -0.021589 0)
(0.984147 -0.0126813 0)
(0.986476 -0.00876689 0)
(0.988285 -0.0146732 0)
(0.978581 -0.0136698 0)
(0.972797 -0.00767459 0)
(0.973383 -0.000306611 0)
(0.974175 0.00650351 0)
(0.978727 0.00991503 0)
(0.983303 0.0112372 0)
(0.988454 0.0125076 0)
(0.989794 0.0124774 0)
(1.0042 -0.000861364 0)
(1.00502 -0.00333475 0)
(0.98888 -0.02794 0)
(0.972024 -0.00316664 0)
(0.984285 0.00578059 0)
(1.00187 0.00926935 0)
(1.00548 -0.00416747 0)
(0.999494 -0.013336 0)
(0.992763 -0.0208163 0)
(0.984622 -0.0127073 0)
(0.985937 -0.00884807 0)
(0.987959 -0.0142919 0)
(0.978743 -0.0131228 0)
(0.973752 -0.00728348 0)
(0.974607 -0.000449361 0)
(0.975516 0.00605433 0)
(0.98006 0.00947342 0)
(0.98441 0.0107242 0)
(0.989402 0.0120334 0)
(0.990716 0.012187 0)
(1.00409 -0.000899225 0)
(1.00477 -0.00334193 0)
(0.988521 -0.0269734 0)
(0.973267 -0.00335917 0)
(0.984405 0.00533517 0)
(1.00224 0.00849797 0)
(1.00538 -0.00390004 0)
(0.999408 -0.0131525 0)
(0.992735 -0.0200619 0)
(0.98518 -0.0126865 0)
(0.985621 -0.00892831 0)
(0.987695 -0.0139001 0)
(0.979051 -0.012614 0)
(0.974741 -0.00693878 0)
(0.975801 -0.00059044 0)
(0.976778 0.00556516 0)
(0.981192 0.00902399 0)
(0.98533 0.0102238 0)
(0.990102 0.0115424 0)
(0.991383 0.0118947 0)
(1.00392 -0.00093225 0)
(1.00459 -0.00334326 0)
(0.988181 -0.0259987 0)
(0.974619 -0.00356853 0)
(0.984597 0.00489699 0)
(1.00238 0.0077026 0)
(1.00527 -0.00363066 0)
(0.99944 -0.0129317 0)
(0.99274 -0.0193276 0)
(0.985768 -0.0126254 0)
(0.985526 -0.00900197 0)
(0.98749 -0.013497 0)
(0.979518 -0.012141 0)
(0.975743 -0.00663795 0)
(0.976927 -0.000723828 0)
(0.977912 0.00505062 0)
(0.982052 0.00857113 0)
(0.986017 0.00974048 0)
(0.990535 0.0110313 0)
(0.991781 0.0115931 0)
(1.00368 -0.000959624 0)
(1.00446 -0.00334123 0)
(0.987914 -0.0250164 0)
(0.975985 -0.00379727 0)
(0.984891 0.00447376 0)
(1.00227 0.00688886 0)
(1.00513 -0.00337381 0)
(0.999579 -0.0126721 0)
(0.992788 -0.0186136 0)
(0.986357 -0.0125306 0)
(0.985631 -0.00906921 0)
(0.987344 -0.0130882 0)
(0.980124 -0.0116956 0)
(0.976746 -0.0063687 0)
(0.977973 -0.000837824 0)
(0.978933 0.00453258 0)
(0.982669 0.00812146 0)
(0.986506 0.00928339 0)
(0.990754 0.0104992 0)
(0.991973 0.0112568 0)
(1.00339 -0.000980922 0)
(1.00438 -0.00333838 0)
(0.987778 -0.0240264 0)
(0.977275 -0.0040424 0)
(0.985299 0.00406807 0)
(1.00193 0.00606354 0)
(1.00489 -0.0031471 0)
(0.999796 -0.0123707 0)
(0.992886 -0.0179212 0)
(0.986939 -0.0124018 0)
(0.985895 -0.0091293 0)
(0.987263 -0.0126751 0)
(0.980829 -0.0112756 0)
(0.977743 -0.00613259 0)
(0.978939 -0.000933026 0)
(0.979871 0.00402359 0)
(0.983112 0.00767405 0)
(0.986851 0.00885958 0)
(0.990826 0.00996739 0)
(0.992041 0.0108652 0)
(1.00306 -0.000996539 0)
(1.00435 -0.00333515 0)
(0.98782 -0.0230288 0)
(0.978423 -0.00430359 0)
(0.985798 0.0036844 0)
(1.00141 0.00523655 0)
(1.0045 -0.00296519 0)
(1.00004 -0.0120287 0)
(0.993031 -0.0172473 0)
(0.987522 -0.0122446 0)
(0.986269 -0.00917698 0)
(0.98725 -0.012264 0)
(0.981578 -0.0108731 0)
(0.978721 -0.00592731 0)
(0.979821 -0.00101022 0)
(0.980743 0.00353242 0)
(0.983448 0.00721533 0)
(0.987098 0.00845904 0)
(0.990801 0.00946089 0)
(0.992041 0.0104221 0)
(1.0027 -0.00100767 0)
(1.00436 -0.00333514 0)
(0.988064 -0.0220229 0)
(0.979396 -0.00457247 0)
(0.986333 0.00332209 0)
(1.00078 0.00442177 0)
(1.00393 -0.0028401 0)
(1.00025 -0.0116557 0)
(0.993207 -0.0165894 0)
(0.988112 -0.012067 0)
(0.986703 -0.00920987 0)
(0.9873 -0.0118553 0)
(0.982324 -0.0104859 0)
(0.979664 -0.00573753 0)
(0.980614 -0.00106191 0)
(0.981542 0.00307902 0)
(0.983722 0.00674697 0)
(0.987274 0.00806424 0)
(0.990712 0.00898531 0)
(0.992005 0.0099416 0)
(1.00232 -0.00101221 0)
(1.00439 -0.0033473 0)
(0.988504 -0.0210066 0)
(0.980203 -0.00484694 0)
(0.986842 0.00297727 0)
(1.00012 0.0036325 0)
(1.00319 -0.00277946 0)
(1.00038 -0.0112588 0)
(0.993396 -0.0159528 0)
(0.988705 -0.01187 0)
(0.987153 -0.00922154 0)
(0.9874 -0.0114449 0)
(0.983037 -0.0101146 0)
(0.980558 -0.00556423 0)
(0.981323 -0.00109915 0)
(0.982261 0.00267027 0)
(0.983962 0.00628649 0)
(0.987393 0.00767193 0)
(0.990584 0.00853785 0)
(0.991949 0.00944723 0)
(1.00194 -0.00101041 0)
(1.00441 -0.00337548 0)
(0.989096 -0.0199779 0)
(0.980885 -0.00511794 0)
(0.987285 0.00264332 0)
(0.999497 0.00287674 0)
(1.00232 -0.00278318 0)
(1.0004 -0.0108483 0)
(0.99358 -0.0153364 0)
(0.98929 -0.0116619 0)
(0.987588 -0.00921365 0)
(0.987532 -0.0110373 0)
(0.983699 -0.00974888 0)
(0.981394 -0.00539901 0)
(0.98196 -0.0011275 0)
(0.982901 0.00229674 0)
(0.984192 0.00583805 0)
(0.98747 0.00728643 0)
(0.990439 0.00810823 0)
(0.991885 0.00895376 0)
(1.00159 -0.00100369 0)
(1.00441 -0.00342113 0)
(0.989776 -0.0189361 0)
(0.981503 -0.00536661 0)
(0.98765 0.00231556 0)
(0.998954 0.00216275 0)
(1.00141 -0.00284653 0)
(1.0003 -0.0104411 0)
(0.993748 -0.0147353 0)
(0.989851 -0.0114478 0)
(0.987989 -0.00917817 0)
(0.987677 -0.0106386 0)
(0.984308 -0.00939198 0)
(0.982171 -0.00523289 0)
(0.982544 -0.00113443 0)
(0.983477 0.00195793 0)
(0.984435 0.00539533 0)
(0.987531 0.00691429 0)
(0.990305 0.00769105 0)
(0.991832 0.00845011 0)
(1.00127 -0.000990448 0)
(1.00434 -0.00348476 0)
(0.990475 -0.0178871 0)
(0.982122 -0.00558469 0)
(0.987959 0.00198342 0)
(0.998517 0.00149503 0)
(1.00053 -0.00296226 0)
(1.00008 -0.010044 0)
(0.993895 -0.014151 0)
(0.990376 -0.0112371 0)
(0.98835 -0.00909995 0)
(0.987822 -0.0102422 0)
(0.984867 -0.0090453 0)
(0.982898 -0.00507802 0)
(0.983092 -0.00112341 0)
(0.984005 0.00165846 0)
(0.984715 0.00494876 0)
(0.987602 0.00655217 0)
(0.990199 0.00731127 0)
(0.991805 0.00795362 0)
(1.00101 -0.000969949 0)
(1.00421 -0.00356637 0)
(0.991133 -0.0168386 0)
(0.982788 -0.00576475 0)
(0.988246 0.00164151 0)
(0.998185 0.000873044 0)
(0.999747 -0.00311996 0)
(0.999781 -0.00965751 0)
(0.994017 -0.0135778 0)
(0.99086 -0.0110397 0)
(0.988674 -0.00899192 0)
(0.987964 -0.00984364 0)
(0.98538 -0.00869737 0)
(0.983589 -0.00493306 0)
(0.983623 -0.00109887 0)
(0.984503 0.00140454 0)
(0.985047 0.00449346 0)
(0.987715 0.00616679 0)
(0.990142 0.0069629 0)
(0.991803 0.00749868 0)
(1.0008 -0.000942145 0)
(1.00402 -0.0036622 0)
(0.991713 -0.0157989 0)
(0.983525 -0.00590232 0)
(0.988548 0.00128753 0)
(0.997941 0.000299967 0)
(0.999079 -0.00331032 0)
(0.999418 -0.00929489 0)
(0.994114 -0.0130087 0)
(0.991302 -0.0108453 0)
(0.988971 -0.00886301 0)
(0.988107 -0.00944585 0)
(0.985858 -0.00835305 0)
(0.984259 -0.00480476 0)
(0.984149 -0.00107002 0)
(0.98498 0.00120137 0)
(0.985425 0.00405945 0)
(0.987885 0.00575428 0)
(0.990148 0.00661313 0)
(0.991828 0.00708749 0)
(1.00064 -0.000906259 0)
(1.00378 -0.00376682 0)
(0.9922 -0.0147805 0)
(0.984333 -0.0059898 0)
(0.988892 0.00091929 0)
(0.997766 -0.000225042 0)
(0.998531 -0.00351737 0)
(0.999021 -0.0089544 0)
(0.994185 -0.0124572 0)
(0.991706 -0.0106517 0)
(0.98925 -0.00871446 0)
(0.988258 -0.00903605 0)
(0.986307 -0.00801734 0)
(0.98492 -0.00469203 0)
(0.984681 -0.00104378 0)
(0.985444 0.0010344 0)
(0.985837 0.00365614 0)
(0.988106 0.00534166 0)
(0.990214 0.00626212 0)
(0.99187 0.00673025 0)
(1.00052 -0.000862716 0)
(1.00352 -0.00387449 0)
(0.992599 -0.0137903 0)
(0.985193 -0.00603202 0)
(0.989284 0.000539779 0)
(0.99764 -0.000711249 0)
(0.998091 -0.00374183 0)
(0.998612 -0.00862981 0)
(0.994229 -0.0119146 0)
(0.992077 -0.010461 0)
(0.989521 -0.00856798 0)
(0.988421 -0.00861955 0)
(0.986733 -0.00767977 0)
(0.985581 -0.00459286 0)
(0.985222 -0.00102409 0)
(0.985898 0.000902033 0)
(0.98627 0.00326062 0)
(0.988372 0.00491084 0)
(0.990335 0.00589052 0)
(0.991924 0.0064076 0)
(1.00043 -0.000813067 0)
(1.00325 -0.00397771 0)
(0.992928 -0.0128391 0)
(0.986076 -0.00603193 0)
(0.98972 0.000149399 0)
(0.997549 -0.00115333 0)
(0.997742 -0.00397389 0)
(0.998213 -0.00833667 0)
(0.994246 -0.0113736 0)
(0.992414 -0.0102609 0)
(0.989792 -0.00842499 0)
(0.988601 -0.00819616 0)
(0.987142 -0.00733471 0)
(0.986245 -0.00451904 0)
(0.98578 -0.00102488 0)
(0.986339 0.000831876 0)
(0.986706 0.0029161 0)
(0.988671 0.00446778 0)
(0.990506 0.0054937 0)
(0.991995 0.00607542 0)
(1.00037 -0.000756076 0)
(1.00299 -0.00407386 0)
(0.99321 -0.011939 0)
(0.986955 -0.00598605 0)
(0.990189 -0.000239818 0)
(0.997483 -0.00156424 0)
(0.997464 -0.00420345 0)
(0.997838 -0.00806423 0)
(0.994239 -0.0108436 0)
(0.992721 -0.0100495 0)
(0.990069 -0.00830216 0)
(0.988797 -0.00778185 0)
(0.987529 -0.00695986 0)
(0.986907 -0.00445916 0)
(0.986366 -0.00106085 0)
(0.986778 0.00078421 0)
(0.987124 0.00264411 0)
(0.988983 0.00404414 0)
(0.990713 0.00509418 0)
(0.992081 0.00575197 0)
(1.00031 -0.000696208 0)
(1.00275 -0.0041535 0)
(0.993466 -0.0110851 0)
(0.98781 -0.00591392 0)
(0.990674 -0.000626447 0)
(0.997434 -0.0019227 0)
(0.997243 -0.00443715 0)
(0.9975 -0.00781793 0)
(0.994213 -0.0103177 0)
(0.992993 -0.0098198 0)
(0.990355 -0.00818266 0)
(0.989017 -0.00741323 0)
(0.987895 -0.00657134 0)
(0.987552 -0.00439055 0)
(0.986973 -0.00111631 0)
(0.987222 0.000738923 0)
(0.987525 0.0024224 0)
(0.989296 0.00364249 0)
(0.990955 0.0046584 0)
(0.992194 0.00539312 0)
(1.00026 -0.000632743 0)
(1.00254 -0.0042224 0)
(0.993715 -0.0102829 0)
(0.988627 -0.0057978 0)
(0.991166 -0.00101165 0)
(0.9974 -0.00225496 0)
(0.997062 -0.00465085 0)
(0.997208 -0.00760061 0)
(0.994177 -0.0098056 0)
(0.993235 -0.00957491 0)
(0.990647 -0.00806461 0)
(0.989256 -0.00705555 0)
(0.988246 -0.0061933 0)
(0.988176 -0.00432477 0)
(0.9876 -0.00122728 0)
(0.987672 0.000708578 0)
(0.987898 0.00228628 0)
(0.989586 0.00332729 0)
(0.991209 0.00425745 0)
(0.992345 0.00499283 0)
(1.00021 -0.000568521 0)
(1.00236 -0.00426458 0)
(0.993972 -0.00954925 0)
(0.989401 -0.00565569 0)
(0.991648 -0.00138265 0)
(0.997377 -0.0025405 0)
(0.996916 -0.00485555 0)
(0.996962 -0.00741614 0)
(0.994135 -0.00930721 0)
(0.993444 -0.00930406 0)
(0.990953 -0.0079527 0)
(0.98952 -0.00675874 0)
(0.988571 -0.00579243 0)
(0.988758 -0.00421724 0)
(0.988247 -0.00136564 0)
(0.988155 0.000613414 0)
(0.988258 0.00217785 0)
(0.989851 0.00307847 0)
(0.991451 0.00389808 0)
(0.992519 0.00458382 0)
(1.00016 -0.000505455 0)
(1.00221 -0.00428884 0)
(0.994241 -0.00886545 0)
(0.990133 -0.0054763 0)
(0.992125 -0.00176261 0)
(0.997361 -0.00280142 0)
(0.996788 -0.00502309 0)
(0.996764 -0.00726492 0)
(0.994102 -0.00883932 0)
(0.993626 -0.00899852 0)
(0.991259 -0.00782801 0)
(0.989812 -0.00650935 0)
(0.988898 -0.00543843 0)
(0.989295 -0.00410866 0)
(0.98888 -0.00151116 0)
(0.988653 0.000473942 0)
(0.988615 0.00206181 0)
(0.990083 0.00286397 0)
(0.991666 0.00357166 0)
(0.9927 0.00412072 0)
(1.0001 -0.00044432 0)
(1.00207 -0.00428437 0)
(0.994531 -0.00825728 0)
(0.990823 -0.00526389 0)
(0.992582 -0.00213171 0)
(0.997359 -0.00302981 0)
(0.996683 -0.00515189 0)
(0.996607 -0.00714445 0)
(0.99408 -0.00840977 0)
(0.993782 -0.00866638 0)
(0.991572 -0.00770932 0)
(0.990124 -0.006295 0)
(0.989205 -0.00507881 0)
(0.989786 -0.00398865 0)
(0.989512 -0.00171753 0)
(0.989185 0.000223013 0)
(0.988979 0.00182035 0)
(0.990293 0.00255 0)
(0.991825 0.00322443 0)
(0.992882 0.00369175 0)
(1.00005 -0.000390434 0)
(1.00195 -0.00424324 0)
(0.994837 -0.00771482 0)
(0.991476 -0.00501344 0)
(0.993029 -0.00249569 0)
(0.997368 -0.0032427 0)
(0.996588 -0.00522201 0)
(0.996488 -0.00703898 0)
(0.994079 -0.00801775 0)
(0.993917 -0.00832684 0)
(0.99188 -0.00753535 0)
(0.990479 -0.00613823 0)
(0.989522 -0.00480664 0)
(0.990203 -0.00379067 0)
(0.990087 -0.00194863 0)
(0.98971 -0.000222441 0)
(0.989339 0.00139067 0)
(0.990502 0.00208409 0)
(0.99201 0.00276017 0)
(0.993138 0.00328933 0)
(1 -0.000342931 0)
(1.00185 -0.00417038 0)
(0.995163 -0.00724286 0)
(0.992087 -0.00473611 0)
(0.993448 -0.00282707 0)
(0.997401 -0.00345129 0)
(0.996518 -0.00524518 0)
(0.996397 -0.00692504 0)
(0.994092 -0.00769384 0)
(0.99404 -0.00797329 0)
(0.992183 -0.00736217 0)
(0.990831 -0.00598485 0)
(0.989857 -0.00453803 0)
(0.990583 -0.00368944 0)
(0.990574 -0.00210262 0)
(0.990221 -0.000395104 0)
(0.989721 0.00131048 0)
(0.990716 0.00202881 0)
(0.992218 0.00265783 0)
(0.993464 0.00314602 0)
(0.999957 -0.000304017 0)
(1.00175 -0.00405687 0)
(0.995501 -0.00683472 0)
(0.992674 -0.00446195 0)
(0.993855 -0.00310423 0)
(0.997446 -0.00368872 0)
(0.996454 -0.00522777 0)
(0.996329 -0.00679961 0)
(0.994134 -0.00741012 0)
(0.994149 -0.00763313 0)
(0.992476 -0.00715475 0)
(0.991239 -0.00585269 0)
(0.990182 -0.00434599 0)
(0.990906 -0.00353183 0)
(0.991107 -0.00219045 0)
(0.990813 -0.000691139 0)
(0.990152 0.00106639 0)
(0.990926 0.0018672 0)
(0.992366 0.00245401 0)
(0.993573 0.0029377 0)
(0.999914 -0.000276312 0)
(1.00166 -0.00390905 0)
(0.995855 -0.00647475 0)
(0.993224 -0.00420311 0)
(0.994223 -0.00331048 0)
(0.99752 -0.00394798 0)
(0.996429 -0.00518595 0)
(0.996277 -0.00663462 0)
(0.994188 -0.00714265 0)
(0.99426 -0.00733668 0)
(0.992758 -0.00691638 0)
(0.991618 -0.00574148 0)
(0.990551 -0.00418004 0)
(0.991228 -0.00333355 0)
(0.991483 -0.00226535 0)
(0.991317 -0.00106737 0)
(0.99062 0.000668746 0)
(0.991173 0.0016146 0)
(0.992566 0.00217266 0)
(0.993857 0.00264889 0)
(0.999876 -0.000259446 0)
(1.00157 -0.00372315 0)
(0.99621 -0.00616952 0)
(0.993757 -0.00397657 0)
(0.994571 -0.00342444 0)
(0.997602 -0.00419013 0)
(0.996426 -0.00517238 0)
(0.996241 -0.00641082 0)
(0.994256 -0.00688966 0)
(0.994368 -0.00705948 0)
(0.993031 -0.00667898 0)
(0.992048 -0.00560106 0)
(0.990931 -0.0040031 0)
(0.991496 -0.00321317 0)
(0.991859 -0.00221017 0)
(0.991839 -0.00113391 0)
(0.991139 0.000549775 0)
(0.991452 0.00163969 0)
(0.992717 0.00219684 0)
(0.994041 0.00247522 0)
(0.999843 -0.000254699 0)
(1.00148 -0.00350961 0)
(0.996572 -0.00589181 0)
(0.994269 -0.00378389 0)
(0.994877 -0.003474 0)
(0.997697 -0.00441199 0)
(0.996474 -0.00516816 0)
(0.996226 -0.00617004 0)
(0.994324 -0.00661062 0)
(0.994481 -0.00679356 0)
(0.993299 -0.00642924 0)
(0.992446 -0.00546535 0)
(0.991328 -0.00390437 0)
(0.99181 -0.00301502 0)
(0.992201 -0.00210562 0)
(0.992322 -0.0012572 0)
(0.991697 0.000300872 0)
(0.991788 0.00144864 0)
(0.992822 0.00207987 0)
(0.99414 0.00220346 0)
(0.999815 -0.000262762 0)
(1.00139 -0.00326894 0)
(0.996924 -0.00564813 0)
(0.994771 -0.0036385 0)
(0.995163 -0.00345822 0)
(0.997787 -0.00455335 0)
(0.99655 -0.00522139 0)
(0.996239 -0.00593587 0)
(0.9944 -0.00629408 0)
(0.994588 -0.00652518 0)
(0.993557 -0.0061926 0)
(0.992872 -0.0053085 0)
(0.991767 -0.00373848 0)
(0.992106 -0.00286916 0)
(0.992488 -0.00203517 0)
(0.992749 -0.00133554 0)
(0.992237 4.02978e-05 0)
(0.992162 0.00118154 0)
(0.99294 0.00192244 0)
(0.994209 0.00200526 0)
(0.999793 -0.00028113 0)
(1.00129 -0.00301749 0)
(0.997268 -0.00541044 0)
(0.995261 -0.0035228 0)
(0.995417 -0.0034248 0)
(0.997863 -0.00464172 0)
(0.996669 -0.00528834 0)
(0.996298 -0.00571476 0)
(0.994478 -0.00595147 0)
(0.994689 -0.00623584 0)
(0.993814 -0.00593613 0)
(0.993284 -0.00514261 0)
(0.992198 -0.00365391 0)
(0.992419 -0.00276958 0)
(0.992776 -0.00193523 0)
(0.993137 -0.00136675 0)
(0.992766 -0.000190117 0)
(0.992593 0.000884624 0)
(0.993096 0.00175408 0)
(0.994251 0.00184468 0)
(0.999775 -0.000309637 0)
(1.00119 -0.00275661 0)
(0.997592 -0.00518339 0)
(0.995741 -0.00345403 0)
(0.99566 -0.00336675 0)
(0.997926 -0.00463492 0)
(0.996808 -0.00534664 0)
(0.996399 -0.00555681 0)
(0.99457 -0.00560473 0)
(0.994781 -0.00590874 0)
(0.994056 -0.00567418 0)
(0.993694 -0.00499781 0)
(0.992657 -0.0035627 0)
(0.992755 -0.00265306 0)
(0.993039 -0.00184587 0)
(0.99346 -0.00138516 0)
(0.993235 -0.000379231 0)
(0.99305 0.000565503 0)
(0.993313 0.0015432 0)
(0.994298 0.00169634 0)
(0.999762 -0.000344573 0)
(1.00109 -0.00250057 0)
(0.997896 -0.00494928 0)
(0.996212 -0.00340789 0)
(0.99589 -0.00330806 0)
(0.997964 -0.00457058 0)
(0.996959 -0.00537336 0)
(0.996555 -0.005457 0)
(0.99469 -0.00527191 0)
(0.994863 -0.00555067 0)
(0.994277 -0.00539015 0)
(0.994089 -0.00484475 0)
(0.993119 -0.00349935 0)
(0.993099 -0.00258579 0)
(0.9933 -0.00177147 0)
(0.99376 -0.00137947 0)
(0.993668 -0.000498368 0)
(0.993529 0.000289627 0)
(0.993603 0.0012934 0)
(0.994368 0.00153825 0)
(0.999754 -0.00038497 0)
(1.00099 -0.00225164 0)
(0.998169 -0.00470476 0)
(0.996667 -0.00339134 0)
(0.996121 -0.0032582 0)
(0.997989 -0.00444494 0)
(0.997101 -0.00533406 0)
(0.996751 -0.00540658 0)
(0.99485 -0.00499006 0)
(0.994942 -0.00517856 0)
(0.99447 -0.00507758 0)
(0.99446 -0.00467949 0)
(0.99359 -0.00344824 0)
(0.993476 -0.00253188 0)
(0.993564 -0.00168304 0)
(0.994025 -0.00135525 0)
(0.994037 -0.000587407 0)
(0.993971 4.68885e-05 0)
(0.993934 0.0010024 0)
(0.99449 0.00133328 0)
(0.999749 -0.000425852 0)
(1.00088 -0.00201997 0)
(0.99841 -0.00444838 0)
(0.997107 -0.00338292 0)
(0.996354 -0.0032166 0)
(0.998002 -0.00429529 0)
(0.997225 -0.00523713 0)
(0.996979 -0.00537251 0)
(0.995062 -0.00477557 0)
(0.995032 -0.00480293 0)
(0.994633 -0.00472898 0)
(0.994795 -0.00448251 0)
(0.994053 -0.00339411 0)
(0.993874 -0.00251921 0)
(0.993838 -0.00162153 0)
(0.994269 -0.00132177 0)
(0.994367 -0.000645072 0)
(0.994385 -0.000132945 0)
(0.994297 0.000759587 0)
(0.994674 0.00112261 0)
(0.999747 -0.000465404 0)
(1.00078 -0.00180833 0)
(0.998615 -0.00417245 0)
(0.997522 -0.00338544 0)
(0.996595 -0.00319653 0)
(0.998015 -0.00412179 0)
(0.997325 -0.00507392 0)
(0.997214 -0.00532828 0)
(0.995328 -0.00464447 0)
(0.995151 -0.004453 0)
(0.994768 -0.004357 0)
(0.995082 -0.0042549 0)
(0.994492 -0.00332599 0)
(0.994296 -0.00252565 0)
(0.99414 -0.00158373 0)
(0.9945 -0.00127029 0)
(0.994653 -0.000669058 0)
(0.994763 -0.000288112 0)
(0.994657 0.000535519 0)
(0.994877 0.000898254 0)
(0.999747 -0.000499055 0)
(1.00068 -0.00162444 0)
(0.998784 -0.00388281 0)
(0.997908 -0.00337435 0)
(0.996847 -0.00319547 0)
(0.998033 -0.00394546 0)
(0.997397 -0.00485432 0)
(0.997438 -0.00524072 0)
(0.995644 -0.00457967 0)
(0.995321 -0.00416312 0)
(0.994885 -0.00397752 0)
(0.995316 -0.00399574 0)
(0.994893 -0.0032284 0)
(0.994723 -0.00253073 0)
(0.994474 -0.00158275 0)
(0.994737 -0.00123766 0)
(0.994892 -0.000658985 0)
(0.995094 -0.000404925 0)
(0.99502 0.000335489 0)
(0.995099 0.000725169 0)
(0.999748 -0.000525314 0)
(1.00059 -0.00146634 0)
(0.998918 -0.00358574 0)
(0.998256 -0.0033437 0)
(0.997106 -0.00320491 0)
(0.998072 -0.00377752 0)
(0.997449 -0.00460055 0)
(0.997629 -0.00508024 0)
(0.995988 -0.00454052 0)
(0.995553 -0.00397104 0)
(0.995004 -0.00362179 0)
(0.995498 -0.00371019 0)
(0.995244 -0.00310494 0)
(0.995138 -0.00252528 0)
(0.994828 -0.00159496 0)
(0.995001 -0.00123925 0)
(0.99511 -0.000633906 0)
(0.995369 -0.00045802 0)
(0.995387 0.000145676 0)
(0.995344 0.000565716 0)
(0.99975 -0.000541806 0)
(1.00051 -0.00133526 0)
(0.999022 -0.00329043 0)
(0.998564 -0.00327992 0)
(0.997371 -0.00321134 0)
(0.998129 -0.00361806 0)
(0.997492 -0.004347 0)
(0.997782 -0.00485155 0)
(0.996328 -0.00447902 0)
(0.995845 -0.00387408 0)
(0.995153 -0.00333016 0)
(0.995636 -0.00341262 0)
(0.995535 -0.00294408 0)
(0.995533 -0.00250912 0)
(0.995191 -0.00160195 0)
(0.995288 -0.00126086 0)
(0.99534 -0.000640764 0)
(0.995575 -0.000452669 0)
(0.995715 -7.4319e-06 0)
(0.995632 0.0003772 0)
(0.999752 -0.00054898 0)
(1.00044 -0.00122518 0)
(0.999103 -0.00300771 0)
(0.998829 -0.00316958 0)
(0.997636 -0.00321662 0)
(0.998211 -0.00347734 0)
(0.997537 -0.00409651 0)
(0.997899 -0.00458575 0)
(0.996636 -0.00436251 0)
(0.996176 -0.00382378 0)
(0.995352 -0.00312405 0)
(0.995758 -0.00313174 0)
(0.995762 -0.00274084 0)
(0.99589 -0.00246624 0)