/*--------------------------------*- C++ -*----------------------------------*\
| =========                 |                                                 |
| \\      /  F ield         | OpenFOAM: The Open Source CFD Toolbox           |
|  \\    /   O peration     | Version:  v1912                                 |
|   \\  /    A nd           | Website:  www.openfoam.com                      |
|    \\/     M anipulation  |                                                 |
\*---------------------------------------------------------------------------*/
FoamFile
{
    version     2.0;
    format      ascii;
    class       surfaceScalarField;
    location    "8.55";
    object      phi;
}
// * * * * * * * * * * * * * * * * * * * * * * * * * * * * * * * * * * * * * //

dimensions      [0 3 -1 0 0 0 0];
oriented        oriented;


internalField   nonuniform List<scalar> 
19000
(
1.14752e-06
-2.92024e-07
1.20813e-06
-1.05392e-06
1.25291e-06
1.19081e-07
1.17536e-06
2.36089e-06
1.14184e-06
-3.81293e-07
1.18161e-06
-1.67316e-06
1.20074e-06
-2.1461e-06
1.20583e-06
-1.01235e-06
1.22288e-06
-2.70213e-07
1.19758e-06
2.15495e-07
1.20859e-06
6.33397e-07
1.18105e-06
3.77009e-07
1.16341e-06
-9.50541e-08
1.18974e-06
-1.19305e-07
1.19196e-06
-4.8378e-07
1.1872e-06
-3.70263e-07
1.20283e-06
-3.21944e-07
1.18103e-06
-4.01017e-07
1.19691e-06
-3.11233e-08
-4.26113e-07
1.12461e-06
1.20333e-06
-2.71094e-07
1.26385e-06
-1.11443e-06
1.30479e-06
7.81363e-08
1.2651e-06
2.40058e-06
1.21493e-06
-3.31123e-07
1.2299e-06
-1.68812e-06
1.25492e-06
-2.17112e-06
1.26254e-06
-1.01996e-06
1.27932e-06
-2.86998e-07
1.26193e-06
2.32891e-07
1.26024e-06
6.35085e-07
1.25403e-06
3.83218e-07
1.22437e-06
-6.53908e-08
1.25276e-06
-1.47692e-07
1.24465e-06
-4.75675e-07
1.25107e-06
-3.76679e-07
1.2474e-06
-3.18281e-07
1.24821e-06
-4.01819e-07
1.2394e-06
-2.23197e-08
-3.95748e-07
1.20904e-06
1.26096e-06
-2.49272e-07
1.31862e-06
-1.17209e-06
1.35642e-06
4.03365e-08
1.34399e-06
2.413e-06
1.28711e-06
-2.7424e-07
1.28408e-06
-1.68509e-06
1.30429e-06
-2.19134e-06
1.3189e-06
-1.03457e-06
1.33429e-06
-3.02385e-07
1.32979e-06
2.37391e-07
1.32222e-06
6.42653e-07
1.32459e-06
3.80848e-07
1.29581e-06
-3.66151e-08
1.30773e-06
-1.59614e-07
1.30008e-06
-4.6802e-07
1.30194e-06
-3.78539e-07
1.29913e-06
-3.15468e-07
1.29986e-06
-4.02556e-07
1.3024e-06
-2.48528e-08
-3.67462e-07
1.27411e-06
1.32057e-06
-2.25743e-07
1.37305e-06
-1.22456e-06
1.40981e-06
3.56943e-09
1.4162e-06
2.40662e-06
1.36147e-06
-2.19509e-07
1.34349e-06
-1.66711e-06
1.35287e-06
-2.20071e-06
1.3739e-06
-1.05561e-06
1.38971e-06
-3.18189e-07
1.3955e-06
2.31602e-07
1.39238e-06
6.45771e-07
1.3935e-06
3.79727e-07
1.37047e-06
-1.35896e-08
1.36782e-06
-1.56957e-07
1.35837e-06
-4.58573e-07
1.35798e-06
-3.7815e-07
1.35359e-06
-3.11074e-07
1.35373e-06
-4.02697e-07
1.35818e-06
-2.93103e-08
-3.39705e-07
1.33043e-06
1.38376e-06
-2.01153e-07
1.42784e-06
-1.26864e-06
1.46711e-06
-3.57003e-08
1.48502e-06
2.38871e-06
1.4377e-06
-1.72189e-07
1.40797e-06
-1.63737e-06
1.40522e-06
-2.19797e-06
1.4297e-06
-1.08009e-06
1.44815e-06
-3.36635e-07
1.46084e-06
2.18907e-07
1.46509e-06
6.41522e-07
1.46398e-06
3.80838e-07
1.44419e-06
6.19489e-09
1.43411e-06
-1.4687e-07
1.41989e-06
-4.44354e-07
1.41881e-06
-3.77075e-07
1.41295e-06
-3.05211e-07
1.41089e-06
-4.00636e-07
1.41726e-06
-3.56836e-08
-3.12434e-07
1.38999e-06
1.45205e-06
-1.77522e-07
1.48431e-06
-1.30091e-06
1.52764e-06
-7.90227e-08
1.55386e-06
2.36248e-06
1.51563e-06
-1.33961e-07
1.47792e-06
-1.59966e-06
1.46432e-06
-2.18437e-06
1.48956e-06
-1.10533e-06
1.51134e-06
-3.58406e-07
1.52898e-06
2.01259e-07
1.53857e-06
6.31935e-07
1.53625e-06
3.83156e-07
1.51696e-06
2.54883e-08
1.50351e-06
-1.33421e-07
1.48523e-06
-4.26079e-07
1.48275e-06
-3.74592e-07
1.47685e-06
-2.99307e-07
1.47215e-06
-3.9594e-07
1.47995e-06
-4.34836e-08
-2.85835e-07
1.45335e-06
1.52582e-06
-1.57125e-07
1.54369e-06
-1.31878e-06
1.58926e-06
-1.24591e-07
1.62345e-06
2.3283e-06
1.59395e-06
-1.04462e-07
1.55258e-06
-1.55829e-06
1.53037e-06
-2.16216e-06
1.55475e-06
-1.12971e-06
1.57927e-06
-3.82926e-07
1.60098e-06
1.7955e-07
1.6131e-06
6.19813e-07
1.60932e-06
3.86941e-07
1.58926e-06
4.55425e-08
1.57413e-06
-1.18285e-07
1.55364e-06
-4.05587e-07
1.54982e-06
-3.70774e-07
1.54459e-06
-2.94081e-07
1.53785e-06
-3.89199e-07
1.54646e-06
-5.20879e-08
-2.60021e-07
1.52064e-06
1.60435e-06
-1.41349e-07
1.60715e-06
-1.32158e-06
1.65101e-06
-1.68447e-07
1.69353e-06
2.28578e-06
1.67216e-06
-8.30922e-08
1.63104e-06
-1.51718e-06
1.60244e-06
-2.13356e-06
1.62466e-06
-1.15193e-06
1.65046e-06
-4.08727e-07
1.67545e-06
1.54559e-07
1.68815e-06
6.07111e-07
1.68203e-06
3.93061e-07
1.66116e-06
6.64128e-08
1.64545e-06
-1.02575e-07
1.62437e-06
-3.84503e-07
1.62005e-06
-3.6645e-07
1.61603e-06
-2.90067e-07
1.6079e-06
-3.81066e-07
1.61709e-06
-6.1278e-08
-2.3501e-07
1.59208e-06
1.68654e-06
-1.30316e-07
1.6759e-06
-1.31095e-06
1.71429e-06
-2.06831e-07
1.76453e-06
2.23553e-06
1.75074e-06
-6.93022e-08
1.71258e-06
-1.47901e-06
1.67952e-06
-2.1005e-06
1.69825e-06
-1.17067e-06
1.7231e-06
-4.33575e-07
1.74994e-06
1.27722e-07
1.76219e-06
5.94865e-07
1.75366e-06
4.0159e-07
1.73285e-06
8.72185e-08
1.71783e-06
-8.75492e-08
1.69752e-06
-3.64194e-07
1.6934e-06
-3.62335e-07
1.69108e-06
-2.87742e-07
1.68203e-06
-3.72023e-07
1.6917e-06
-7.09401e-08
-2.10985e-07
1.66767e-06
1.77169e-06
-1.2328e-07
1.75101e-06
-1.29027e-06
1.78195e-06
-2.37774e-07
1.83792e-06
2.17956e-06
1.83071e-06
-6.20891e-08
1.79685e-06
-1.44515e-06
1.76091e-06
-2.06456e-06
1.77493e-06
-1.18468e-06
1.79626e-06
-4.54912e-07
1.82271e-06
1.0127e-07
1.8341e-06
5.83479e-07
1.8244e-06
4.11288e-07
1.80519e-06
1.06427e-07
1.79218e-06
-7.45333e-08
1.77379e-06
-3.45803e-07
1.77011e-06
-3.58663e-07
1.76962e-06
-2.87245e-07
1.76e-06
-3.62402e-07
1.76988e-06
-8.08243e-08
-1.88333e-07
1.74723e-06
1.85976e-06
-1.19289e-07
1.83293e-06
-1.26344e-06
1.85629e-06
-2.6113e-07
1.91534e-06
2.12051e-06
1.9131e-06
-5.98499e-08
1.88388e-06
-1.41593e-06
1.84617e-06
-2.02685e-06
1.85457e-06
-1.19308e-06
1.87023e-06
-4.70572e-07
1.89386e-06
7.76381e-08
1.90439e-06
5.7295e-07
1.89566e-06
4.20017e-07
1.87975e-06
1.22333e-07
1.86979e-06
-6.45688e-08
1.85409e-06
-3.30101e-07
1.85068e-06
-3.5526e-07
1.85169e-06
-2.88254e-07
1.84168e-06
-3.52385e-07
1.85136e-06
-9.05105e-08
-1.67502e-07
1.83053e-06
1.95116e-06
-1.17612e-07
1.9214e-06
-1.23369e-06
1.93789e-06
-2.77622e-07
1.99771e-06
2.06069e-06
1.99875e-06
-6.08803e-08
1.97389e-06
-1.39107e-06
1.93505e-06
-1.98801e-06
1.93737e-06
-1.1954e-06
1.94611e-06
-4.79316e-07
1.96514e-06
5.86109e-08
1.97516e-06
5.62927e-07
1.96964e-06
4.25534e-07
1.95843e-06
1.33549e-07
1.95198e-06
-5.8119e-08
1.93926e-06
-3.17387e-07
1.93571e-06
-3.51705e-07
1.93757e-06
-2.90116e-07
1.92721e-06
-3.42024e-07
1.93618e-06
-9.94762e-08
-1.48852e-07
1.91753e-06
2.04636e-06
-1.17778e-07
2.01567e-06
-1.203e-06
2.02603e-06
-2.87979e-07
2.08527e-06
2.00145e-06
2.08834e-06
-6.39462e-08
2.06727e-06
-1.37001e-06
2.02752e-06
-1.94826e-06
2.02368e-06
-1.19156e-06
2.02532e-06
-4.80958e-07
2.03915e-06
4.47899e-08
2.04932e-06
5.52754e-07
2.04869e-06
4.26162e-07
2.04294e-06
1.39296e-07
2.03984e-06
-5.5011e-08
2.02994e-06
-3.07487e-07
2.02573e-06
-3.47498e-07
2.02762e-06
-2.92012e-07
2.01694e-06
-3.31341e-07
2.02465e-06
-1.07188e-07
-1.32572e-07
2.00837e-06
2.14564e-06
-1.19412e-07
2.11498e-06
-1.17235e-06
2.11978e-06
-2.92773e-07
2.17812e-06
1.94311e-06
2.18257e-06
-6.84003e-08
2.16447e-06
-1.3519e-06
2.12372e-06
-1.90751e-06
2.11404e-06
-1.18188e-06
2.10928e-06
-4.76204e-07
2.11847e-06
3.56018e-08
2.12964e-06
5.4159e-07
2.13468e-06
4.21118e-07
2.13451e-06
1.39465e-07
2.13408e-06
-5.45754e-08
2.12645e-06
-2.99864e-07
2.12116e-06
-3.42205e-07
2.12225e-06
-2.93096e-07
2.1113e-06
-3.20393e-07
2.11733e-06
-1.13216e-07
-1.18642e-07
2.1034e-06
2.24915e-06
-1.22074e-07
2.21885e-06
-1.14205e-06
2.21879e-06
-2.92712e-07
2.27664e-06
1.88526e-06
2.28214e-06
-7.38966e-08
2.26593e-06
-1.3357e-06
2.22394e-06
-1.86552e-06
2.20912e-06
-1.16706e-06
2.19933e-06
-4.66407e-07
2.20525e-06
2.96803e-08
2.21822e-06
5.28616e-07
2.22878e-06
4.10558e-07
2.23372e-06
1.34533e-07
2.23503e-06
-5.58914e-08
2.22891e-06
-2.93745e-07
2.22226e-06
-3.35551e-07
2.22179e-06
-2.9263e-07
2.21067e-06
-3.0927e-07
2.2148e-06
-1.17346e-07
-1.06802e-07
2.20296e-06
2.35703e-06
-1.2523e-07
2.32717e-06
-1.11219e-06
2.32334e-06
-2.88881e-07
2.38145e-06
1.82715e-06
2.38762e-06
-8.00681e-08
2.3721e-06
-1.32018e-06
2.32857e-06
-1.822e-06
2.30969e-06
-1.14818e-06
2.29661e-06
-4.53323e-07
2.30094e-06
2.53477e-08
2.31632e-06
5.1324e-07
2.33146e-06
3.95418e-07
2.34056e-06
1.25424e-07
2.34269e-06
-5.80176e-08
2.33721e-06
-2.88266e-07
2.32913e-06
-3.27471e-07
2.32657e-06
-2.90065e-07
2.31537e-06
-2.98069e-07
2.31761e-06
-1.19593e-07
-9.65944e-08
2.3074e-06
2.4695e-06
-1.28337e-07
2.44012e-06
-1.08281e-06
2.43391e-06
-2.8267e-07
2.49305e-06
1.76801e-06
2.4994e-06
-8.6416e-08
2.48336e-06
-1.30414e-06
2.43805e-06
-1.77669e-06
2.41639e-06
-1.12652e-06
2.40192e-06
-4.38853e-07
2.40625e-06
2.10179e-08
2.42429e-06
4.95199e-07
2.44259e-06
3.77118e-07
2.45469e-06
1.13323e-07
2.4568e-06
-6.01299e-08
2.45116e-06
-2.82621e-07
2.44179e-06
-3.18103e-07
2.43685e-06
-2.85125e-07
2.42561e-06
-2.86832e-07
2.4262e-06
-1.20185e-07
-8.74847e-08
2.41709e-06
2.58691e-06
-1.30956e-07
2.55804e-06
-1.05393e-06
2.55083e-06
-2.7546e-07
2.61161e-06
1.70723e-06
2.6176e-06
-9.24086e-08
2.60009e-06
-1.28663e-06
2.55287e-06
-1.72947e-06
2.52961e-06
-1.10326e-06
2.51549e-06
-4.24731e-07
2.52104e-06
1.5464e-08
2.5417e-06
4.74543e-07
2.56164e-06
3.57177e-07
2.57549e-06
9.94741e-08
2.57698e-06
-6.16201e-08
2.57055e-06
-2.76189e-07
2.56018e-06
-3.07738e-07
2.55289e-06
-2.77827e-07
2.54156e-06
-2.75508e-07
2.54091e-06
-1.19532e-07
-7.89957e-08
2.53242e-06
2.70969e-06
-1.32822e-07
2.68134e-06
-1.02558e-06
2.67417e-06
-2.68285e-07
2.73693e-06
1.64446e-06
2.74217e-06
-9.76467e-08
2.72261e-06
-1.26707e-06
2.67349e-06
-1.68035e-06
2.64952e-06
-1.07928e-06
2.63703e-06
-4.12244e-07
2.64452e-06
7.96818e-09
2.66753e-06
4.51539e-07
2.68785e-06
3.36851e-07
2.70235e-06
8.49752e-08
2.70288e-06
-6.21442e-08
2.69529e-06
-2.68607e-07
2.6843e-06
-2.96744e-07
2.67491e-06
-2.68439e-07
2.66337e-06
-2.63963e-07
2.66197e-06
-1.18138e-07
-7.08161e-08
2.65379e-06
2.83829e-06
-1.33841e-07
2.81049e-06
-9.97785e-07
2.80387e-06
-2.61661e-07
2.86867e-06
1.57966e-06
2.873e-06
-1.01973e-07
2.8512e-06
-1.24527e-06
2.80036e-06
-1.62951e-06
2.7761e-06
-1.05503e-06
2.76592e-06
-4.0206e-07
2.77555e-06
-1.66769e-09
2.80053e-06
4.2656e-07
2.82048e-06
3.16906e-07
2.83481e-06
7.06406e-08
2.83429e-06
-6.16217e-08
2.82546e-06
-2.59774e-07
2.81419e-06
-2.8548e-07
2.80314e-06
-2.5739e-07
2.79122e-06
-2.52038e-07
2.78956e-06
-1.16475e-07
-6.28454e-08
2.78159e-06
2.97309e-06
-1.34037e-07
2.94593e-06
-9.70627e-07
2.9399e-06
-2.55625e-07
3.00651e-06
1.51305e-06
3.01001e-06
-1.05476e-07
2.9861e-06
-1.22136e-06
2.93383e-06
-1.57723e-06
2.90938e-06
-1.03058e-06
2.90159e-06
-3.94264e-07
2.91313e-06
-1.32124e-08
2.93969e-06
3.99998e-07
2.95901e-06
2.97587e-07
2.97269e-06
5.69637e-08
2.97126e-06
-6.01869e-08
2.96128e-06
-2.49797e-07
2.95002e-06
-2.74222e-07
2.93781e-06
-2.45178e-07
2.92537e-06
-2.39599e-07
2.92378e-06
-1.14885e-07
-5.51542e-08
2.91609e-06
3.11444e-06
-1.33473e-07
3.08806e-06
-9.44248e-07
3.08236e-06
-2.49918e-07
3.15034e-06
1.44506e-06
3.15328e-06
-1.0841e-07
3.12756e-06
-1.19565e-06
3.07422e-06
-1.52389e-06
3.04946e-06
-1.00582e-06
3.04374e-06
-3.88547e-07
3.05671e-06
-2.61776e-08
3.08446e-06
3.72242e-07
3.10329e-06
2.78763e-07
3.1161e-06
4.41565e-08
3.11401e-06
-5.80986e-08
3.10312e-06
-2.38905e-07
3.09202e-06
-2.63124e-07
3.07914e-06
-2.32305e-07
3.06611e-06
-2.26564e-07
3.06474e-06
-1.13513e-07
-4.79322e-08
3.05752e-06
3.26263e-06
-1.32195e-07
3.23721e-06
-9.18825e-07
3.23151e-06
-2.44222e-07
3.30035e-06
1.37623e-06
3.30302e-06
-1.1108e-07
3.27585e-06
-1.16848e-06
3.22181e-06
-1.46985e-06
3.19657e-06
-9.80581e-07
3.19244e-06
-3.84419e-07
3.20626e-06
-3.99927e-08
3.23484e-06
3.43656e-07
3.25347e-06
2.60133e-07
3.26536e-06
3.22685e-08
3.26294e-06
-5.56742e-08
3.25139e-06
-2.27356e-07
3.2405e-06
-2.52235e-07
3.2274e-06
-2.19209e-07
3.21377e-06
-2.12936e-07
3.21258e-06
-1.1232e-07
-4.14251e-08
3.20607e-06
3.41794e-06
-1.30206e-07
3.39363e-06
-8.94515e-07
3.38774e-06
-2.38329e-07
3.45691e-06
1.30705e-06
3.45958e-06
-1.13747e-07
3.43125e-06
-1.14015e-06
3.37687e-06
-1.41547e-06
3.35104e-06
-9.54751e-07
3.348e-06
-3.81377e-07
3.36215e-06
-5.41438e-08
3.39122e-06
3.14583e-07
3.40994e-06
2.41419e-07
3.42095e-06
2.12546e-08
3.41849e-06
-5.32165e-08
3.40649e-06
-2.15355e-07
3.39582e-06
-2.41564e-07
3.38284e-06
-2.06225e-07
3.3687e-06
-1.98804e-07
3.36752e-06
-1.11133e-07
-3.59083e-08
3.362e-06
3.58069e-06
-1.27484e-07
3.55755e-06
-8.71379e-07
3.55145e-06
-2.32228e-07
3.62053e-06
1.23798e-06
3.62334e-06
-1.16564e-07
3.59412e-06
-1.11093e-06
3.53971e-06
-1.36106e-06
3.51327e-06
-9.28307e-07
3.51088e-06
-3.78986e-07
3.52496e-06
-6.82262e-08
3.5542e-06
2.85345e-07
3.57316e-06
2.2246e-07
3.58337e-06
1.10387e-08
3.58112e-06
-5.09596e-08
3.56883e-06
-2.03074e-07
3.55834e-06
-2.31073e-07
3.54573e-06
-1.9361e-07
3.53125e-06
-1.84329e-07
3.52986e-06
-1.09743e-07
-3.16223e-08
3.52558e-06
3.75124e-06
-1.24019e-07
3.72919e-06
-8.49325e-07
3.72303e-06
-2.26071e-07
3.79172e-06
1.16929e-06
3.79471e-06
-1.19562e-07
3.76478e-06
-1.08099e-06
3.71068e-06
-1.30696e-06
3.68365e-06
-9.0128e-07
3.68157e-06
-3.76906e-07
3.69528e-06
-8.1939e-08
3.72438e-06
2.56244e-07
3.7436e-06
2.03243e-07
3.7531e-06
1.53382e-09
3.75123e-06
-4.90811e-08
3.73878e-06
-1.90624e-07
3.72845e-06
-2.20752e-07
3.71638e-06
-1.81539e-07
3.70179e-06
-1.69736e-07
3.69996e-06
-1.07908e-07
-2.87546e-08
3.69709e-06
3.93003e-06
-1.19863e-07
3.90879e-06
-8.28081e-07
3.90281e-06
-2.20095e-07
3.97098e-06
1.10112e-06
3.9741e-06
-1.22679e-07
3.94359e-06
-1.05048e-06
3.89013e-06
-1.25351e-06
3.86258e-06
-8.73728e-07
3.86054e-06
-3.74861e-07
3.87367e-06
-9.50726e-08
3.90235e-06
2.27567e-07
3.92169e-06
1.83897e-07
3.93059e-06
-7.36614e-09
3.92921e-06
-4.76951e-08
3.91668e-06
-1.78093e-07
3.90652e-06
-2.10598e-07
3.89517e-06
-1.70189e-07
3.88067e-06
-1.55235e-07
3.87817e-06
-1.05409e-07
-2.74176e-08
3.87684e-06
4.11754e-06
-1.15151e-07
4.09668e-06
-8.07218e-07
4.0911e-06
-2.14518e-07
4.15876e-06
1.03346e-06
4.1619e-06
-1.2582e-07
4.13091e-06
-1.01949e-06
4.07845e-06
-1.20105e-06
4.05044e-06
-8.45721e-07
4.04821e-06
-3.72628e-07
4.06062e-06
-1.07477e-07
4.08859e-06
1.99598e-07
4.10787e-06
1.64616e-07
4.11627e-06
-1.57663e-08
4.11545e-06
-4.68776e-08
4.10292e-06
-1.65562e-07
4.09294e-06
-2.0062e-07
4.08248e-06
-1.59727e-07
4.0683e-06
-1.41052e-07
4.0649e-06
-1.02018e-07
-2.76206e-08
4.06511e-06
4.31425e-06
-1.10099e-07
4.29326e-06
-7.86226e-07
4.2882e-06
-2.09455e-07
4.35545e-06
9.66211e-07
4.35854e-06
-1.28913e-07
4.32712e-06
-9.88069e-07
4.27598e-06
-1.14991e-06
4.24761e-06
-8.17352e-07
4.24501e-06
-3.70026e-07
4.25658e-06
-1.19049e-07
4.2836e-06
1.72572e-07
4.30257e-06
1.45648e-07
4.31056e-06
-2.37503e-08
4.31038e-06
-4.66981e-08
4.2979e-06
-1.53086e-07
4.2881e-06
-1.90815e-07
4.27868e-06
-1.50316e-07
4.26508e-06
-1.27451e-07
4.26059e-06
-9.75248e-08
-2.9162e-08
4.26213e-06
4.52064e-06
-1.04969e-07
4.49903e-06
-7.64615e-07
4.49447e-06
-2.04895e-07
4.56141e-06
8.99275e-07
4.56445e-06
-1.31951e-07
4.53262e-06
-9.56238e-07
4.48303e-06
-1.10032e-06
4.45443e-06
-7.88752e-07
4.45132e-06
-3.66914e-07
4.46202e-06
-1.2975e-07
4.48791e-06
1.46681e-07
4.50634e-06
1.27223e-07
4.51395e-06
-3.13671e-08
4.51446e-06
-4.72045e-08
4.50212e-06
-1.40744e-07
4.4924e-06
-1.81095e-07
4.48419e-06
-1.42105e-07
4.47144e-06
-1.14707e-07
4.46578e-06
-9.18596e-08
-3.15725e-08
4.46819e-06
4.73716e-06
-1.00014e-07
4.71456e-06
-7.42019e-07
4.71039e-06
-2.00725e-07
4.77702e-06
8.32648e-07
4.78007e-06
-1.35004e-07
4.74785e-06
-9.24018e-07
4.69993e-06
-1.0524e-06
4.67128e-06
-7.60102e-07
4.66757e-06
-3.63206e-07
4.67742e-06
-1.39599e-07
4.70208e-06
1.22025e-07
4.71973e-06
1.09568e-07
4.72698e-06
-3.86196e-08
4.72822e-06
-4.84379e-08
4.71611e-06
-1.2864e-07
4.70631e-06
-1.71291e-07
4.69934e-06
-1.35139e-07
4.68776e-06
-1.03122e-07
4.68105e-06
-8.5151e-08
-3.41411e-08
4.68362e-06
4.96421e-06
-9.54237e-08
4.94046e-06
-7.18271e-07
4.93653e-06
-1.96794e-07
5.0027e-06
7.66473e-07
5.00589e-06
-1.38191e-07
4.97333e-06
-8.91457e-07
4.927e-06
-1.00607e-06
4.89853e-06
-7.3163e-07
4.89421e-06
-3.58891e-07
4.90326e-06
-1.48648e-07
4.92667e-06
9.86137e-08
4.94338e-06
9.28619e-08
4.95023e-06
-4.54688e-08
4.95221e-06
-5.04208e-08
4.94047e-06
-1.16902e-07
4.93035e-06
-1.61171e-07
4.92458e-06
-1.29365e-07
4.9144e-06
-9.29394e-08
4.90693e-06
-7.76826e-08
-3.61503e-08
4.90894e-06
5.20219e-06
-9.12924e-08
5.17733e-06
-6.93412e-07
5.17352e-06
-1.92984e-07
5.23894e-06
7.0105e-07
5.24238e-06
-1.41634e-07
5.20956e-06
-8.58633e-07
5.16467e-06
-9.61177e-07
5.13658e-06
-7.0354e-07
5.13172e-06
-3.54038e-07
5.14004e-06
-1.56961e-07
5.16226e-06
7.63859e-08
5.17792e-06
7.72034e-08
5.18425e-06
-5.17984e-08
5.187e-06
-5.31729e-08
5.17578e-06
-1.05683e-07
5.16522e-06
-1.50608e-07
5.16033e-06
-1.24471e-07
5.15173e-06
-8.43431e-08
5.14381e-06
-6.97587e-08
-3.71232e-08
5.14478e-06
5.45151e-06
-8.76155e-08
5.42576e-06
-6.67656e-07
5.42203e-06
-1.89253e-07
5.48628e-06
6.36793e-07
5.49006e-06
-1.45411e-07
5.45709e-06
-8.25658e-07
5.41353e-06
-9.17627e-07
5.38588e-06
-6.75883e-07
5.38061e-06
-3.48765e-07
5.38824e-06
-1.64599e-07
5.40939e-06
5.52431e-08
5.42398e-06
6.26079e-08
5.42962e-06
-5.74345e-08
5.43315e-06
-5.6705e-08
5.42264e-06
-9.51776e-08
5.41152e-06
-1.39479e-07
5.40719e-06
-1.20142e-07
5.40022e-06
-7.73747e-08
5.39216e-06
-6.1704e-08
-3.68538e-08
5.39189e-06
5.71266e-06
-8.43144e-08
5.68631e-06
-6.4131e-07
5.68271e-06
-1.85655e-07
5.74535e-06
5.74157e-07
5.74946e-06
-1.49527e-07
5.71647e-06
-7.92665e-07
5.67423e-06
-8.75387e-07
5.64698e-06
-6.48635e-07
5.64138e-06
-3.43158e-07
5.64841e-06
-1.71628e-07
5.66857e-06
3.50788e-08
5.68214e-06
4.90383e-08
5.68692e-06
-6.22165e-08
5.69116e-06
-6.09447e-08
5.68161e-06
-8.56239e-08
5.66989e-06
-1.27758e-07
5.66573e-06
-1.15984e-07
5.66039e-06
-7.20325e-08
5.65253e-06
-5.38458e-08
-3.53517e-08
5.65103e-06
5.98615e-06
-8.12757e-08
5.95954e-06
-6.14691e-07
5.95619e-06
-1.82315e-07
6.01679e-06
5.13558e-07
6.02116e-06
-1.5389e-07
5.98829e-06
-7.59795e-07
5.94738e-06
-8.3448e-07
5.9205e-06
-6.21754e-07
5.9146e-06
-3.37257e-07
5.92108e-06
-1.7811e-07
5.94036e-06
1.58015e-08
5.95298e-06
3.64162e-08
5.95679e-06
-6.60254e-08
5.96157e-06
-6.57314e-08
5.95323e-06
-7.72811e-08
5.94099e-06
-1.15516e-07
5.93657e-06
-1.11563e-07
5.93279e-06
-6.82525e-08
5.9254e-06
-4.6461e-08
-3.28213e-08
5.92287e-06
6.2726e-06
-7.83913e-08
6.24597e-06
-5.88058e-07
6.24305e-06
-1.79389e-07
6.3013e-06
4.55306e-07
6.30572e-06
-1.58316e-07
6.27312e-06
-7.27196e-07
6.2336e-06
-7.94956e-07
6.20706e-06
-5.95217e-07
6.20089e-06
-3.31089e-07
6.20683e-06
-1.84045e-07
6.2253e-06
-2.66443e-09
6.23711e-06
2.4604e-08
6.23984e-06
-6.8756e-08
6.24494e-06
-7.08349e-08
6.2381e-06
-7.04365e-08
6.22548e-06
-1.02899e-07
6.22036e-06
-1.06446e-07
6.21797e-06
-6.58562e-08
6.21141e-06
-3.99084e-08
-2.93699e-08
6.20796e-06
6.57266e-06
-7.5585e-08
6.54619e-06
-5.61587e-07
6.54382e-06
-1.7702e-07
6.59951e-06
3.9962e-07
6.60379e-06
-1.62597e-07
6.57153e-06
-6.94935e-07
6.53349e-06
-7.56918e-07
6.50739e-06
-5.69117e-07
6.5009e-06
-3.24595e-07
6.50628e-06
-1.89425e-07
6.52397e-06
-2.03573e-08
6.53513e-06
1.34453e-08
6.53675e-06
-7.03731e-08
6.54185e-06
-7.59343e-08
6.53672e-06
-6.53118e-08
6.52405e-06
-9.02316e-08
6.51782e-06
-1.00213e-07
6.51647e-06
-6.45043e-08
6.51111e-06
-3.45518e-08
-2.52486e-08
6.50699e-06
6.88704e-06
-7.28303e-08
6.8608e-06
-5.35354e-07
6.8591e-06
-1.75317e-07
6.91206e-06
3.46659e-07
6.9161e-06
-1.66634e-07
6.88413e-06
-6.62969e-07
6.84762e-06
-7.20411e-07
6.82221e-06
-5.43704e-07
6.81529e-06
-3.17679e-07
6.82007e-06
-1.94198e-07
6.83698e-06
-3.72699e-08
6.8477e-06
2.7227e-09
6.84825e-06
-7.0918e-08
6.85293e-06
-8.06139e-08
6.84958e-06
-6.19609e-08
6.83732e-06
-7.79794e-08
6.82984e-06
-9.27252e-08
6.82888e-06
-6.35507e-08
6.82498e-06
-3.06505e-08
-2.08412e-08
6.82057e-06
7.21645e-06
-7.01456e-08
7.19047e-06
-5.09369e-07
7.1895e-06
-1.74349e-07
7.23958e-06
2.96581e-07
7.24343e-06
-1.7049e-07
7.21168e-06
-6.31218e-07
7.17665e-06
-6.85375e-07
7.15222e-06
-5.19278e-07
7.14482e-06
-3.10279e-07
7.14888e-06
-1.98253e-07
7.16494e-06
-5.33326e-08
7.17544e-06
-7.78074e-09
7.17514e-06
-7.06133e-08
7.17903e-06
-8.45045e-08
7.17728e-06
-6.02144e-08
7.16574e-06
-6.64407e-08
7.15699e-06
-8.39739e-08
7.15595e-06
-6.25144e-08
7.15363e-06
-2.8323e-08
-1.64545e-08
7.14924e-06
7.56166e-06
-6.75839e-08
7.53587e-06
-4.83579e-07
7.53571e-06
-1.74183e-07
7.58273e-06
2.49558e-07
7.58655e-06
-1.74307e-07
7.55498e-06
-5.99652e-07
7.52131e-06
-6.51699e-07
7.49813e-06
-4.961e-07
7.49023e-06
-3.02385e-07
7.49342e-06
-2.01441e-07
7.5085e-06
-6.84131e-08
7.51902e-06
-1.8302e-08
7.51812e-06
-6.97057e-08
7.52108e-06
-8.74676e-08
7.52077e-06
-5.99015e-08
7.51032e-06
-5.59884e-08
7.49989e-06
-7.35467e-08
7.49763e-06
-6.02575e-08
7.49739e-06
-2.80781e-08
-1.27949e-08
7.49373e-06
7.92345e-06
-6.52223e-08
7.89779e-06
-4.57916e-07
7.89846e-06
-1.74857e-07
7.9422e-06
2.05815e-07
7.94624e-06
-1.78347e-07
7.91485e-06
-5.68262e-07
7.88236e-06
-6.1921e-07
7.86052e-06
-4.74258e-07
7.85234e-06
-2.94205e-07
7.85446e-06
-2.03561e-07
7.86842e-06
-8.2375e-08
7.87906e-06
-2.89337e-08
7.87803e-06
-6.86785e-08
7.8801e-06
-8.95391e-08
7.88145e-06
-6.12486e-08
7.87209e-06
-4.66289e-08
7.85987e-06
-6.13281e-08
7.85472e-06
-5.51051e-08
7.85484e-06
-2.82022e-08
-1.25859e-08
7.85463e-06
8.30259e-06
-6.31348e-08
8.27698e-06
-4.32302e-07
8.27853e-06
-1.76404e-07
8.3189e-06
1.65444e-07
8.32318e-06
-1.82628e-07
8.29218e-06
-5.37268e-07
8.2606e-06
-5.87621e-07
8.24004e-06
-4.53701e-07
8.23193e-06
-2.86096e-07
8.23282e-06
-2.04451e-07
8.24554e-06
-9.50974e-08
8.25612e-06
-3.95085e-08
8.25526e-06
-6.78237e-08
8.25658e-06
-9.08609e-08
8.26108e-06
-6.57497e-08
8.25989e-06
-4.54391e-08
8.255e-06
-5.64295e-08
8.25664e-06
-5.67522e-08
8.25922e-06
-3.0777e-08
-8.35076e-09
8.25498e-06
8.69993e-06
-6.14016e-08
8.67431e-06
-4.06679e-07
8.67663e-06
-1.78728e-07
8.71372e-06
1.28352e-07
8.71812e-06
-1.87026e-07
8.68793e-06
-5.07079e-07
8.65685e-06
-5.56537e-07
8.6374e-06
-4.34251e-07
8.62969e-06
-2.7839e-07
8.62942e-06
-2.0418e-07
8.6408e-06
-1.06473e-07
8.65127e-06
-4.99852e-08
8.65092e-06
-6.74718e-08
8.65217e-06
-9.21125e-08
8.65746e-06
-7.10347e-08
8.65843e-06
-4.64146e-08
8.65287e-06
-5.08687e-08
8.65009e-06
-5.39725e-08
8.65236e-06
-3.30501e-08
-8.50538e-09
8.65252e-06
9.11627e-06
-6.00539e-08
9.09059e-06
-3.80995e-07
9.09363e-06
-1.81771e-07
9.12779e-06
9.41929e-08
9.13165e-06
-1.90882e-07
9.10296e-06
-4.78395e-07
9.07212e-06
-5.25698e-07
9.05357e-06
-4.15694e-07
9.04636e-06
-2.71186e-07
9.04523e-06
-2.03048e-07
9.05494e-06
-1.16179e-07
9.06553e-06
-6.05814e-08
9.06567e-06
-6.76059e-08
9.06579e-06
-9.22347e-08
9.07077e-06
-7.60198e-08
9.07389e-06
-4.95314e-08
9.06981e-06
-4.67901e-08
9.06773e-06
-5.18931e-08
9.0688e-06
-3.4116e-08
-7.2763e-09
9.06757e-06
9.55253e-06
-5.91258e-08
9.52685e-06
-3.55318e-07
9.53029e-06
-1.85202e-07
9.56205e-06
6.2426e-08
9.56474e-06
-1.9357e-07
9.53809e-06
-4.51741e-07
9.50751e-06
-4.95124e-07
9.48941e-06
-3.97594e-07
9.48258e-06
-2.64356e-07
9.48111e-06
-2.01572e-07
9.48928e-06
-1.24356e-07
9.49969e-06
-7.09888e-08
9.50101e-06
-6.89196e-08
9.49912e-06
-9.03461e-08
9.49928e-06
-7.61844e-08
9.49586e-06
-4.61084e-08
9.48434e-06
-3.52743e-08
9.47332e-06
-4.08732e-08
9.47262e-06
-3.34166e-08
-1.34091e-08
9.47876e-06
1.00096e-05
-5.86024e-08
9.98406e-06
-3.29771e-07
9.98766e-06
-1.888e-07
1.00174e-05
3.27211e-08
1.00186e-05
-1.94782e-07
9.99381e-06
-4.2697e-07
9.96434e-06
-4.65653e-07
9.94583e-06
-3.79092e-07
9.93951e-06
-2.58028e-07
9.93774e-06
-1.99807e-07
9.9442e-06
-1.30818e-07
9.9533e-06
-8.00851e-08
9.95445e-06
-7.00691e-08
9.95471e-06
-9.06018e-08
9.9603e-06
-8.17765e-08
9.96688e-06
-5.26894e-08
9.96835e-06
-3.67505e-08
9.96614e-06
-3.86622e-08
9.96204e-06
-2.93156e-08
-1.06304e-08
9.95926e-06
1.04885e-05
-5.84567e-08
1.04635e-05
-3.04748e-07
1.04666e-05
-1.91936e-07
1.04946e-05
4.7078e-09
1.04943e-05
-1.94498e-07
1.04712e-05
-4.03813e-07
1.04432e-05
-4.37673e-07
1.04244e-05
-3.60255e-07
1.04176e-05
-2.51236e-07
1.04159e-05
-1.98139e-07
1.04212e-05
-1.3609e-07
1.04295e-05
-8.84503e-08
1.0431e-05
-7.15028e-08
1.04281e-05
-8.77671e-08
1.04266e-05
-8.02769e-08
1.04252e-05
-5.12647e-08
1.04181e-05
-2.96124e-08
1.04092e-05
-2.98041e-08
1.04064e-05
-2.64722e-08
-1.44425e-08
1.04102e-05
1.09902e-05
-5.86109e-08
1.0966e-05
-2.80549e-07
1.09683e-05
-1.94294e-07
1.09947e-05
-2.16372e-08
1.09933e-05
-1.93125e-07
1.0971e-05
-3.81519e-07
1.09452e-05
-4.11902e-07
1.09263e-05
-3.41358e-07
1.09182e-05
-2.43125e-07
1.09161e-05
-1.95988e-07
1.09197e-05
-1.39684e-07
1.09267e-05
-9.54307e-08
1.09273e-05
-7.21861e-08
1.09231e-05
-8.35465e-08
1.09211e-05
-7.83025e-08
1.09217e-05
-5.18202e-08
1.09182e-05
-2.60706e-08
1.09129e-05
-2.45705e-08
1.09093e-05
-2.2884e-08
-1.51292e-08
1.091e-05
1.15158e-05
-5.90028e-08
1.14927e-05
-2.57447e-07
1.14939e-05
-1.95564e-07
1.15185e-05
-4.61718e-08
1.15168e-05
-1.91431e-07
1.14945e-05
-3.59276e-07
1.14713e-05
-3.88674e-07
1.14528e-05
-3.22832e-07
1.1443e-05
-2.33385e-07
1.14393e-05
-1.92236e-07
1.14413e-05
-1.41756e-07
1.14468e-05
-1.00887e-07
1.14474e-05
-7.27577e-08
1.14434e-05
-7.95534e-08
1.14407e-05
-7.56024e-08
1.14421e-05
-5.3242e-08
1.1442e-05
-2.59967e-08
1.14379e-05
-2.03955e-08
1.14337e-05
-1.86856e-08
-1.51145e-08
1.14336e-05
1.20663e-05
-5.95081e-08
1.20446e-05
-2.35746e-07
1.20445e-05
-1.95418e-07
1.20673e-05
-6.89571e-08
1.20656e-05
-1.89734e-07
1.20433e-05
-3.37044e-07
1.20218e-05
-3.67107e-07
1.20049e-05
-3.05967e-07
1.19938e-05
-2.22292e-07
1.19882e-05
-1.86607e-07
1.19887e-05
-1.42231e-07
1.19932e-05
-1.05417e-07
1.19942e-05
-7.37876e-08
1.19905e-05
-7.58651e-08
1.19871e-05
-7.21563e-08
1.19884e-05
-5.46077e-08
1.19894e-05
-2.6996e-08
1.1987e-05
-1.7942e-08
1.19837e-05
-1.53704e-08
-1.41402e-08
1.19827e-05
1.26431e-05
-6.00211e-08
1.2623e-05
-2.15635e-07
1.26213e-05
-1.93743e-07
1.26421e-05
-8.97788e-08
1.26409e-05
-1.88481e-07
1.26188e-05
-3.14955e-07
1.25981e-05
-3.46436e-07
1.25835e-05
-2.9137e-07
1.25718e-05
-2.10601e-07
1.25645e-05
-1.79273e-07
1.25634e-05
-1.41108e-07
1.25672e-05
-1.09277e-07
1.25685e-05
-7.50831e-08
1.2565e-05
-7.23544e-08
1.25609e-05
-6.80765e-08
1.25614e-05
-5.50287e-08
1.25633e-05
-2.89209e-08
1.25627e-05
-1.7335e-08
1.25602e-05
-1.28622e-08
-1.2277e-08
1.25583e-05
1.32473e-05
-6.04256e-08
1.32289e-05
-1.97236e-07
1.32258e-05
-1.90601e-07
1.32444e-05
-1.0843e-07
1.32438e-05
-1.87807e-07
1.32222e-05
-2.93425e-07
1.32017e-05
-3.2593e-07
1.31894e-05
-2.7906e-07
1.31784e-05
-1.99608e-07
1.31695e-05
-1.70348e-07
1.31663e-05
-1.37925e-07
1.31691e-05
-1.12015e-07
1.31707e-05
-7.66691e-08
1.31679e-05
-6.96176e-08
1.31636e-05
-6.37282e-08
1.31629e-05
-5.43483e-08
1.31649e-05
-3.0932e-08
1.31654e-05
-1.78017e-08
1.31637e-05
-1.12229e-08
-1.06593e-08
1.31621e-05
1.38803e-05
-6.05855e-08
1.38638e-05
-1.80668e-07
1.38593e-05
-1.86153e-07
1.38754e-05
-1.24567e-07
1.38755e-05
-1.87816e-07
1.3855e-05
-2.72976e-07
1.38342e-05
-3.05121e-07
1.38235e-05
-2.68348e-07
1.38144e-05
-1.90485e-07
1.38043e-05
-1.60267e-07
1.3799e-05
-1.32614e-07
1.38002e-05
-1.13219e-07
1.38019e-05
-7.8406e-08
1.38e-05
-6.77022e-08
1.37957e-05
-5.9407e-08
1.37941e-05
-5.27542e-08
1.37954e-05
-3.22838e-08
1.37968e-05
-1.91408e-08
1.37962e-05
-1.06203e-08
-9.39656e-09
1.37949e-05
1.45435e-05
-6.03846e-08
1.45288e-05
-1.65982e-07
1.45232e-05
-1.80547e-07
1.45366e-05
-1.38001e-07
1.45372e-05
-1.88394e-07
1.45182e-05
-2.54005e-07
1.44971e-05
-2.84017e-07
1.4487e-05
-2.58256e-07
1.44805e-05
-1.83937e-07
1.44701e-05
-1.4994e-07
1.44627e-05
-1.25172e-07
1.44618e-05
-1.12348e-07
1.44635e-05
-8.00375e-08
1.44624e-05
-6.66322e-08
1.44585e-05
-5.55484e-08
1.44564e-05
-5.0621e-08
1.44569e-05
-3.27852e-08
1.44584e-05
-2.0661e-08
1.44587e-05
-1.08659e-08
-8.57231e-09
1.44578e-05
1.52382e-05
-5.9711e-08
1.52254e-05
-1.53193e-07
1.52189e-05
-1.73978e-07
1.52293e-05
-1.48433e-07
1.52303e-05
-1.89392e-07
1.52131e-05
-2.36841e-07
1.5192e-05
-2.62919e-07
1.51816e-05
-2.47792e-07
1.51772e-05
-1.79624e-07
1.51681e-05
-1.40823e-07
1.51589e-05
-1.15971e-07
1.51559e-05
-1.09286e-07
1.51569e-05
-8.10285e-08
1.51566e-05
-6.63349e-08
1.51534e-05
-5.2386e-08
1.51509e-05
-4.81022e-08
1.51507e-05
-3.2578e-08
1.51518e-05
-2.17795e-08
1.51527e-05
-1.17631e-08
-8.38354e-09
1.51525e-05
1.59661e-05
-5.8498e-08
1.59552e-05
-1.42228e-07
1.59478e-05
-1.66653e-07
1.5955e-05
-1.55581e-07
1.59561e-05
-1.90528e-07
1.59408e-05
-2.21576e-07
1.59202e-05
-2.42314e-07
1.59086e-05
-2.36145e-07
1.59059e-05
-1.7688e-07
1.58991e-05
-1.34078e-07
1.58891e-05
-1.05933e-07
1.58839e-05
-1.04089e-07
1.58836e-05
-8.07405e-08
1.58838e-05
-6.66017e-08
1.58815e-05
-5.00123e-08
1.58789e-05
-4.55198e-08
1.58783e-05
-3.20135e-08
1.58788e-05
-2.22325e-08
1.58798e-05
-1.27452e-08
-9.05291e-09
1.58804e-05
1.67288e-05
-5.67309e-08
1.67195e-05
-1.32876e-07
1.67117e-05
-1.5886e-07
1.67154e-05
-1.59298e-07
1.67161e-05
-1.91232e-07
1.67028e-05
-2.0825e-07
1.66831e-05
-2.226e-07
1.667e-05
-2.23082e-07
1.66677e-05
-1.74544e-07
1.66639e-05
-1.30259e-07
1.66544e-05
-9.65e-08
1.66474e-05
-9.71169e-08
1.66455e-05
-7.88393e-08
1.66458e-05
-6.68986e-08
1.66444e-05
-4.85947e-08
1.66419e-05
-4.30071e-08
1.6641e-05
-3.11336e-08
1.66412e-05
-2.24463e-08
1.66416e-05
-1.30857e-08
-1.03151e-08
1.66429e-05
1.75281e-05
-5.4445e-08
1.752e-05
-1.24785e-07
1.75121e-05
-1.50967e-07
1.75124e-05
-1.59573e-07
1.75121e-05
-1.90927e-07
1.75007e-05
-1.96877e-07
1.74822e-05
-2.04122e-07
1.7468e-05
-2.08855e-07
1.74644e-05
-1.70994e-07
1.74635e-05
-1.29309e-07
1.74562e-05
-8.9205e-08
1.74481e-05
-8.90014e-08
1.74446e-05
-7.53742e-08
1.74442e-05
-6.65276e-08
1.74436e-05
-4.79955e-08
1.74415e-05
-4.09175e-08
1.74403e-05
-2.98811e-08
1.74407e-05
-2.28072e-08
1.74403e-05
-1.26896e-08
-1.14924e-08
1.74414e-05
1.83656e-05