/*--------------------------------*- C++ -*----------------------------------*\
| =========                 |                                                 |
| \\      /  F ield         | OpenFOAM: The Open Source CFD Toolbox           |
|  \\    /   O peration     | Version:  v1912                                 |
|   \\  /    A nd           | Website:  www.openfoam.com                      |
|    \\/     M anipulation  |                                                 |
\*---------------------------------------------------------------------------*/
FoamFile
{
    version     2.0;
    format      ascii;
    class       surfaceScalarField;
    location    "9.8";
    object      phi;
}
// * * * * * * * * * * * * * * * * * * * * * * * * * * * * * * * * * * * * * //

dimensions      [0 3 -1 0 0 0 0];
oriented        oriented;


internalField   nonuniform List<scalar> 
19000
(
1.19298e-06
7.46326e-07
1.12118e-06
-1.09129e-06
1.20498e-06
1.56323e-06
1.1493e-06
9.99074e-08
1.08569e-06
-1.50616e-06
1.20117e-06
8.79362e-07
1.18654e-06
1.02944e-06
1.1094e-06
-3.22281e-07
1.19017e-06
1.47214e-06
1.09508e-06
-5.21839e-07
1.16289e-06
4.94735e-07
1.10996e-06
3.76713e-07
1.12941e-06
-3.04161e-07
1.15181e-06
-1.05422e-08
1.1489e-06
-5.56752e-07
1.1742e-06
1.22003e-07
1.17422e-06
-1.40437e-07
1.18424e-06
3.00347e-07
1.17592e-06
1.33368e-07
3.01661e-07
1.17598e-06
1.24747e-06
7.23115e-07
1.17515e-06
-1.01897e-06
1.25629e-06
1.48209e-06
1.20575e-06
1.50449e-07
1.14551e-06
-1.44592e-06
1.26312e-06
7.61758e-07
1.24721e-06
1.04535e-06
1.16848e-06
-2.43546e-07
1.24102e-06
1.3996e-06
1.14814e-06
-4.28959e-07
1.209e-06
4.33878e-07
1.17637e-06
4.09341e-07
1.18623e-06
-3.1402e-07
1.22302e-06
-4.73307e-08
1.21026e-06
-5.43994e-07
1.25595e-06
7.63148e-08
1.23353e-06
-1.18018e-07
1.26963e-06
2.64246e-07
1.23093e-06
1.72066e-07
2.69196e-07
1.2634e-06
1.30443e-06
7.01469e-07
1.2335e-06
-9.48045e-07
1.30657e-06
1.40902e-06
1.26907e-06
1.87953e-07
1.21279e-06
-1.38964e-06
1.32461e-06
6.49935e-07
1.31183e-06
1.05813e-06
1.23665e-06
-1.68356e-07
1.29593e-06
1.34031e-06
1.21161e-06
-3.4464e-07
1.25609e-06
3.89401e-07
1.25564e-06
4.0979e-07
1.24627e-06
-3.04644e-07
1.29417e-06
-9.52343e-08
1.27039e-06
-5.20213e-07
1.31796e-06
2.87412e-08
1.29423e-06
-9.42852e-08
1.32006e-06
2.3842e-07
1.29833e-06
1.93787e-07
2.67206e-07
1.30032e-06
1.36378e-06
6.81791e-07
1.29798e-06
-8.82243e-07
1.35831e-06
1.34869e-06
1.33863e-06
2.07636e-07
1.28463e-06
-1.33563e-06
1.38221e-06
5.5235e-07
1.37545e-06
1.06489e-06
1.31067e-06
-1.03579e-07
1.35393e-06
1.29705e-06
1.28493e-06
-2.75638e-07
1.30924e-06
3.65088e-07
1.3351e-06
3.8393e-07
1.31082e-06
-2.8037e-07
1.35388e-06
-1.38292e-07
1.33114e-06
-4.97474e-07
1.3634e-06
-3.51634e-09
1.35248e-06
-8.33658e-08
1.36423e-06
2.26674e-07
1.35472e-06
2.0329e-07
2.6879e-07
1.35314e-06
1.42569e-06
6.64453e-07
1.36867e-06
-8.25224e-07
1.41357e-06
1.30379e-06
1.41148e-06
2.09728e-07
1.35783e-06
-1.28199e-06
1.43364e-06
4.76546e-07
1.43621e-06
1.06232e-06
1.38631e-06
-5.36862e-08
1.41399e-06
1.26938e-06
1.36311e-06
-2.24759e-07
1.37223e-06
3.55967e-07
1.40847e-06
3.47684e-07
1.381e-06
-2.52896e-07
1.40969e-06
-1.66979e-07
1.39466e-06
-4.82444e-07
1.41369e-06
-2.25496e-08
1.41131e-06
-8.098e-08
1.41995e-06
2.18027e-07
1.41306e-06
2.10187e-07
2.68306e-07
1.41354e-06
1.49041e-06
6.49716e-07
1.44461e-06
-7.79422e-07
1.47457e-06
1.27382e-06
1.48497e-06
1.99327e-07
1.43109e-06
-1.2281e-06
1.48222e-06
4.25419e-07
1.4957e-06
1.04883e-06
1.46063e-06
-1.86125e-08
1.47665e-06
1.25336e-06
1.44273e-06
-1.90842e-07
1.44455e-06
3.54149e-07
1.47866e-06
3.13577e-07
1.45627e-06
-2.30512e-07
1.47146e-06
-1.82168e-07
1.46131e-06
-4.72285e-07
1.47547e-06
-3.67112e-08
1.47537e-06
-8.08787e-08
1.48575e-06
2.07639e-07
1.48156e-06
2.1438e-07
2.67347e-07
1.48252e-06
1.55828e-06
6.37654e-07
1.52423e-06
-7.45375e-07
1.54261e-06
1.25545e-06
1.55826e-06
1.83674e-07
1.50532e-06
-1.17516e-06
1.53458e-06
3.96155e-07
1.55735e-06
1.02607e-06
1.53356e-06
5.17695e-09
1.54373e-06
1.24318e-06
1.52335e-06
-1.7046e-07
1.52264e-06
3.54853e-07
1.55008e-06
2.86139e-07
1.53444e-06
-2.1487e-07
1.54109e-06
-1.88813e-07
1.53106e-06
-4.62255e-07
1.54437e-06
-5.00231e-08
1.54497e-06
-8.14829e-08
1.55722e-06
1.95393e-07
1.55656e-06
2.15039e-07
2.65281e-07
1.55862e-06
1.62964e-06
6.28138e-07
1.60616e-06
-7.21894e-07
1.6176e-06
1.24401e-06
1.63213e-06
1.69149e-07
1.58208e-06
-1.12512e-06
1.5962e-06
3.82042e-07
1.62418e-06
9.98088e-07
1.60726e-06
2.20915e-08
1.61674e-06
1.2337e-06
1.60558e-06
-1.59295e-07
1.60378e-06
3.56648e-07
1.62521e-06
2.64711e-07
1.6142e-06
-2.0386e-07
1.61625e-06
-1.90861e-07
1.60425e-06
-4.50257e-07
1.61631e-06
-6.20842e-08
1.61753e-06
-8.27031e-08
1.63116e-06
1.81768e-07
1.63315e-06
2.1305e-07
2.61466e-07
1.63696e-06
1.70481e-06
6.20902e-07
1.68972e-06
-7.068e-07
1.69848e-06
1.23525e-06
1.70801e-06
1.5961e-07
1.66236e-06
-1.07947e-06
1.66884e-06
3.75569e-07
1.6976e-06
9.69321e-07
1.68431e-06
3.53863e-08
1.69603e-06
1.22199e-06
1.68986e-06
-1.53134e-07
1.6876e-06
3.58914e-07
1.70501e-06
2.47305e-07
1.69599e-06
-1.94847e-07
1.69523e-06
-1.90094e-07
1.68122e-06
-4.36253e-07
1.69058e-06
-7.14433e-08
1.69173e-06
-8.38551e-08
1.70603e-06
1.67474e-07
1.70951e-06
2.09564e-07
2.56198e-07
1.71478e-06
1.78402e-06
6.15603e-07
1.77492e-06
-6.97704e-07
1.78397e-06
1.2262e-06
1.7873e-06
1.56283e-07
1.74643e-06
-1.0386e-06
1.75108e-06
3.70922e-07
1.77751e-06
9.42883e-07
1.76627e-06
4.6634e-08
1.78097e-06
1.20728e-06
1.77655e-06
-1.48714e-07
1.77488e-06
3.60592e-07
1.78954e-06
2.32637e-07
1.78089e-06
-1.86197e-07
1.77777e-06
-1.86973e-07
1.76227e-06
-4.20748e-07
1.76814e-06
-7.73192e-08
1.7683e-06
-8.40143e-08
1.7822e-06
1.53572e-07
1.78633e-06
2.05439e-07
2.49979e-07
1.79255e-06
1.86749e-06
6.1186e-07
1.86225e-06
-6.92463e-07
1.8732e-06
1.21525e-06
1.87097e-06
1.58515e-07
1.8343e-06
-1.00193e-06
1.84032e-06
3.64898e-07
1.86315e-06
9.20061e-07
1.85343e-06
5.63512e-08
1.8707e-06
1.19001e-06
1.86613e-06
-1.44138e-07
1.86615e-06
3.60565e-07
1.87834e-06
2.20449e-07
1.86958e-06
-1.77439e-07
1.8642e-06
-1.81588e-07
1.84769e-06
-4.04236e-07
1.85008e-06
-7.97084e-08
1.84863e-06
-8.2562e-08
1.86122e-06
1.40983e-07
1.86527e-06
2.01387e-07
2.43168e-07
1.87208e-06
1.95542e-06
6.09275e-07
1.95227e-06
-6.89304e-07
1.96578e-06
1.20174e-06
1.95959e-06
1.64707e-07
1.92603e-06
-9.68373e-07
1.93441e-06
3.56522e-07
1.95381e-06
9.00652e-07
1.94531e-06
6.48572e-08
1.96453e-06
1.17078e-06
1.95908e-06
-1.3869e-07
1.96136e-06
3.58289e-07
1.97079e-06
2.11018e-07
1.96212e-06
-1.68774e-07
1.95464e-06
-1.74108e-07
1.93765e-06
-3.87245e-07
1.93707e-06
-7.91211e-08
1.93372e-06
-7.92208e-08
1.94459e-06
1.30117e-07
1.94794e-06
1.98033e-07
2.36069e-07
1.95504e-06
2.04802e-06
6.07445e-07
2.04551e-06
-6.86797e-07
2.06173e-06
1.18553e-06
2.05341e-06
1.73023e-07
2.02177e-06
-9.36735e-07
2.0321e-06
3.46196e-07
2.0491e-06
8.83651e-07
2.04128e-06
7.26802e-08
2.06209e-06
1.14997e-06
2.05575e-06
-1.32352e-07
2.06017e-06
3.53873e-07
2.06658e-06
2.04607e-07
2.05829e-06
-1.60479e-07
2.04896e-06
-1.64781e-07
2.03207e-06
-3.70359e-07
2.02933e-06
-7.63812e-08
2.02406e-06
-7.39527e-08
2.03328e-06
1.20904e-07
2.03546e-06
1.95846e-07
2.29034e-07
2.0425e-06
2.1455e-06
6.05948e-07
2.1425e-06
-6.83798e-07
2.16128e-06
1.16675e-06
2.15249e-06
1.81806e-07
2.12176e-06
-9.05999e-07
2.13303e-06
3.34926e-07
2.14875e-06
8.67927e-07
2.14101e-06
8.0423e-08
2.1633e-06
1.12768e-06
2.15627e-06
-1.25319e-07
2.16249e-06
3.47653e-07
2.16592e-06
2.01177e-07
2.15803e-06
-1.52594e-07
2.14701e-06
-1.5376e-07
2.1307e-06
-3.54048e-07
2.1268e-06
-7.24793e-08
2.11976e-06
-6.69187e-08
2.12776e-06
1.12905e-07
2.12859e-06
1.95022e-07
2.22428e-07
2.13519e-06
2.2481e-06
6.04341e-07
2.24372e-06
-6.79424e-07
2.26473e-06
1.14574e-06
2.25679e-06
1.89747e-07
2.22622e-06
-8.75421e-07
2.23733e-06
3.23812e-07
2.25264e-06
8.52614e-07
2.24462e-06
8.84477e-08
2.26822e-06
1.10407e-06
2.26061e-06
-1.177e-07
2.26858e-06
3.39677e-07
2.26936e-06
2.00398e-07
2.26173e-06
-1.4496e-07
2.24897e-06
-1.41005e-07
2.23336e-06
-3.38434e-07
2.22926e-06
-6.83786e-08
2.22079e-06
-5.84516e-08
2.22827e-06
1.0542e-07
2.22793e-06
1.95365e-07
2.16536e-07
2.23382e-06
2.35604e-06
6.02178e-07
2.34964e-06
-6.73023e-07
2.3724e-06
1.12297e-06
2.36625e-06
1.95901e-07
2.33532e-06
-8.44493e-07
2.34532e-06
3.13811e-07
2.36082e-06
8.37116e-07
2.3525e-06
9.67691e-08
2.37705e-06
1.07953e-06
2.36878e-06
-1.09435e-07
2.37894e-06
3.29519e-07
2.37755e-06
2.01789e-07
2.37001e-06
-1.3742e-07
2.3554e-06
-1.26396e-07
2.34012e-06
-3.23158e-07
2.33662e-06
-6.48776e-08
2.32704e-06
-4.88727e-08
2.33479e-06
9.76739e-08
2.33391e-06
1.96242e-07
2.11566e-07
2.33888e-06
2.4695e-06
5.99078e-07
2.46064e-06
-6.64164e-07
2.48462e-06
1.09898e-06
2.48084e-06
1.99689e-07
2.44923e-06
-8.1289e-07
2.45736e-06
3.05688e-07
2.47353e-06
8.20944e-07
2.46506e-06
1.05233e-07
2.49003e-06
1.05456e-06
2.48098e-06
-1.00382e-07
2.494e-06
3.16498e-07
2.49097e-06
2.04816e-07
2.4835e-06
-1.29943e-07
2.46705e-06
-1.09946e-07
2.45138e-06
-3.07487e-07
2.44901e-06
-6.25108e-08
2.43848e-06
-3.83456e-08
2.44701e-06
8.91424e-08
2.44649e-06
1.96764e-07
2.07705e-07
2.45035e-06
2.58858e-06
5.94793e-07
2.57707e-06
-6.52651e-07
2.60182e-06
1.07423e-06
2.60059e-06
2.00921e-07
2.56819e-06
-7.80494e-07
2.57389e-06
2.99985e-07
2.59117e-06
8.03667e-07
2.58264e-06
1.13759e-07
2.60758e-06
1.02963e-06
2.59762e-06
-9.04304e-08
2.61406e-06
3.00062e-07
2.60992e-06
2.08955e-07
2.60258e-06
-1.22601e-07
2.5846e-06
-9.19717e-08
2.56767e-06
-2.90554e-07
2.56672e-06
-6.15591e-08
2.55526e-06
-2.68868e-08
2.56458e-06
7.98219e-08
2.5653e-06
1.96045e-07
2.05176e-07
2.56783e-06
2.7134e-06
5.89218e-07
2.69926e-06
-6.38508e-07
2.72448e-06
1.04901e-06
2.72562e-06
1.99789e-07
2.69257e-06
-7.47446e-07
2.69558e-06
2.96976e-07
2.71423e-06
7.85017e-07
2.70557e-06
1.22421e-07
2.73021e-06
1.00498e-06
2.71931e-06
-7.95234e-08
2.73934e-06
2.80031e-07
2.73456e-06
2.13737e-07
2.72743e-06
-1.1548e-07
2.70857e-06
-7.31059e-08
2.6896e-06
-2.71583e-07
2.69013e-06
-6.20963e-08
2.67778e-06
-1.45328e-08
2.68734e-06
7.02588e-08
2.69002e-06
1.93373e-07
2.04182e-07
2.69101e-06
2.84414e-06
5.82343e-07
2.82755e-06
-6.21916e-07
2.85309e-06
1.02347e-06
2.85614e-06
1.96738e-07
2.82281e-06
-7.14115e-07
2.82312e-06
2.96665e-07
2.84316e-06
7.64977e-07
2.8342e-06
1.31377e-07
2.85856e-06
9.80619e-07
2.84663e-06
-6.75944e-08
2.87005e-06
2.56619e-07
2.86503e-06
2.18759e-07
2.85816e-06
-1.08614e-07
2.83926e-06
-5.42084e-08
2.81771e-06
-2.50035e-07
2.81965e-06
-6.40279e-08
2.80662e-06
-1.51157e-09
2.81547e-06
6.1411e-08
2.82063e-06
1.88216e-07
2.04743e-07
2.82007e-06
2.98105e-06
5.7419e-07
2.96225e-06
-6.03114e-07
2.98801e-06
9.977e-07
2.99246e-06
1.92292e-07
2.95933e-06
-6.8098e-07
2.95712e-06
2.98871e-07
2.97835e-06
7.43748e-07
2.96897e-06
1.40753e-07
2.99323e-06
9.56365e-07
2.98014e-06
-5.45113e-08
3.00639e-06
2.30375e-07
3.00148e-06
2.23671e-07
2.99485e-06
-1.01986e-07
2.97689e-06
-3.62557e-08
2.95253e-06
-2.25673e-07
2.95559e-06
-6.70876e-08
2.94236e-06
1.172e-08
2.94934e-06
5.44279e-08
2.9573e-06
1.80255e-07
2.06527e-07
2.95552e-06
3.12441e-06
5.64784e-07
3.10364e-06
-5.82344e-07
3.12957e-06
9.71775e-07
3.13493e-06
1.86931e-07
3.10245e-06
-6.48496e-07
3.09797e-06
3.03348e-07
3.12009e-06
7.21627e-07
3.11027e-06
1.50577e-07
3.13472e-06
9.31914e-07
3.12029e-06
-4.00862e-08
3.14852e-06
2.02145e-07
3.14406e-06
2.2813e-07
3.13763e-06
-9.55556e-08
3.12161e-06
-2.02382e-08
3.09452e-06
-1.98581e-07
3.09827e-06
-7.08376e-08
3.08546e-06
2.45319e-08
3.08947e-06
5.04185e-08
3.10019e-06
1.69536e-07
2.08847e-07
3.09787e-06
3.27455e-06
5.54146e-07
3.25203e-06
-5.59828e-07
3.27805e-06
9.45754e-07
3.2839e-06
1.8108e-07
3.25244e-06
-6.17034e-07
3.24592e-06
3.09873e-07
3.26865e-06
6.98894e-07
3.25846e-06
1.60763e-07
3.28347e-06
9.06906e-07
3.26752e-06
-2.41405e-08
3.29663e-06
1.73035e-07
3.29296e-06
2.31804e-07
3.28669e-06
-8.92897e-08
3.27351e-06
-7.05253e-09
3.24409e-06
-1.6916e-07
3.24795e-06
-7.46969e-08
3.23625e-06
3.62257e-08
3.23652e-06
5.01537e-08
3.24937e-06
1.56679e-07
2.10761e-07
3.24746e-06
3.43175e-06
5.42328e-07
3.4077e-06
-5.35781e-07
3.43381e-06
9.19649e-07
3.43973e-06
1.7516e-07
3.40954e-06
-5.86846e-07
3.40117e-06
3.18242e-07
3.4243e-06
6.75768e-07
3.41395e-06
1.71108e-07
3.43986e-06
8.80997e-07
3.4223e-06
-6.58036e-09
3.45101e-06
1.44323e-07
3.44841e-06
2.34404e-07
3.44226e-06
-8.31379e-08
3.43262e-06
2.5823e-09
3.40155e-06
-1.38081e-07
3.40485e-06
-7.79956e-08
3.39494e-06
4.61296e-08
3.39121e-06
5.38885e-08
3.405e-06
1.42885e-07
2.11269e-07
3.40449e-06
3.59631e-06
5.29425e-07
3.57097e-06
-5.10433e-07
3.59726e-06
8.93355e-07
3.60276e-06
1.69658e-07
3.57397e-06
-5.58058e-07
3.564e-06
3.28213e-07
3.58735e-06
6.5242e-07
3.57716e-06
1.813e-07
3.60423e-06
8.53927e-07
3.58511e-06
1.25436e-08
3.61212e-06
1.17304e-07
3.61077e-06
2.35763e-07
3.60463e-06
-7.69997e-08
3.59898e-06
8.2288e-09
3.56715e-06
-1.06247e-07
3.56917e-06
-8.0017e-08
3.56162e-06
5.36764e-08
3.55418e-06
6.13261e-08
3.56734e-06
1.29726e-07
2.09509e-07
3.5691e-06
3.76854e-06
5.1559e-07
3.74213e-06
-4.84023e-07
3.76888e-06
8.66609e-07
3.77337e-06
1.65167e-07
3.74598e-06
-5.30671e-07
3.73477e-06
3.39429e-07
3.75817e-06
6.29018e-07
3.74853e-06
1.90941e-07
3.77689e-06
8.25568e-07
3.75643e-06
3.29999e-08
3.78064e-06
9.30961e-08
3.7805e-06
2.35898e-07
3.77419e-06
-7.06915e-08
3.77261e-06
9.81371e-09
3.74102e-06
-7.46581e-08
3.74112e-06
-8.01192e-08
3.73629e-06
5.85102e-08
3.72591e-06
7.17003e-08
3.73684e-06
1.188e-07
2.04949e-07
3.7414e-06
3.94876e-06
5.01015e-07
3.92152e-06
-4.56784e-07
3.94914e-06
8.38989e-07
3.95194e-06
1.62366e-07
3.92584e-06
-5.04567e-07
3.9139e-06
3.51365e-07
3.93716e-06
6.05764e-07
3.92849e-06
1.99611e-07
3.95811e-06
7.95946e-07
3.93673e-06
5.43738e-08
3.95735e-06
7.24784e-08
3.95824e-06
2.35016e-07
3.95144e-06
-6.39005e-08
3.95361e-06
7.6524e-09
3.92328e-06
-4.43339e-08
3.92089e-06
-7.7723e-08
3.91886e-06
6.05374e-08
3.90671e-06
8.38512e-08
3.91409e-06
1.11413e-07
1.97573e-07
3.92147e-06
4.13737e-06
4.85899e-07
4.10949e-06
-4.28907e-07
4.1385e-06
8.09983e-07
4.13893e-06
1.61932e-07
4.11388e-06
-4.79521e-07
4.10191e-06
3.63343e-07
4.12477e-06
5.82905e-07
4.11744e-06
2.06932e-07
4.14815e-06
7.6524e-07
4.12641e-06
7.61126e-08
4.1431e-06
5.57883e-08
4.14467e-06
2.33446e-07
4.13694e-06
-5.61706e-08
4.14222e-06
2.37814e-09
4.11405e-06
-1.61674e-08
4.10866e-06
-7.23379e-08
4.1093e-06
5.98982e-08
4.09675e-06
9.64023e-08
4.09992e-06
1.0825e-07
1.88034e-07
4.10945e-06
4.33479e-06
4.70408e-07
4.3064e-06
-4.00517e-07
4.33729e-06
7.79091e-07
4.33481e-06
1.64418e-07
4.31053e-06
-4.5524e-07
4.29926e-06
3.7461e-07
4.32145e-06
5.60719e-07
4.31577e-06
2.12605e-07
4.34725e-06
7.33769e-07
4.32575e-06
9.76118e-08
4.33862e-06
4.29135e-08
4.34053e-06
2.31535e-07
4.33135e-06
-4.69852e-08
4.33883e-06
-5.10277e-09
4.31352e-06
9.13823e-09
4.30484e-06
-6.36544e-08
4.30772e-06
5.70144e-08
4.29617e-06
1.07953e-07
4.29516e-06
1.0926e-07
1.77562e-07
4.30564e-06
4.54154e-06
4.54641e-07
4.51268e-06
-3.7166e-07
4.54583e-06
7.45947e-07
4.54011e-06
1.70134e-07
4.51626e-06
-4.31393e-07
4.50642e-06
3.8445e-07
4.52765e-06
5.39488e-07
4.52382e-06
2.16439e-07
4.55566e-06
7.0193e-07
4.53494e-06
1.18334e-07
4.54445e-06
3.33976e-08
4.54648e-06
2.29506e-07
4.53537e-06
-3.58741e-08
4.54401e-06
-1.37444e-08
4.52202e-06
3.11345e-08
4.51e-06
-5.16412e-08
4.51436e-06
5.2661e-08
4.50507e-06
1.17245e-07
4.50058e-06
1.13744e-07
1.67671e-07
4.51047e-06
4.75814e-06
4.38618e-07
4.72879e-06
-3.42317e-07
4.76434e-06
7.10405e-07
4.75539e-06
1.79081e-07
4.73166e-06
-4.0766e-07
4.72382e-06
3.92292e-07
4.74382e-06
5.19483e-07
4.74191e-06
2.18347e-07
4.77373e-06
6.70109e-07
4.75415e-06
1.37918e-07
4.76094e-06
2.66048e-08
4.76308e-06
2.27372e-07
4.7497e-06
-2.25015e-08
4.75846e-06
-2.24961e-08
4.74e-06
4.95901e-08
4.72487e-06
-3.65081e-08
4.72968e-06
4.78519e-08
4.72351e-06
1.2341e-07
4.71678e-06
1.20473e-07
1.59793e-07
4.72466e-06
4.98513e-06
4.22288e-07
4.95524e-06
-3.12429e-07
4.99307e-06
6.72572e-07
4.98121e-06
1.9094e-07
4.95731e-06
-3.83753e-07
4.95185e-06
3.97746e-07
4.97038e-06
5.00954e-07
4.97038e-06
2.18351e-07
5.00188e-06
6.38607e-07
4.98358e-06
1.56215e-07
4.98829e-06
2.18966e-08
4.99074e-06
2.24926e-07
4.975e-06
-6.76096e-09
4.98288e-06
-3.03762e-08
4.96811e-06
6.43567e-08
4.95021e-06
-1.86097e-08
4.95434e-06
4.37266e-08
4.95169e-06
1.2606e-07
4.9442e-06
1.27957e-07
1.54789e-07
4.94921e-06
5.22305e-06
4.05557e-07
5.19256e-06
-2.81939e-07
5.23235e-06
6.32775e-07
5.21815e-06
2.05147e-07
5.19383e-06
-3.59431e-07
5.19098e-06
4.0059e-07
5.2078e-06
4.8414e-07
5.20957e-06
2.16574e-07
5.24059e-06
6.07585e-07
5.22355e-06
1.73256e-07
5.22667e-06
1.87781e-08
5.2298e-06
2.218e-07
5.21182e-06
1.12214e-08
5.21797e-06
-3.65273e-08
5.20697e-06
7.53513e-08
5.1869e-06
1.45857e-09
5.18919e-06
4.14371e-08
5.18993e-06
1.25319e-07
5.18312e-06
1.3477e-07
1.52726e-07
5.18518e-06
5.47242e-06
3.88322e-07
5.4413e-06
-2.50819e-07
5.48258e-06
5.91502e-07
5.46676e-06
2.20968e-07
5.44181e-06
-3.3448e-07
5.44169e-06
4.00707e-07
5.45658e-06
4.69247e-07
5.45989e-06
2.13269e-07
5.49042e-06
5.77055e-07
5.47449e-06
1.8918e-07
5.47631e-06
1.69619e-08
5.48052e-06
2.17588e-07
5.46067e-06
3.1076e-08
5.46438e-06
-4.02409e-08
5.45714e-06
8.25918e-08
5.43577e-06
2.28266e-08
5.43532e-06
4.18889e-08
5.43879e-06
1.21847e-07
5.43374e-06
1.39828e-07
1.52872e-07
5.43359e-06
5.73379e-06
3.70495e-07
5.70205e-06
-2.19088e-07
5.74423e-06
5.49326e-07
5.72762e-06
2.37583e-07
5.70182e-06
-3.08688e-07
5.70449e-06
3.98034e-07
5.71734e-06
4.56398e-07
5.7218e-06
2.08811e-07
5.75192e-06
5.46939e-07
5.73696e-06
2.04134e-07
5.73754e-06
1.63823e-08
5.74318e-06
2.11947e-07
5.72206e-06
5.22011e-08
5.7227e-06
-4.08774e-08
5.71914e-06
8.61501e-08
5.69747e-06
4.44925e-08
5.69387e-06
4.54927e-08
5.69902e-06
1.16695e-07
5.69631e-06
1.42537e-07
1.54036e-07
5.69515e-06
6.00766e-06
3.52026e-07
5.9754e-06
-1.8683e-07
6.01787e-06
5.06855e-07
6.00131e-06
2.54151e-07
5.97444e-06
-2.8182e-07
5.97995e-06
3.92527e-07
5.99076e-06
4.45584e-07
5.99587e-06
2.037e-07
6.0257e-06
5.17111e-07
6.01161e-06
2.18219e-07
6.01084e-06
1.71514e-08
6.0181e-06
2.04686e-07
5.9965e-06
7.38098e-08
5.99353e-06
-3.79113e-08
5.99339e-06
8.62917e-08
5.97261e-06
6.52685e-08
5.96579e-06
5.23194e-08
5.97151e-06
1.1097e-07
5.97123e-06
1.42815e-07
1.55122e-07
5.97015e-06
6.2946e-06
3.32913e-07
6.26196e-06
-1.54191e-07
6.30411e-06
4.64704e-07
6.28845e-06
2.69813e-07
6.26021e-06
-2.53578e-07
6.26859e-06
3.84149e-07
6.27752e-06
4.36648e-07
6.28271e-06
1.9851e-07
6.31238e-06
4.87441e-07
6.29914e-06
2.31457e-07
6.2968e-06
1.94945e-08
6.30573e-06
1.95753e-07
6.28449e-06
9.50576e-08
6.27766e-06
-3.10864e-08
6.28033e-06
8.36231e-08
6.26163e-06
8.39679e-08
6.25187e-06
6.20847e-08
6.25716e-06
1.05679e-07
6.25906e-06
1.4091e-07
1.55406e-07
6.25878e-06
6.59518e-06
3.13198e-07
6.56238e-06
-1.21389e-07
6.60359e-06
4.23491e-07
6.5897e-06
2.83706e-07
6.55972e-06
-2.23597e-07
6.57093e-06
3.72942e-07
6.57833e-06
4.29246e-07
6.583e-06
1.93837e-07
6.6126e-06
4.57849e-07
6.60032e-06
2.43735e-07
6.59612e-06
2.36946e-08
6.60659e-06
1.85277e-07
6.5866e-06
1.1505e-07
6.57592e-06
-2.04094e-08
6.58052e-06
7.90301e-08
6.56493e-06
9.95574e-08
6.55278e-06
7.42327e-08
6.55676e-06
1.01703e-07
6.56037e-06
1.37292e-07
1.54461e-07
6.56132e-06
6.91002e-06
2.92968e-07
6.87734e-06
-8.87088e-08
6.91699e-06
3.83842e-07
6.90577e-06
2.94923e-07
6.87357e-06
-1.91392e-07
6.88741e-06
3.59098e-07
6.89385e-06
4.22803e-07
6.89748e-06
1.90208e-07
6.92695e-06
4.28382e-07
6.91591e-06
2.54771e-07
6.90961e-06
2.9997e-08
6.92132e-06
1.73565e-07
6.90342e-06
1.3295e-07
6.88924e-06
-6.22877e-09
6.89458e-06
7.3695e-08
6.88281e-06
1.11326e-07
6.8692e-06
8.78397e-08
6.87107e-06
9.98331e-08
6.87584e-06
1.32521e-07
1.52223e-07
6.87808e-06
7.23975e-06
2.72352e-07
7.20755e-06
-5.6502e-08
7.245e-06
3.46389e-07
7.23743e-06
3.02491e-07
7.20253e-06
-1.56493e-07
7.21855e-06
3.43076e-07
7.22475e-06
4.16611e-07
7.22689e-06
1.8806e-07
7.2561e-06
3.99177e-07
7.24666e-06
2.64208e-07
7.23817e-06
3.84917e-08
7.25066e-06
1.61073e-07
7.23558e-06
1.48025e-07
7.21859e-06
1.07689e-08
7.22333e-06
6.89496e-08
7.21557e-06
1.19084e-07
7.20147e-06
1.01938e-07
7.20077e-06
1.0054e-07
7.20616e-06
1.27127e-07
1.4854e-07
7.20984e-06
7.58506e-06
2.51514e-07
7.55374e-06
-2.51799e-08
7.58836e-06
3.1177e-07
7.58545e-06
3.05406e-07
7.54764e-06
-1.18692e-07
7.56495e-06
3.25776e-07
7.57166e-06
4.09901e-07
7.57207e-06
1.87647e-07
7.60074e-06
3.70506e-07
7.59328e-06
2.71666e-07
7.58268e-06
4.90918e-08
7.59539e-06
1.48367e-07
7.58368e-06
1.59737e-07
7.56484e-06
2.96036e-08
7.5679e-06
6.58936e-08
7.56393e-06
1.23056e-07
7.54989e-06
1.1597e-07
7.54609e-06
1.04346e-07
7.55149e-06
1.21726e-07
1.43111e-07
7.55692e-06
7.94667e-06
2.30654e-07
7.91667e-06
4.81729e-09
7.94785e-06
2.80591e-07
7.94967e-06
3.03585e-07
7.90996e-06
-7.89751e-08
7.92733e-06
3.08397e-07
7.93526e-06
4.01977e-07
7.93386e-06
1.89043e-07
7.96159e-06
3.42783e-07
7.95642e-06
2.76828e-07
7.94408e-06
6.14339e-08
7.9563e-06
1.36147e-07
7.94848e-06
1.67554e-07
7.92882e-06
4.9265e-08
7.92978e-06
6.49384e-08
7.92899e-06
1.2384e-07
7.91534e-06
1.29624e-07
7.90782e-06
1.11867e-07
7.91133e-06
1.18218e-07
1.34811e-07
7.91963e-06
8.32535e-06
2.09988e-07
8.29713e-06
3.30375e-08
8.32428e-06
2.53437e-07
8.33043e-06
2.97439e-07
8.2904e-06
-3.89479e-08
8.30657e-06
2.92225e-07
8.31624e-06
3.9231e-07
8.31317e-06
1.92115e-07
8.33942e-06
3.16533e-07
8.33682e-06
2.79429e-07
8.32319e-06
7.50591e-08
8.33414e-06
1.25198e-07
8.33026e-06
1.71432e-07
8.31099e-06
6.85394e-08
8.31156e-06
6.43667e-08
8.31891e-06
1.1649e-07
8.31632e-06
1.32215e-07
8.31474e-06
1.13445e-07
8.31969e-06
1.13267e-07
1.3184e-07
8.32266e-06
8.72189e-06
1.89763e-07
8.69589e-06
5.90368e-08
8.71861e-06
2.30714e-07
8.7286e-06
2.87451e-07
8.68979e-06
-1.38228e-10
8.70365e-06
2.78364e-07
8.71523e-06
3.80728e-07
8.71091e-06
1.9644e-07
8.73512e-06
2.92323e-07
8.73511e-06
2.79439e-07
8.72079e-06
8.93765e-08
8.73016e-06
1.15826e-07
8.73008e-06
1.71519e-07
8.71272e-06
8.58963e-08
8.71198e-06
6.5103e-08
8.72033e-06
1.0814e-07
8.71926e-06
1.33286e-07
8.71453e-06
1.18181e-07
8.71683e-06
1.10968e-07
1.26733e-07
8.72193e-06
9.13716e-06
1.70227e-07
9.11382e-06
8.23687e-08
9.13186e-06
2.12675e-07
9.14513e-06
2.74187e-07
9.10875e-06
3.62426e-08
9.11962e-06
2.67486e-07
9.13292e-06
3.6743e-07
9.1281e-06
2.01267e-07
9.14957e-06
2.70852e-07
9.15217e-06
2.76832e-07
9.13785e-06
1.03696e-07
9.14531e-06
1.08371e-07
9.14787e-06
1.68958e-07
9.13267e-06
1.01096e-07
9.1302e-06
6.75763e-08
9.13907e-06
9.9262e-08
9.142e-06
1.30358e-07
9.13836e-06
1.21827e-07
9.13881e-06
1.10513e-07
1.24041e-07
9.1415e-06
9.57204e-06
1.51646e-07
9.55179e-06
1.0262e-07
9.56518e-06
1.9928e-07
9.58098e-06
2.58388e-07
9.54802e-06
6.92081e-08
9.55559e-06
2.59915e-07
9.57008e-06
3.5294e-07
9.56555e-06
2.05796e-07
9.58398e-06
2.52419e-07
9.58855e-06
2.72264e-07
9.57501e-06
1.17239e-07
9.58151e-06
1.01872e-07
9.58639e-06
1.64073e-07
9.57012e-06
1.17368e-07
9.55868e-06
7.90149e-08
9.55993e-06
9.80158e-08
9.5569e-06
1.33379e-07
9.5481e-06
1.30632e-07
9.54494e-06
1.13671e-07
1.14403e-07
9.55458e-06
1.00275e-05
1.34254e-07
1.00107e-05
1.19468e-07
1.00198e-05
1.90206e-07
1.00371e-05
2.41054e-07
1.00085e-05
9.77996e-08
1.00125e-05
2.55894e-07
1.00277e-05
3.37713e-07
1.0024e-05
2.09522e-07
1.00395e-05
2.36907e-07
1.00454e-05
2.66371e-07
1.00322e-05
1.30447e-07
1.00349e-05
9.92348e-08
1.00422e-05
1.56727e-07
1.0034e-05
1.25549e-07
1.00307e-05
8.23744e-08
1.00394e-05
8.92444e-08
1.00479e-05
1.24886e-07
1.00488e-05
1.29775e-07
1.00459e-05
1.16515e-07
1.18633e-07
1.00417e-05
1.05046e-05
1.18296e-07
1.04915e-05
1.32591e-07
1.04966e-05
1.85034e-07
1.05145e-05
2.23175e-07
1.04908e-05
1.21504e-07
1.04919e-05
2.54772e-07
1.05066e-05
3.23015e-07
1.05043e-05
2.11827e-07
1.05171e-05
2.24122e-07
1.05238e-05
2.59677e-07
1.05117e-05
1.42568e-07
1.05122e-05
9.87458e-08
1.05183e-05
1.50646e-07
1.0508e-05
1.35805e-07
1.04951e-05
9.52834e-08
1.04937e-05
9.06413e-08
1.04969e-05
1.21647e-07
1.04939e-05
1.32861e-07
1.0491e-05
1.19331e-07
1.14507e-07
1.04952e-05
1.10044e-05
1.03947e-07
1.09951e-05
1.41821e-07
1.0997e-05
1.83127e-07
1.10142e-05
2.06014e-07
1.09959e-05
1.39803e-07
1.09948e-05
2.55886e-07
1.10081e-05
3.09725e-07
1.10072e-05
2.1269e-07
1.10179e-05
2.13461e-07
1.1025e-05
2.52562e-07
1.10136e-05
1.53972e-07
1.10109e-05
1.01458e-07
1.1017e-05
1.44493e-07
1.10105e-05
1.42382e-07
1.09989e-05
1.06841e-07
1.09958e-05
9.37654e-08
1.10001e-05
1.17284e-07
1.10009e-05
1.32084e-07
1.09993e-05
1.20933e-07
1.13176e-07
1.10006e-05
1.1528e-05
9.13566e-08
1.15226e-05
1.47141e-07
1.15221e-05
1.83672e-07
1.15373e-05
1.90788e-07
1.15245e-05
1.52572e-07
1.15222e-05
2.58198e-07
1.15335e-05
2.98508e-07
1.15335e-05
2.12629e-07
1.15428e-05
2.04152e-07
1.15501e-05
2.45251e-07
1.15401e-05
1.64017e-07
1.15351e-05
1.06431e-07
1.15412e-05
1.38401e-07
1.15378e-05
1.45829e-07
1.15279e-05
1.16734e-07
1.15233e-05
9.83008e-08
1.15276e-05
1.13013e-07
1.15304e-05
1.29253e-07
1.15293e-05
1.22041e-07
1.12334e-07
1.15302e-05
1.20766e-05
8.05916e-08
1.20751e-05
1.48641e-07
1.20728e-05
1.86007e-07
1.20852e-05
1.78345e-07
1.20776e-05
1.60174e-07
1.20755e-05
2.60245e-07
1.20841e-05
2.89954e-07
1.20844e-05
2.12281e-07
1.20928e-05
1.95823e-07
1.21007e-05
2.37346e-07
1.20923e-05
1.72354e-07
1.20857e-05
1.13038e-07
1.20909e-05
1.33227e-07
1.20902e-05
1.46568e-07
1.20823e-05
1.24656e-07
1.20768e-05
1.03775e-07
1.20797e-05
1.10106e-07
1.2084e-05
1.24945e-07
1.20846e-05
1.21445e-07
1.11754e-07
1.20852e-05
1.26515e-05
7.16725e-08
1.26535e-05
1.46684e-07
1.26502e-05
1.89269e-07
1.26593e-05
1.69266e-07
1.26561e-05
1.63336e-07
1.26555e-05
2.6091e-07
1.26616e-05
2.83789e-07
1.26614e-05
2.1249e-07
1.2669e-05
1.8826e-07
1.26776e-05
2.28745e-07
1.26712e-05
1.7878e-07
1.26636e-05
1.20546e-07
1.26674e-05
1.29442e-07
1.26686e-05
1.4539e-07
1.26628e-05
1.30451e-07
1.26575e-05
1.0912e-07
1.2659e-05
1.08554e-07
1.26637e-05
1.20255e-07
1.26657e-05
1.19497e-07
1.11145e-07
1.26663e-05
1.32541e-05
6.4513e-08
1.32589e-05
1.4183e-07
1.32555e-05
1.92724e-07
1.32611e-05
1.63704e-07
1.32613e-05
1.63068e-07
1.32629e-05
2.59338e-07
1.32674e-05
2.79327e-07
1.32662e-05
2.13635e-07
1.32726e-05
1.81918e-07
1.32819e-05
2.19434e-07
1.32777e-05
1.8296e-07
1.327e-05
1.28279e-07
1.32721e-05
1.27336e-07
1.32745e-05
1.42916e-07
1.32709e-05
1.34055e-07
1.3266e-05
1.14011e-07
1.32663e-05
1.08325e-07
1.32706e-05
1.1596e-07
1.32735e-05
1.16551e-07
1.09644e-07
1.3275e-05
1.38857e-05
5.89476e-08
1.38926e-05
1.34937e-07
1.38899e-05
1.95436e-07
1.3892e-05
1.61575e-07
1.38946e-05
1.60486e-07
1.38987e-05
2.55247e-07
1.39024e-05
2.75661e-07
1.39004e-05
2.15612e-07
1.39051e-05
1.77174e-07
1.39149e-05
2.09668e-07
1.3913e-05
1.84916e-07
1.39056e-05
1.35592e-07
1.39062e-05
1.26743e-07
1.39093e-05
1.39833e-07
1.39076e-05
1.35784e-07
1.39035e-05
1.1808e-07
1.39031e-05
1.08739e-07
1.39069e-05
1.12135e-07
1.39103e-05
1.13144e-07
1.07524e-07
1.39125e-05
1.45479e-05
5.47166e-08
1.45559e-05
1.26895e-07
1.45547e-05
1.9665e-07
1.45537e-05
1.62568e-07
1.45573e-05
1.56946e-07
1.45639e-05
2.48642e-07
1.45679e-05
2.71682e-07
1.45653e-05
2.18126e-07
1.45683e-05
1.74175e-07
1.4578e-05
2.00037e-07
1.45782e-05
1.84646e-07
1.45719e-05
1.41909e-07
1.45713e-05
1.27368e-07
1.45745e-05
1.36682e-07
1.45744e-05
1.35794e-07
1.45715e-05
1.20998e-07
1.45706e-05
1.09667e-07
1.45737e-05
1.09053e-07
1.45772e-05
1.09633e-07
1.05034e-07
1.45797e-05
1.52421e-05
5.15163e-08
1.52504e-05
1.18584e-07
1.52512e-05
1.95842e-07
1.52478e-05
1.65961e-07
1.52506e-05
1.54105e-07
1.52595e-05
2.39745e-07
1.52647e-05
2.66489e-07
1.52623e-05
2.20553e-07
1.52638e-05
1.72734e-07
1.52727e-05
1.91128e-07
1.52749e-05
1.82412e-07
1.527e-05
1.46812e-07
1.52687e-05
1.2869e-07
1.52715e-05
1.33829e-07
1.52728e-05
1.34535e-07
1.52711e-05
1.22705e-07
1.527e-05
1.10725e-07
1.52724e-05
1.06639e-07
1.52762e-05
1.05852e-07
1.02433e-07
1.52788e-05
1.59698e-05
4.90506e-08
1.59777e-05
1.10669e-07
1.59806e-05
1.92968e-07
1.59759e-05
1.70651e-07
1.59763e-05
1.53661e-07
1.59871e-05
2.2903e-07
1.59943e-05
2.59278e-07
1.59928e-05
2.22041e-07
1.5993e-05
1.72543e-07
1.60007e-05
1.83377e-07
1.60044e-05
1.78719e-07
1.60012e-05
1.5005e-07
1.59997e-05
1.3021e-07
1.60021e-05
1.31389e-07
1.60042e-05
1.32405e-07
1.60038e-05
1.23132e-07
1.60031e-05
1.11435e-07
1.60047e-05
1.05072e-07
1.60085e-05
1.01985e-07
9.98706e-08
1.60111e-05
1.67326e-05
4.70742e-08
1.67397e-05
1.03522e-07
1.67443e-05
1.8843e-07
1.67397e-05
1.75237e-07
1.67376e-05
1.55752e-07
1.67484e-05
2.18209e-07
1.6758e-05
2.4969e-07
1.67581e-05
2.21932e-07
1.67577e-05
1.72995e-07
1.6764e-05
1.76981e-07
1.67686e-05
1.7416e-07
1.6767e-05
1.51641e-07
1.67657e-05
1.31544e-07
1.67678e-05
1.29228e-07
1.67705e-05
1.29768e-07
1.67711e-05
1.22514e-07
1.67711e-05
1.11434e-07
1.67719e-05
1.0425e-07
1.67755e-05
9.84319e-08
9.68826e-08
1.67785e-05
1.7532e-05
4.53923e-08
1.75382e-05
9.73944e-08
1.7544e-05
1.82615e-07
1.75404e-05
1.78847e-07
1.75371e-05
1.59059e-07
1.75463e-05
2.0896e-07
1.75577e-05
2.38279e-07
1.75597e-05
2.19928e-07
1.75593e-05
1.73422e-07
1.75645e-05
1.71829e-07
1.75694e-05
1.69245e-07
1.75692e-05
1.5177e-07
1.75683e-05
1.32468e-07
1.75702e-05
1.27316e-07
1.75733e-05
1.26715e-07
1.75747e-05
1.21127e-07
1.75755e-05
1.10572e-07
1.75762e-05
1.03546e-07
1.7579e-05
9.56493e-08
9.33829e-08
1.75825e-05
1.83699e-05
4.38496e-08
1.83749e-05
9.23872e-08
1.83817e-05
1.7585e-07
1.83794e-05
1.81088e-07
1.8376e-05
1.6252e-07
1.83835e-05
2.0142e-07
1.83954e-05
2.26381e-07
1.83993e-05
2.16003e-07
1.83994e-05
1.73319e-07
1.84037e-05
1.67587e-07
1.84086e-05
1.64323e-07
1.84096e-05
1.50743e-07
1.84093e-05
1.32739e-07
1.84111e-05
1.25605e-07
1.84144e-05
1.23378e-07
1.84164e-05
1.19108e-07
1.8418e-05
1.08983e-07
1.84192e-05
1.02397e-07
1.84211e-05
9.37419e-08
8.98383e-08
1.84246e-05
1.92479e-05
4.23392e-08
1.92519e-05
8.83644e-08
1.92592e-05
1.68554e-07
1.92585e-05
1.81854e-07
1.92556e-05
1.65419e-07
1.92617e-05
1.95267e-07
1.92732e-05
2.14892e-07
1.92787e-05
2.10466e-07
1.92797e-05
1.72399e-07
1.92833e-05
1.63913e-07
1.92882e-05
1.59478e-07
1.92901e-05
1.48804e-07
1.92906e-05
1.32284e-07
1.92922e-05