/*--------------------------------*- C++ -*----------------------------------*\
| =========                 |                                                 |
| \\      /  F ield         | OpenFOAM: The Open Source CFD Toolbox           |
|  \\    /   O peration     | Version:  v1912                                 |
|   \\  /    A nd           | Website:  www.openfoam.com                      |
|    \\/     M anipulation  |                                                 |
\*---------------------------------------------------------------------------*/
FoamFile
{
    version     2.0;
    format      ascii;
    class       surfaceScalarField;
    location    "1.15";
    object      phi;
}
// * * * * * * * * * * * * * * * * * * * * * * * * * * * * * * * * * * * * * //

dimensions      [0 3 -1 0 0 0 0];
oriented        oriented;


internalField   nonuniform List<scalar> 
19000
(
1.15431e-06
2.06179e-07
1.13881e-06
-4.50718e-07
1.24687e-06
-1.05685e-06
1.22697e-06
1.11755e-06
1.12755e-06
6.12445e-07
1.15256e-06
-1.59871e-08
1.20315e-06
-1.29924e-06
1.18073e-06
-4.26881e-07
1.20618e-06
-1.94934e-07
1.17952e-06
1.11992e-07
1.17754e-06
3.2465e-07
1.18867e-06
6.74777e-07
1.15951e-06
1.376e-07
1.16612e-06
7.72661e-08
1.17995e-06
-2.98007e-07
1.17258e-06
-6.84704e-08
1.18361e-06
-2.30671e-07
1.17176e-06
-7.74275e-08
1.17323e-06
-1.21963e-07
1.38541e-08
1.15108e-06
1.2072e-06
2.23241e-07
1.19165e-06
-4.35173e-07
1.30647e-06
-1.17167e-06
1.29889e-06
1.12513e-06
1.19251e-06
7.18833e-07
1.2157e-06
-3.91827e-08
1.26651e-06
-1.35004e-06
1.24475e-06
-4.05127e-07
1.26915e-06
-2.19329e-07
1.24455e-06
1.36588e-07
1.23244e-06
3.36766e-07
1.2594e-06
6.47812e-07
1.22186e-06
1.7514e-07
1.23428e-06
6.48523e-08
1.23551e-06
-2.99243e-07
1.24345e-06
-7.64143e-08
1.23518e-06
-2.22398e-07
1.24583e-06
-8.808e-08
1.21947e-06
-9.55982e-08
-1.23119e-09
1.23456e-06
1.26253e-06
2.43495e-07
1.24868e-06
-4.21325e-07
1.36216e-06
-1.28515e-06
1.37828e-06
1.10901e-06
1.26974e-06
8.27367e-07
1.28186e-06
-5.13028e-08
1.32494e-06
-1.39312e-06
1.31514e-06
-3.95324e-07
1.33152e-06
-2.35716e-07
1.31832e-06
1.49793e-07
1.29409e-06
3.60993e-07
1.32587e-06
6.16032e-07
1.2904e-06
2.10611e-07
1.29564e-06
5.96152e-08
1.28945e-06
-2.93053e-07
1.29947e-06
-8.64368e-08
1.28814e-06
-2.11066e-07
1.29663e-06
-9.65753e-08
1.27776e-06
-7.67266e-08
-1.4455e-09
1.27798e-06
1.32166e-06
2.65937e-07
1.31044e-06
-4.10109e-07
1.41463e-06
-1.38933e-06
1.45338e-06
1.07026e-06
1.35251e-06
9.28239e-07
1.34986e-06
-4.86608e-08
1.37825e-06
-1.4215e-06
1.38318e-06
-4.00257e-07
1.39156e-06
-2.44093e-07
1.38841e-06
1.52945e-07
1.36332e-06
3.86079e-07
1.38615e-06
5.93201e-07
1.36149e-06
2.35268e-07
1.35597e-06
6.51356e-08
1.34569e-06
-2.82772e-07
1.35316e-06
-9.39043e-08
1.34362e-06
-2.01522e-07
1.34932e-06
-1.02275e-07
1.33609e-06
-6.35036e-08
2.07268e-09
1.33258e-06
1.38601e-06
2.8828e-07
1.37698e-06
-4.01081e-07
1.46429e-06
-1.47664e-06
1.51847e-06
1.01608e-06
1.43617e-06
1.01054e-06
1.41931e-06
-3.18024e-08
1.43e-06
-1.43219e-06
1.44574e-06
-4.15989e-07
1.44977e-06
-2.48122e-07
1.45221e-06
1.50505e-07
1.43518e-06
4.03102e-07
1.44705e-06
5.81329e-07
1.43167e-06
2.50649e-07
1.4212e-06
7.56044e-08
1.40625e-06
-2.67819e-07
1.41141e-06
-9.90654e-08
1.4025e-06
-1.92616e-07
1.40757e-06
-1.07338e-07
1.3966e-06
-5.25323e-08
6.28006e-09
1.39239e-06
1.45654e-06
3.07421e-07
1.44817e-06
-3.92716e-07
1.5133e-06
-1.54176e-06
1.5739e-06
9.55476e-07
1.51766e-06
1.06678e-06
1.49093e-06
-5.07418e-09
1.48509e-06
-1.42635e-06
1.50519e-06
-4.36091e-07
1.50874e-06
-2.51677e-07
1.51389e-06
1.45362e-07
1.50575e-06
4.11236e-07
1.51147e-06
5.75609e-07
1.50116e-06
2.6096e-07
1.49067e-06
8.61013e-08
1.47219e-06
-2.49347e-07
1.47481e-06
-1.01681e-07
1.46562e-06
-1.83427e-07
1.47002e-06
-1.11734e-07
1.46085e-06
-4.33647e-08
1.12862e-08
1.45584e-06
1.53302e-06
3.2062e-07
1.52385e-06
-3.83548e-07
1.56487e-06
-1.58278e-06
1.62441e-06
8.95931e-07
1.59557e-06
1.09562e-06
1.56539e-06
2.51098e-08
1.54664e-06
-1.4076e-06
1.56578e-06
-4.55224e-07
1.57048e-06
-2.56377e-07
1.57749e-06
1.38353e-07
1.57506e-06
4.13667e-07
1.5793e-06
5.71364e-07
1.57168e-06
2.68578e-07
1.56292e-06
9.48629e-08
1.54302e-06
-2.2945e-07
1.54349e-06
-1.02146e-07
1.53345e-06
-1.73394e-07
1.53652e-06
-1.14803e-07
1.52901e-06
-3.58475e-08
1.70215e-08
1.52327e-06
1.6141e-06
3.26646e-07
1.60373e-06
-3.73171e-07
1.62204e-06
-1.6011e-06
1.67588e-06
8.42093e-07
1.67039e-06
1.10111e-06
1.64265e-06
5.28457e-08
1.61536e-06
-1.38031e-06
1.63058e-06
-4.70438e-07
1.63572e-06
-2.61521e-07
1.64439e-06
1.29685e-07
1.6449e-06
4.13152e-07
1.65007e-06
5.66193e-07
1.64431e-06
2.74348e-07
1.63756e-06
1.01606e-07
1.61778e-06
-2.09665e-07
1.61705e-06
-1.01417e-07
1.60622e-06
-1.6256e-07
1.60733e-06
-1.15919e-07
1.60114e-06
-2.96538e-08
2.33117e-08
1.59485e-06
1.69813e-06
3.26092e-07
1.68731e-06
-3.62354e-07
1.68663e-06
-1.60042e-06
1.73272e-06
7.96006e-07
1.744e-06
1.08983e-06
1.72237e-06
7.4474e-08
1.69045e-06
-1.34839e-06
1.70091e-06
-4.80898e-07
1.70474e-06
-2.65349e-07
1.71447e-06
1.19954e-07
1.71661e-06
4.11008e-07
1.72359e-06
5.59217e-07
1.71948e-06
2.78463e-07
1.71473e-06
1.06351e-07
1.69594e-06
-1.90877e-07
1.69477e-06
-1.0025e-07
1.68368e-06
-1.51462e-07
1.6826e-06
-1.14839e-07
1.67732e-06
-2.43768e-08
3.00239e-08
1.67061e-06
1.78406e-06
3.20752e-07
1.77407e-06
-3.52366e-07
1.75899e-06
-1.58534e-06
1.79707e-06
7.57924e-07
1.81881e-06
1.06809e-06
1.8045e-06
8.87882e-08
1.77077e-06
-1.31466e-06
1.77692e-06
-4.87051e-07
1.7779e-06
-2.6633e-07
1.78769e-06
1.1017e-07
1.79087e-06
4.07826e-07
1.79993e-06
5.50155e-07
1.79758e-06
2.80816e-07
1.79478e-06
1.09152e-07
1.77749e-06
-1.73593e-07
1.77621e-06
-9.89663e-08
1.76543e-06
-1.40684e-07
1.76234e-06
-1.11741e-07
1.75763e-06
-1.96703e-08
3.70336e-08
1.75062e-06
1.87186e-06
3.12645e-07
1.86366e-06
-3.44167e-07
1.83851e-06
-1.5602e-06
1.86945e-06
7.26983e-07
1.89701e-06
1.04054e-06
1.8895e-06
9.62987e-08
1.85548e-06
-1.28065e-06
1.85827e-06
-4.89843e-07
1.85576e-06
-2.63821e-07
1.86469e-06
1.01244e-07
1.86847e-06
4.04044e-07
1.87965e-06
5.38973e-07
1.87926e-06
2.81211e-07
1.87825e-06
1.10157e-07
1.8627e-06
-1.58044e-07
1.86132e-06
-9.75862e-08
1.85122e-06
-1.30579e-07
1.84653e-06
-1.07053e-07
1.84212e-06
-1.52649e-08
4.41495e-08
1.83501e-06
1.96216e-06
3.03329e-07
1.95601e-06
-3.38021e-07
1.92429e-06
-1.52848e-06
1.94965e-06
7.01624e-07
1.98018e-06
1.01001e-06
1.97812e-06
9.83636e-08
1.94422e-06
-1.24675e-06
1.94459e-06
-4.90206e-07
1.93882e-06
-2.58051e-07
1.94649e-06
9.35727e-08
1.95055e-06
3.99982e-07
1.96369e-06
5.25828e-07
1.96534e-06
2.79567e-07
1.96579e-06
1.09705e-07
1.95196e-06
-1.44213e-07
1.95032e-06
-9.59509e-08
1.94096e-06
-1.21213e-07
1.93514e-06
-1.0123e-07
1.93083e-06
-1.09607e-08
5.11056e-08
1.92388e-06
2.0558e-06
2.93715e-07
2.05136e-06
-3.33576e-07
2.01558e-06
-1.4927e-06
2.03727e-06
6.79934e-07
2.06926e-06
9.78014e-07
2.07107e-06
9.65569e-08
2.03702e-06
-1.21271e-06
2.03565e-06
-4.88834e-07
2.02734e-06
-2.49737e-07
2.03393e-06
8.69806e-08
2.0382e-06
3.95707e-07
2.05301e-06
5.11019e-07
2.05658e-06
2.76e-07
2.05796e-06
1.08325e-07
2.04565e-06
-1.31899e-07
2.04353e-06
-9.38382e-08
2.03473e-06
-1.12413e-07
2.02816e-06
-9.4659e-08
2.02379e-06
-6.58973e-09
5.76267e-08
2.01727e-06
2.15351e-06
2.84205e-07
2.15013e-06
-3.3019e-07
2.11194e-06
-1.45452e-06
2.13185e-06
6.60025e-07
2.16461e-06
9.45259e-07
2.16887e-06
9.22954e-08
2.13414e-06
-1.17798e-06
2.13146e-06
-4.86148e-07
2.12141e-06
-2.39694e-07
2.12744e-06
8.09577e-08
2.13212e-06
3.91023e-07
2.1482e-06
4.94936e-07
2.15343e-06
2.70768e-07
2.15513e-06
1.06631e-07
2.14403e-06
-1.20795e-07
2.14127e-06
-9.10794e-08
2.13271e-06
-1.03857e-07
2.1257e-06
-8.76479e-08
2.12114e-06
-2.02888e-09
6.3525e-08
2.11524e-06
2.2558e-06
2.74896e-07
2.25283e-06
-3.27226e-07
2.21326e-06
-1.41495e-06
2.23295e-06
6.4034e-07
2.26616e-06
9.1204e-07
2.2718e-06
8.66616e-08
2.23591e-06
-1.14209e-06
2.23214e-06
-4.82371e-07
2.22105e-06
-2.28611e-07
2.22706e-06
7.49481e-08
2.23248e-06
3.85605e-07
2.24942e-06
4.78002e-07
2.25602e-06
2.64163e-07
2.25749e-06
1.05163e-07
2.24724e-06
-1.10543e-07
2.24379e-06
-8.76344e-08
2.23512e-06
-9.51893e-08
2.2279e-06
-8.04271e-08
2.22313e-06
2.74682e-09
6.87573e-08
2.2179e-06
2.36303e-06
2.65747e-07
2.36002e-06
-3.2422e-07
2.31961e-06
-1.37454e-06
2.34012e-06
6.19832e-07
2.37366e-06
8.78499e-07
2.37996e-06
8.03609e-08
2.34267e-06
-1.1048e-06
2.33793e-06
-4.7763e-07
2.32631e-06
-2.16989e-07
2.3327e-06
6.85562e-08
2.33914e-06
3.79161e-07
2.35649e-06
4.60652e-07
2.36422e-06
2.56429e-07
2.36508e-06
1.04303e-07
2.35534e-06
-1.00803e-07
2.35132e-06
-8.36097e-08
2.34225e-06
-8.61253e-08
2.33498e-06
-7.31526e-08
2.33009e-06
7.64194e-09
7.34131e-08
2.32543e-06
2.47548e-06
2.56664e-07
2.47219e-06
-3.2093e-07
2.4312e-06
-1.33356e-06
2.45306e-06
5.97977e-07
2.48681e-06
8.4475e-07
2.4934e-06
7.37691e-08
2.45471e-06
-1.06611e-06
2.4491e-06
-4.72021e-07
2.43726e-06
-2.05151e-07
2.44419e-06
6.16279e-08
2.45182e-06
3.71532e-07
2.46916e-06
4.43311e-07
2.47783e-06
2.47756e-07
2.47794e-06
1.04194e-07
2.46842e-06
-9.12768e-08
2.46402e-06
-7.92154e-08
2.45442e-06
-7.65201e-08
2.44716e-06
-6.58939e-08
2.44232e-06
1.24844e-08
7.76344e-08
2.4381e-06
2.5934e-06
2.4756e-07
2.58976e-06
-3.17292e-07
2.54827e-06
-1.29207e-06
2.57157e-06
5.74678e-07
2.6054e-06
8.10915e-07
2.61215e-06
6.70277e-08
2.57229e-06
-1.02626e-06
2.56592e-06
-4.65644e-07
2.55406e-06
-1.93295e-07
2.56146e-06
5.42288e-08
2.57029e-06
3.62706e-07
2.58723e-06
4.26365e-07
2.5967e-06
2.38292e-07
2.59615e-06
1.04735e-07
2.58659e-06
-8.17168e-08
2.58207e-06
-7.4695e-08
2.57196e-06
-6.64012e-08
2.56465e-06
-5.85924e-08
2.5601e-06
1.70384e-08
8.15513e-08
2.55618e-06
2.71702e-06
2.38373e-07
2.71307e-06
-3.1335e-07
2.67107e-06
-1.25007e-06
2.69565e-06
5.50099e-07
2.72945e-06
7.77118e-07
2.73632e-06
6.0154e-08
2.69567e-06
-9.856e-07
2.68861e-06
-4.58584e-07
2.67685e-06
-1.81537e-07
2.68452e-06
4.65628e-08
2.69445e-06
3.52774e-07
2.71073e-06
4.10081e-07
2.72083e-06
2.28194e-07
2.7199e-06
1.05669e-07
2.7101e-06
-7.19246e-08
2.70565e-06
-7.02413e-08
2.69521e-06
-5.59561e-08
2.68768e-06
-5.10694e-08
2.68368e-06
2.10437e-08
8.52339e-08
2.67999e-06
2.84657e-06
2.29069e-07
2.8424e-06
-3.09176e-07
2.79988e-06
-1.20756e-06
2.82547e-06
5.24512e-07
2.85913e-06
7.43456e-07
2.86615e-06
5.3135e-08
2.82507e-06
-9.44519e-07
2.81739e-06
-4.50901e-07
2.80581e-06
-1.69957e-07
2.81349e-06
3.88778e-08
2.82441e-06
3.4186e-07
2.83988e-06
3.94605e-07
2.85044e-06
2.17633e-07
2.84944e-06
1.06677e-07
2.83927e-06
-6.17569e-08
2.83497e-06
-6.59465e-08
2.82449e-06
-4.54704e-08
2.81653e-06
-4.311e-08
2.81326e-06
2.43067e-08
8.86508e-08
2.80985e-06
2.98233e-06
2.1964e-07
2.97797e-06
-3.04816e-07
2.93499e-06
-1.16458e-06
2.96131e-06
4.9819e-07
2.99477e-06
7.09996e-07
3.00192e-06
4.59843e-08
2.96076e-06
-9.03355e-07
2.95248e-06
-4.42619e-07
2.94113e-06
-1.58617e-07
2.94862e-06
3.13955e-08
2.9604e-06
3.30073e-07
2.97503e-06
3.79984e-07
2.98586e-06
2.06803e-07
2.98509e-06
1.07443e-07
2.97447e-06
-5.11362e-08
2.9703e-06
-6.17732e-08
2.9601e-06
-3.52731e-08
2.95153e-06
-3.45414e-08
2.94906e-06
2.67751e-08
9.16565e-08
2.94606e-06
3.12457e-06
2.10081e-07
3.12002e-06
-3.00273e-07
3.07668e-06
-1.12124e-06
3.10351e-06
4.71362e-07
3.13674e-06
6.76766e-07
3.14397e-06
3.87598e-08
3.103e-06
-8.62391e-07
3.09412e-06
-4.33739e-07
3.08306e-06
-1.47558e-07
3.09018e-06
2.42816e-08
3.10277e-06
3.17485e-07
3.11657e-06
3.66183e-07
3.12746e-06
1.95911e-07
3.12718e-06
1.07723e-07
3.11611e-06
-4.00662e-08
3.11191e-06
-5.75749e-08
3.10232e-06
-2.56778e-08
3.09307e-06
-2.52996e-08
3.09127e-06
2.85817e-08
9.40067e-08
3.08892e-06
3.2736e-06
2.0039e-07
3.26883e-06
-2.95505e-07
3.22529e-06
-1.07769e-06
3.25244e-06
4.44213e-07
3.28543e-06
6.43772e-07
3.29263e-06
3.15562e-08
3.25211e-06
-8.21862e-07
3.24262e-06
-4.24258e-07
3.23187e-06
-1.36801e-07
3.2385e-06
1.76521e-08
3.25184e-06
3.04145e-07
3.2649e-06
3.53115e-07
3.27565e-06
1.85162e-07
3.27602e-06
1.07356e-07
3.26457e-06
-2.8615e-08
3.26015e-06
-5.31585e-08
3.25141e-06
-1.6931e-08
3.24156e-06
-1.54526e-08
3.24011e-06
3.00288e-08
9.54046e-08
3.23871e-06
3.42976e-06
1.90564e-07
3.4247e-06
-2.90443e-07
3.38113e-06
-1.03413e-06
3.40843e-06
4.16908e-07
3.4412e-06
6.11001e-07
3.44828e-06
2.4481e-08
3.40837e-06
-7.81954e-07
3.3983e-06
-4.1419e-07
3.38785e-06
-1.26343e-07
3.39391e-06
1.15873e-08
3.40796e-06
2.90097e-07
3.4204e-06
3.40672e-07
3.43082e-06
1.74743e-07
3.43191e-06
1.06268e-07
3.42021e-06
-1.69123e-08
3.41538e-06
-4.8335e-08
3.40764e-06
-9.18465e-09
3.39737e-06
-5.18814e-09
3.39588e-06
3.15225e-08
9.55803e-08
3.3957e-06
3.59338e-06
1.80593e-07
3.58794e-06
-2.85e-07
3.54455e-06
-9.90742e-07
3.57186e-06
3.89604e-07
3.60442e-06
5.7844e-07
3.61127e-06
1.76327e-08
3.57212e-06
-7.42807e-07
3.56151e-06
-4.0358e-07
3.55133e-06
-1.16166e-07
3.55677e-06
6.14711e-09
3.57148e-06
2.75391e-07
3.5834e-06
3.28747e-07
3.59333e-06
1.64814e-07
3.59515e-06
1.04449e-07
3.58336e-06
-5.11889e-09
3.57799e-06
-4.29651e-08
3.57129e-06
-2.48448e-09
3.56089e-06
5.2139e-09
3.55893e-06
3.34766e-08
9.43885e-08
3.56012e-06
3.76483e-06
1.70471e-07
3.75891e-06
-2.7908e-07
3.71592e-06
-9.47758e-07
3.74307e-06
3.62458e-07
3.77543e-06
5.46079e-07
3.78198e-06
1.10847e-08
3.74368e-06
-7.04513e-07
3.7326e-06
-3.92499e-07
3.72269e-06
-1.06257e-07
3.72746e-06
1.38374e-09
3.74277e-06
2.6008e-07
3.75425e-06
3.17262e-07
3.76356e-06
1.5551e-07
3.76607e-06
1.0194e-07
3.75437e-06
6.57753e-09
3.74836e-06
-3.69568e-08
3.74268e-06
3.19784e-09
3.73246e-06
1.54311e-08
3.72971e-06
3.62254e-08
9.18993e-08
3.7322e-06
3.94447e-06
1.60192e-07
3.93798e-06
-2.72592e-07
3.89561e-06
-9.0539e-07
3.92245e-06
3.35624e-07
3.9546e-06
5.13922e-07
3.96081e-06
4.87679e-09
3.92341e-06
-6.67118e-07
3.91196e-06
-3.81041e-07
3.90231e-06
-9.66135e-08
3.90636e-06
-2.65975e-09
3.92221e-06
2.44225e-07
3.93331e-06
3.06161e-07
3.94187e-06
1.46958e-07
3.94502e-06
9.87864e-08
3.9336e-06
1.79927e-08
3.92689e-06
-3.02434e-08
3.92218e-06
7.91234e-09
3.91247e-06
2.51405e-08
3.90871e-06
3.998e-08
8.84379e-08
3.91217e-06
4.13269e-06
1.49755e-07
4.12555e-06
-2.65453e-07
4.084e-06
-8.63845e-07
4.11039e-06
3.09242e-07
4.14231e-06
4.81996e-07
4.14818e-06
-9.88792e-10
4.11168e-06
-6.3062e-07
4.09995e-06
-3.69311e-07
4.09059e-06
-8.72539e-08
4.09387e-06
-5.94291e-09
4.11021e-06
2.2789e-07
4.12097e-06
2.95396e-07
4.12865e-06
1.39285e-07
4.13241e-06
9.50254e-08
4.12143e-06
2.89681e-08
4.11397e-06
-2.27819e-08
4.11013e-06
1.17478e-08
4.10125e-06
3.40213e-08
4.09645e-06
4.47794e-08
8.45834e-08
4.10031e-06
4.32989e-06
1.39164e-07
4.32204e-06
-2.57603e-07
4.2815e-06
-8.23303e-07
4.30732e-06
2.83426e-07
4.33895e-06
4.50359e-07
4.34451e-06
-6.5504e-09
4.30888e-06
-5.94983e-07
4.29698e-06
-3.57414e-07
4.28795e-06
-7.8224e-08
4.29043e-06
-8.4195e-09
4.30716e-06
2.11153e-07
4.31767e-06
2.84891e-07
4.3243e-06
1.3265e-07
4.32866e-06
9.06716e-08
4.31825e-06
3.93707e-08
4.31001e-06
-1.45405e-08
4.30692e-06
1.4843e-08
4.29916e-06
4.17769e-08
4.29349e-06
5.04554e-08
8.10663e-08
4.297e-06
4.5365e-06
1.28434e-07
4.52791e-06
-2.49009e-07
4.48851e-06
-7.839e-07
4.51368e-06
2.58253e-07
4.54493e-06
4.1911e-07
4.55026e-06
-1.18826e-08
4.51543e-06
-5.60147e-07
4.50346e-06
-3.45446e-07
4.49483e-06
-6.95967e-08
4.49645e-06
-1.0038e-08
4.51349e-06
1.9411e-07
4.52386e-06
2.74526e-07
4.52928e-06
1.27228e-07
4.53421e-06
8.57468e-08
4.52452e-06
4.90566e-08
4.51549e-06
-5.50892e-09
4.51291e-06
1.74205e-08
4.50653e-06
4.81622e-08
4.50032e-06
5.66561e-08
7.85744e-08
4.50282e-06
4.75296e-06
1.1759e-07
4.74364e-06
-2.39685e-07
4.70545e-06
-7.45717e-07
4.72996e-06
2.3375e-07
4.76068e-06
3.88384e-07
4.76588e-06
-1.70804e-08
4.73179e-06
-5.26056e-07
4.71982e-06
-3.33475e-07
4.71169e-06
-6.14718e-08
4.71241e-06
-1.07558e-08
4.72963e-06
1.7689e-07
4.74001e-06
2.64147e-07
4.74408e-06
1.23155e-07
4.74948e-06
8.03503e-08
4.74077e-06
5.77679e-08
4.7309e-06
4.35374e-09
4.72857e-06
1.97523e-08
4.72368e-06
5.30553e-08
4.71743e-06
6.29029e-08
7.75467e-08
4.71846e-06
4.97972e-06
1.06669e-07
4.96972e-06
-2.29689e-07
4.93277e-06
-7.08768e-07
4.95663e-06
2.09895e-07
4.98666e-06
3.58352e-07
4.99184e-06
-2.22602e-08
4.95844e-06
-4.92653e-07
4.94649e-06
-3.21524e-07
4.93901e-06
-5.39924e-08
4.93879e-06
-1.05375e-08
4.95602e-06
1.59663e-07
4.96659e-06
2.53572e-07
4.96924e-06
1.20508e-07
4.97491e-06
7.46792e-08
4.96747e-06
6.5203e-08
4.95686e-06
1.49701e-08
4.95442e-06
2.21908e-08
4.95099e-06
5.64819e-08
4.9452e-06
6.87014e-08
7.80319e-08
4.94471e-06
5.21727e-06
9.57188e-08
5.2067e-06
-2.19119e-07
5.17094e-06
-6.73015e-07
5.19422e-06
1.86623e-07
5.22336e-06
3.29212e-07
5.22864e-06
-2.75457e-08
5.19589e-06
-4.59903e-07
5.18393e-06
-3.09558e-07
5.17727e-06
-4.73353e-08
5.17611e-06
-9.37946e-09
5.19313e-06
1.42645e-07
5.20409e-06
2.42605e-07
5.20532e-06
1.19278e-07
5.21095e-06
6.90522e-08
5.20513e-06
7.10258e-08
5.19391e-06
2.61858e-08
5.19104e-06
2.50647e-08
5.18893e-06
5.85948e-08
5.18395e-06
7.36811e-08
7.97064e-08
5.18227e-06
5.4661e-06
8.48028e-08
5.4551e-06
-2.08113e-07
5.42044e-06
-6.38358e-07
5.44325e-06
1.63819e-07
5.47128e-06
3.01175e-07
5.47678e-06
-3.30409e-08
5.44471e-06
-4.27839e-07
5.43262e-06
-2.9747e-07
5.42696e-06
-4.16674e-08
5.42492e-06
-7.33919e-09
5.44147e-06
1.26091e-07
5.453e-06
2.31079e-07
5.45291e-06
1.19361e-07
5.45811e-06
6.38563e-08
5.45417e-06
7.49617e-08
5.44265e-06
3.77062e-08
5.43901e-06
2.87064e-08
5.43801e-06
5.9597e-08
5.43406e-06
7.76346e-08
8.20768e-08
5.43169e-06
5.72676e-06
7.39976e-08
5.7155e-06
-1.96848e-07
5.68178e-06
-6.04642e-07
5.70428e-06
1.41326e-07
5.73101e-06
2.74443e-07
5.73676e-06
-3.8797e-08
5.70557e-06
-3.96647e-07
5.69314e-06
-2.85037e-07
5.68856e-06
-3.7091e-08
5.68578e-06
-4.552e-09
5.70159e-06
1.10281e-07
5.71379e-06
2.18875e-07
5.71261e-06
1.20545e-07
5.71695e-06
5.95073e-08
5.71504e-06
7.68744e-08
5.70368e-06
4.90713e-08
5.69896e-06
3.34252e-08
5.6988e-06
5.97577e-08
5.696e-06
8.04313e-08
8.47255e-08
5.69335e-06
5.9998e-06
6.33948e-08
5.98849e-06
-1.85543e-07
5.9555e-06
-5.71657e-07
5.97789e-06
1.18937e-07
6.00314e-06
2.492e-07
6.00912e-06
-4.47848e-08
5.97912e-06
-3.66646e-07
5.96608e-06
-2.71991e-07
5.9626e-06
-3.36095e-08
5.95926e-06
-1.21946e-09
5.97405e-06
9.54913e-08
5.98698e-06
2.05953e-07
5.985e-06
1.22519e-07
5.9881e-06
5.64088e-08
5.98821e-06
7.6762e-08
5.97752e-06
5.97621e-08
5.97156e-06
3.93903e-08
5.97185e-06
5.94629e-08
5.97031e-06
8.19747e-08
8.7315e-08
5.96772e-06
6.28578e-06
5.31007e-08
6.27469e-06
-1.74455e-07
6.24217e-06
-5.39132e-07
6.26472e-06
9.6386e-08
6.28834e-06
2.25584e-07
6.29439e-06
-5.08326e-08
6.26595e-06
-3.38207e-07
6.25211e-06
-2.58151e-07
6.24959e-06
-3.10955e-08
6.24596e-06
2.41715e-09
6.2595e-06
8.19491e-08
6.27308e-06
1.9237e-07
6.2707e-06
1.249e-07
6.27224e-06
5.48691e-08
6.27415e-06
7.48524e-08
6.26472e-06
6.91896e-08
6.25753e-06
4.65828e-08
6.25776e-06
5.92305e-08
6.25756e-06
8.21735e-08
8.95939e-08
6.25528e-06
6.58533e-06
4.32353e-08
6.57476e-06
-1.63879e-07
6.54238e-06
-5.06756e-07
6.56542e-06
7.33508e-08
6.58734e-06
2.03662e-07
6.593e-06
-5.64979e-08
6.56658e-06
-3.11781e-07
6.55193e-06
-2.43498e-07
6.55014e-06
-2.93138e-08
6.54644e-06
6.12575e-09
6.55857e-06
6.98165e-08
6.57266e-06
1.78282e-07
6.57031e-06
1.27247e-07
6.57011e-06
5.50661e-08
6.57337e-06
7.15952e-08
6.56577e-06
7.6789e-08
6.55763e-06
5.47262e-08
6.55722e-06
5.96381e-08
6.55829e-06
8.11039e-08
9.12264e-08
6.55666e-06
6.8991e-06
3.39266e-08
6.88935e-06
-1.5413e-07
6.85681e-06
-4.74217e-07
6.88062e-06
4.95457e-08
6.90091e-06
1.83367e-07
6.90559e-06
-6.11802e-08
6.88152e-06
-2.87704e-07
6.86627e-06
-2.28248e-07
6.8649e-06
-2.79504e-08
6.8613e-06
9.72893e-09
6.87193e-06
5.91903e-08
6.88633e-06
1.63883e-07
6.88442e-06
1.29156e-07
6.88249e-06
5.69889e-08
6.88648e-06
6.76083e-08
6.88114e-06
8.21254e-08
6.87256e-06
6.33112e-08
6.87103e-06
6.1163e-08
6.87302e-06
7.91196e-08
9.18097e-08
6.87244e-06
7.22776e-06
2.5301e-08
7.21915e-06
-1.45515e-07
7.18623e-06
-4.41303e-07
7.21077e-06
2.50048e-08
7.22983e-06
1.64307e-07
7.23299e-06
-6.43309e-08
7.21131e-06
-2.66029e-07
7.19583e-06
-2.12771e-07
7.19458e-06
-2.66962e-08
7.19117e-06
1.31425e-08
7.20026e-06
5.01004e-08
7.21477e-06
1.49373e-07
7.2136e-06
1.30317e-07
7.21016e-06
6.04299e-08
7.21419e-06
6.35795e-08
7.21134e-06
8.49796e-08
7.20295e-06
7.17032e-08
7.2001e-06
6.40135e-08
7.20238e-06
7.68325e-08
9.10259e-08
7.20317e-06
7.57205e-06
1.74752e-08
7.56483e-06
-1.38293e-07
7.53154e-06
-4.08018e-07
7.5561e-06
4.4472e-10
7.57486e-06
1.45552e-07
7.57606e-06
-6.55353e-08
7.55655e-06
-2.46521e-07
7.54132e-06
-1.97536e-07
7.53993e-06
-2.53043e-08
7.5367e-06
1.63657e-08
7.54429e-06
4.25165e-08
7.55867e-06
1.34994e-07
7.55852e-06
1.30469e-07
7.55388e-06
6.50663e-08
7.55732e-06
6.01362e-08
7.55687e-06
8.54343e-08
7.54932e-06
7.92484e-08
7.54528e-06
6.80609e-08
7.54718e-06
7.49263e-08
8.8895e-08
7.54931e-06
7.93274e-06
1.05437e-08
7.92708e-06
-1.32632e-07
7.89369e-06
-3.74631e-07
7.91734e-06
-2.32035e-08
7.93668e-06
1.26214e-07
7.93576e-06
-6.46156e-08
7.91795e-06
-2.28708e-07
7.90341e-06
-1.83e-07
7.90173e-06
-2.36186e-08
7.89863e-06
1.94585e-08
7.90475e-06
3.64001e-08
7.9188e-06
1.20947e-07
7.91983e-06
1.29433e-07
7.91439e-06
7.05111e-08
7.91675e-06
5.77784e-08
7.91835e-06
8.38359e-08
7.91224e-06
8.53552e-08
7.90737e-06
7.29345e-08
7.90837e-06
7.39173e-08
8.58429e-08
7.91143e-06
8.31064e-06
4.58011e-09
8.30666e-06
-1.28646e-07
8.27351e-06
-3.41482e-07
8.29538e-06
-4.50688e-08
8.31593e-06
1.05664e-07
8.31303e-06
-6.1716e-08
8.29631e-06
-2.11992e-07
8.28279e-06
-1.69479e-07
8.28081e-06
-2.1642e-08
8.27772e-06
2.25481e-08
8.2824e-06
3.1721e-08
8.29594e-06
1.0741e-07
8.29825e-06
1.27121e-07
8.29246e-06
7.63057e-08
8.29338e-06
5.68504e-08
8.29649e-06
8.07292e-08
8.29228e-06
8.9563e-08
8.28707e-06
7.81479e-08
8.28697e-06
7.40164e-08
8.25149e-08
8.2903e-06
8.70662e-06
-3.75307e-10
8.70428e-06
-1.26306e-07
8.67181e-06
-3.09014e-07
8.69108e-06
-6.43408e-08
8.71308e-06
8.36634e-08
8.7088e-06
-5.74385e-08
8.69255e-06
-1.95734e-07
8.68016e-06
-1.5709e-07
8.678e-06
-1.94883e-08
8.67481e-06
2.57443e-08
8.67805e-06
2.8482e-08
8.69091e-06
9.45442e-08
8.69451e-06
1.23525e-07
8.68884e-06
8.19747e-08
8.68822e-06
5.74672e-08
8.69212e-06
7.68263e-08
8.69009e-06
9.15983e-08
8.68507e-06
8.31654e-08
8.68395e-06
7.51365e-08
7.95293e-08
8.68694e-06
9.12157e-06
-4.32942e-09
9.12061e-06
-1.25339e-07
9.08949e-06
-2.779e-07
9.10534e-06
-8.01841e-08
9.12861e-06
6.03875e-08
9.12396e-06
-5.2784e-08
9.10762e-06
-1.79392e-07
9.09628e-06
-1.45752e-07
9.09419e-06
-1.74e-08
9.0908e-06
2.91318e-08
9.09255e-06
2.67379e-08
9.10459e-06
8.25026e-08
9.10941e-06
1.18706e-07
9.10431e-06
8.70749e-08
9.10229e-06
5.94782e-08
9.10622e-06
7.29027e-08
9.10635e-06
9.1466e-08
9.10207e-06
8.74424e-08
9.10022e-06
7.69904e-08
7.72816e-08
9.10247e-06
9.55648e-06
-7.34546e-09
9.55649e-06
-1.25354e-07
9.52743e-06
-2.48839e-07
9.53905e-06
-9.18e-08
9.56319e-06
3.62457e-08
9.55923e-06
-4.88223e-08
9.54255e-06
-1.62715e-07
9.53198e-06
-1.35183e-07
9.53025e-06
-1.56667e-08
9.52673e-06
3.26501e-08
9.52689e-06
2.658e-08
9.53786e-06
7.15272e-08
9.54382e-06
1.12752e-07
9.53968e-06
9.12079e-08
9.53664e-06
6.25211e-08
9.5399e-06
6.96415e-08
9.54188e-06
8.94848e-08
9.53885e-06
9.0473e-08
9.53661e-06
7.92285e-08
7.59045e-08
9.53799e-06
1.00123e-05
-9.53789e-09
1.00129e-05
-1.25909e-07
9.98646e-06
-2.22418e-07
9.99343e-06
-9.87715e-08
1.00178e-05
1.19236e-08
1.00154e-05
-4.6441e-08
9.99839e-06
-1.45729e-07
9.98821e-06
-1.25007e-07
9.98699e-06
-1.44481e-08
9.98361e-06
3.60368e-08
9.98222e-06
2.79621e-08
9.99168e-06
6.20685e-08
9.99868e-06
1.05758e-07
9.99583e-06
9.40555e-08
9.99221e-06
6.61418e-08
9.9944e-06
6.74458e-08
9.99767e-06
8.62211e-08
9.99623e-06
9.19134e-08
9.99396e-06
8.14943e-08
7.52899e-08
9.99458e-06
1.04902e-05
-1.10514e-08
1.04908e-05
-1.2657e-07
1.04675e-05
-1.99123e-07
1.04703e-05
-1.01517e-07
1.04933e-05
-1.1103e-08
1.04931e-05
-4.62169e-08
1.04762e-05
-1.2884e-07
1.0466e-05
-1.14806e-07
1.04653e-05
-1.37477e-08
1.04624e-05
3.88907e-08
1.04598e-05
3.06096e-08
1.04672e-05
5.46357e-08
1.0475e-05
9.79491e-08
1.04737e-05
9.54188e-08
1.04699e-05
6.98686e-08
1.0471e-05
6.639e-08
1.04749e-05
8.23392e-08
1.04751e-05
9.16786e-08
1.04732e-05
8.342e-08
7.52178e-08
1.04732e-05
1.0991e-05
-1.20524e-08
1.09914e-05
-1.26926e-07
1.09715e-05
-1.79274e-07
1.09708e-05
-1.00753e-07
1.09909e-05
-3.11916e-08
1.0993e-05
-4.83977e-08
1.09769e-05
-1.12695e-07
1.09663e-05
-1.04219e-07
1.0966e-05
-1.34817e-08
1.09641e-05
4.08141e-08
1.09607e-05
3.40094e-08
1.09659e-05
4.94099e-08
1.0974e-05
8.98687e-08
1.09742e-05
9.52508e-08
1.09708e-05
7.32846e-08
1.09708e-05
6.63342e-08
1.09747e-05
7.84531e-08
1.09765e-05
8.99303e-08
1.09752e-05
8.46566e-08
7.54578e-08
1.0975e-05
1.1516e-05
-1.27155e-08
1.15157e-05
-1.26574e-07
1.14994e-05
-1.63012e-07
1.1496e-05
-9.73735e-08
1.15119e-05
-4.70833e-08
1.15161e-05
-5.25782e-08
1.15015e-05
-9.80422e-08
1.14903e-05
-9.30562e-08
1.14903e-05
-1.34961e-08
1.14896e-05
4.15274e-08
1.14861e-05
3.75485e-08
1.14893e-05
4.62004e-08
1.1497e-05
8.21351e-08
1.14985e-05
9.37134e-08
1.14957e-05
7.6081e-08
1.14951e-05
6.70068e-08
1.14985e-05
7.50137e-08
1.15014e-05
8.70067e-08
1.15011e-05
8.49403e-08
7.57885e-08
1.15008e-05
1.20663e-05
-1.32013e-08
1.20649e-05
-1.25197e-07
1.20521e-05
-1.50191e-07
1.20471e-05
-9.2321e-08
1.20584e-05
-5.83774e-08
1.20636e-05
-5.78567e-08
1.20511e-05
-8.55391e-08
1.20394e-05
-8.13585e-08
1.20393e-05
-1.33625e-08
1.20399e-05
4.09227e-08
1.20368e-05
4.06647e-08
1.20383e-05
4.46836e-08
1.20452e-05
7.51889e-08
1.20479e-05
9.10746e-08
1.20459e-05
7.80866e-08
1.20448e-05
6.806e-08
1.20476e-05
7.22799e-08
1.20512e-05
8.3351e-08
1.2052e-05
8.41264e-08
7.6008e-08
1.20518e-05
1.2643e-05
-1.36399e-08
1.26405e-05
-1.22664e-07
1.26305e-05
-1.40235e-07
1.26249e-05
-8.66733e-08
1.26318e-05
-6.52398e-08
1.26371e-05
-6.32301e-08
1.26273e-05
-7.57362e-08
1.26155e-05
-6.95104e-08
1.26145e-05
-1.24228e-08
1.26162e-05
3.92614e-08
1.26139e-05
4.30155e-08
1.26142e-05
4.43363e-08
1.26201e-05
6.92718e-08
1.26235e-05
8.76616e-08
1.26224e-05
7.92372e-08
1.26213e-05
6.91857e-08
1.26232e-05
7.03042e-08
1.26271e-05
7.94597e-08
1.2629e-05
8.21958e-08
7.59246e-08
1.26291e-05
1.32474e-05
-1.41292e-08
1.32437e-05
-1.18925e-07
1.32359e-05
-1.32486e-07
1.32305e-05
-8.12712e-08
1.32336e-05
-6.82753e-08
1.32378e-05
-6.74647e-08
1.3231e-05
-6.89046e-08
1.32199e-05
-5.83992e-08
1.32178e-05
-1.03389e-08
1.32198e-05
3.7247e-08
1.32184e-05
4.44459e-08
1.32181e-05
4.46389e-08
1.32229e-05
6.44383e-08
1.32268e-05
8.37782e-08
1.32265e-05
7.95445e-08
1.32255e-05
7.01493e-08
1.32269e-05
6.8955e-08
1.32305e-05
7.5769e-08
1.32334e-05
7.93058e-08
7.53046e-08
1.32341e-05
1.38808e-05
-1.4731e-08
1.38758e-05
-1.1396e-07
1.38697e-05
-1.26362e-07
1.3865e-05
-7.66077e-08
1.38652e-05
-6.84278e-08
1.38672e-05
-6.95038e-08
1.38629e-05
-6.45622e-08
1.38535e-05
-4.90613e-08
1.38505e-05
-7.28506e-09
1.38522e-05
3.54772e-08
1.38516e-05
4.51224e-08
1.3851e-05
4.51564e-08
1.38549e-05
6.05814e-08
1.3859e-05
7.96522e-08
1.38595e-05
7.90847e-08
1.38588e-05
7.08156e-08
1.38598e-05
6.80094e-08
1.3863e-05
7.25482e-08
1.38665e-05
7.5834e-08
7.39173e-08
1.38678e-05
1.45444e-05
-1.5456e-08
1.45382e-05
-1.07802e-07
1.45332e-05
-1.2133e-07
1.45295e-05
-7.29475e-08
1.45278e-05
-6.66496e-08
1.45274e-05
-6.91554e-08
1.45243e-05
-6.14502e-08
1.45173e-05
-4.20647e-08
1.45141e-05
-4.05842e-09
1.45152e-05
3.439e-08
1.45149e-05
4.53647e-08
1.45144e-05
4.56952e-08
1.45175e-05
5.74873e-08
1.45217e-05
7.54473e-08
1.45228e-05
7.79221e-08
1.45225e-05
7.11141e-08
1.45233e-05
6.72457e-08
1.4526e-05
6.98632e-08
1.45296e-05
7.223e-08
7.16942e-08
1.45318e-05
1.52397e-05
-1.62582e-08
1.52326e-05
-1.00691e-07
1.5228e-05
-1.1672e-07
1.52255e-05
-7.0456e-08
1.52226e-05
-6.3794e-08
1.52203e-05
-6.67947e-08
1.52172e-05
-5.83541e-08
1.52123e-05
-3.72356e-08
1.52097e-05
-1.47822e-09
1.52102e-05
3.39704e-08
1.521e-05
4.54871e-08
1.52095e-05
4.62456e-08
1.5212e-05
5.50246e-08
1.52162e-05
7.12401e-08
1.5218e-05
7.61147e-08
1.52181e-05
7.10051e-08
1.52188e-05
6.64882e-08
1.52211e-05
6.76363e-08
1.52245e-05
6.88425e-08
6.88172e-08
1.52273e-05
1.59681e-05
-1.70445e-08
1.59605e-05
-9.30666e-08
1.59556e-05
-1.11853e-07
1.59543e-05
-6.90923e-08
1.5951e-05
-6.05731e-08
1.59472e-05
-6.29565e-08
1.59435e-05
-5.4647e-08
1.594e-05
-3.37654e-08
1.59386e-05
-1.10465e-11
1.59388e-05
3.37277e-08
1.59385e-05
4.57533e-08
1.5938e-05
4.67924e-08
1.59398e-05
5.31662e-08
1.59439e-05
6.71697e-08
1.59464e-05
7.36489e-08
1.59469e-05
7.04855e-08
1.59478e-05
6.56253e-08
1.59497e-05
6.56864e-08
1.59527e-05
6.58511e-08
6.561e-08
1.59559e-05
1.67313e-05
-1.77023e-08
1.67237e-05
-8.54627e-08
1.67181e-05
-1.06302e-07
1.67175e-05
-6.84716e-08
1.67144e-05
-5.74705e-08
1.67097e-05
-5.83045e-08
1.67053e-05
-5.01744e-08
1.67022e-05
-3.06881e-08
1.67018e-05
3.35561e-10
1.67024e-05
3.31135e-08
1.67021e-05
4.60982e-08
1.67015e-05
4.74317e-08
1.67028e-05
5.18527e-08
1.67065e-05
6.34157e-08
1.67096e-05
7.06271e-08
1.67106e-05
6.94148e-08
1.67116e-05
6.46788e-08
1.67134e-05
6.3815e-08
1.6716e-05
6.32792e-08
6.2357e-08
1.67193e-05
1.75308e-05
-1.81295e-08
1.75236e-05
-7.82649e-08
1.75173e-05
-1.00025e-07
1.75168e-05
-6.79878e-08
1.75141e-05
-5.47831e-08
1.75092e-05
-5.33917e-08
1.75042e-05
-4.51383e-08
1.75009e-05
-2.73814e-08
1.75012e-05
6.28527e-11
1.75025e-05
3.18174e-08
1.75024e-05
4.61555e-08
1.75016e-05
4.8178e-08
1.75025e-05
5.10429e-08
1.75058e-05
6.01148e-08
1.75091e-05
6.72865e-08
1.75108e-05
6.77173e-08
1.75119e-05
6.3542e-08
1.75138e-05
6.19716e-08
1.7516e-05
6.102e-08
5.9274e-08
1.75191e-05
1.83685e-05
-1.8259e-08
1.83619e-05
-7.16729e-08
1.8355e-05
-9.31887e-08
1.83542e-05
-6.71246e-08
1.8352e-05
-5.25763e-08
1.83472e-05
-4.85923e-08
1.8342e-05
-3.99115e-08
1.83382e-05
-2.36498e-08
1.83384e-05
-1.36738e-10
1.83404e-05
2.98418e-08
1.83409e-05
4.56034e-08
1.83403e-05
4.8843e-08
1.83407e-05
5.06723e-08
1.83434e-05
5.73665e-08
1.83469e-05
6.38354e-08
1.83491e-05
6.54961e-08
1.83505e-05
6.20933e-08
1.83524e-05
6.00481e-08
1.83545e-05
5.89649e-08
5.65087e-08
1.83573e-05
1.92462e-05
-1.80678e-08
1.92403e-05
-6.57657e-08
1.92332e-05
-8.60654e-08
1.92316e-05