/*--------------------------------*- C++ -*----------------------------------*\
| =========                 |                                                 |
| \\      /  F ield         | OpenFOAM: The Open Source CFD Toolbox           |
|  \\    /   O peration     | Version:  v1912                                 |
|   \\  /    A nd           | Website:  www.openfoam.com                      |
|    \\/     M anipulation  |                                                 |
\*---------------------------------------------------------------------------*/
FoamFile
{
    version     2.0;
    format      ascii;
    class       volScalarField;
    location    "3.75";
    object      p;
}
// * * * * * * * * * * * * * * * * * * * * * * * * * * * * * * * * * * * * * //

dimensions      [0 2 -2 0 0 0 0];


internalField   nonuniform List<scalar> 
9600
(
-4.76623e-09
-0.00171404
-8.71202e-05
-0.000867989
0.0011956
0.00427403
0.00173897
-0.00145072
-0.000479194
0.00245285
0.00204213
0.00418475
0.00560177
0.00506087
0.00864727
0.00871226
0.0135575
0.0137698
0.0194034
0.0268314
1.6059e-06
-0.00171573
-8.75029e-05
-0.000867093
0.00119645
0.00424653
0.00176876
-0.0014416
-0.000485278
0.00247949
0.0020057
0.00418063
0.00560639
0.00504937
0.00865241
0.00864114
0.0135649
0.013699
0.0195404
0.0261371
2.95896e-06
-0.00171797
-8.68619e-05
-0.000866003
0.00119188
0.00421212
0.00180277
-0.00143071
-0.000486513
0.00250762
0.0019549
0.00417925
0.00560954
0.00503579
0.00864449
0.00857
0.0135476
0.0136196
0.0195462
0.0253469
3.10142e-06
-0.00172102
-8.54722e-05
-0.00086522
0.0011852
0.00416427
0.00181968
-0.00141204
-0.000476787
0.00251442
0.00189882
0.00417376
0.00560993
0.00502186
0.00863232
0.00848829
0.0135238
0.0135326
0.0194739
0.0246667
1.97401e-06
-0.00172524
-8.34796e-05
-0.000864409
0.00117686
0.00410069
0.00182075
-0.00138196
-0.000453914
0.00250031
0.00184056
0.00415977
0.00560473
0.00500502
0.00861998
0.00839526
0.0135023
0.0134447
0.0193849
0.0239943
-5.06976e-07
-0.0017308
-8.04083e-05
-0.000863419
0.00116717
0.00402175
0.00181118
-0.00134113
-0.000420316
0.00247191
0.00178064
0.0041395
0.00559401
0.00498544
0.00860715
0.00829959
0.0134728
0.0133594
0.0192498
0.0233421
-4.46498e-06
-0.00173767
-7.57766e-05
-0.000862197
0.00115658
0.00392949
0.00179421
-0.00129224
-0.000379689
0.00243735
0.00172002
0.0041188
0.00558308
0.00496201
0.00859625
0.0082024
0.0134312
0.0132802
0.0190587
0.0227169
-9.95072e-06
-0.00174572
-6.93613e-05
-0.000860719
0.00114515
0.00382601
0.00177272
-0.0012376
-0.000333829
0.00240465
0.00166009
0.00410131
0.00557488
0.00493331
0.00858587
0.00811012
0.0133755
0.013209
0.0188142
0.0221165
-1.69146e-05
-0.00175482
-6.11868e-05
-0.000858996
0.00113258
0.00371309
0.00174944
-0.00117894
-0.000282563
0.00237921
0.00160143
0.004087
0.00556968
0.0048986
0.00857353
0.00802703
0.0133011
0.0131456
0.018513
0.0215367
-2.51992e-05
-0.00176485
-5.15369e-05
-0.000857091
0.00111846
0.00359233
0.00172635
-0.00111753
-0.000225541
0.00236329
0.00154363
0.00407412
0.00556746
0.00485827
0.00855729
0.00795506
0.0132038
0.0130891
0.0181461
0.0209714
-3.4549e-05
-0.0017757
-4.09426e-05
-0.000855112
0.00110251
0.00346546
0.00170454
-0.00105439
-0.000163635
0.00235669
0.00148585
0.00406103
0.00556825
0.00481318
0.00853476
0.00789486
0.0130802
0.0130373
0.0177337
0.020415
-4.46478e-05
-0.00178723
-3.00699e-05
-0.000853188
0.00108468
0.00333443
0.00168424
-0.000990862
-9.92724e-05
0.0023573
0.00142742
0.00404596
0.00557165
0.00476413
0.00850327
0.00784626
0.0129275
0.0129875
0.0172748
0.0198604
-5.51737e-05
-0.00179926
-1.95903e-05
-0.000851455
0.00106524
0.00320138
0.00166494
-0.000928459
-3.56658e-05
0.00236231
0.0013677
0.00402675
0.00557703
0.00471189
0.0084604
0.0078095
0.0127444
0.0129356
0.016774
0.019299
-6.58561e-05
-0.00181158
-1.00998e-05
-0.000850028
0.00104462
0.00306817
0.00164567
-0.000868541
2.41034e-05
0.00236941
0.00130601
0.00400107
0.00558382
0.00465742
0.00840373
0.0077841
0.0125304
0.0128766
0.0162386
0.0187217
-7.65191e-05
-0.00182403
-2.0496e-06
-0.00084897
0.00102324
0.00293614
0.00162524
-0.000812005
7.7928e-05
0.00237704
0.00124174
0.00396684
0.00559145
0.00460181
0.00833065
0.0077661
0.0122862
0.0128043
0.015677
0.0181209
-8.71013e-05
-0.00183652
4.27367e-06
-0.000848299
0.00100133
0.00280593
0.00160252
-0.000759489
0.000124994
0.00238451
0.00117471
0.00392266
0.00559903
0.00454603
0.00823918
0.00775424
0.0120134
0.0127129
0.015097
0.0174914
-9.7648e-05
-0.001849
8.70444e-06
-0.000847981
0.000978872
0.00267757
0.00157677
-0.000711377
0.000165261
0.00239185
0.00110551
0.0038679
0.00560543
0.00449088
0.00812749
0.00774567
0.0117151
0.0125964
0.0145058
0.0168311
-0.000108279
-0.00186154
1.11601e-05
-0.000847935
0.000955514
0.00255073
0.00154765
-0.000667553
0.000198972
0.00239929
0.00103528
0.00380238
0.00560962
0.00443673
0.00799416
0.00773707
0.0113944
0.0124476
0.0139109
0.01614
-0.000119144
-0.00187422
1.15913e-05
-0.000848049
0.000930626
0.00242497
0.00151511
-0.000627453
0.000226429
0.00240688
0.00096516
0.00372619
0.0056106
0.00438345
0.00783934
0.00772479
0.0110535
0.0122571
0.0133211
0.0154193
-0.000130399
-0.00188713
9.92778e-06
-0.000848224
0.000903494
0.00229996
0.00147916
-0.000590541
0.000247752
0.0024146
0.000896248
0.00363937
0.00560743
0.00433094
0.00766397
0.00770547
0.010695
0.0120392
0.0127438
0.0146708
-0.000142187
-0.00190035
6.05119e-06
-0.000848357
0.000873428
0.00217564
0.00143979
-0.000556526
0.000262761
0.00242232
0.000829651
0.00354151
0.0055997
0.00427895
0.0074688
0.00767696
0.0103225
0.0117828
0.012183
0.0138968
-0.000154633
-0.00191395
-2.11056e-07
-0.000848326
0.000839792
0.00205214
0.0013969
-0.000525095
0.000271175
0.00242955
0.000766079
0.00343199
0.00558723
0.00422678
0.00725437
0.00763767
0.00993897
0.0114853
0.0116409
0.0131024
-0.000167849
-0.00192796
-9.07192e-06
-0.000848019
0.00080204
0.00192976
0.00135019
-0.000495845
0.000272788
0.00243536
0.000706139
0.00331014
0.00556929
0.00417378
0.007021
0.00758574
0.00954664
0.0111445
0.0111209
0.0122955
-0.000181942
-0.00194237
-2.07907e-05
-0.000847331
0.000759723
0.00180894
0.00129927
-0.000468618
0.000267432
0.00243885
0.000650768
0.00317492
0.00554494
0.00412003
0.0067684
0.00751952
0.00914861
0.0107584
0.0106287
0.0114865
-0.00019701
-0.0019572
-3.56693e-05
-0.000846105
0.000712422
0.00169013
0.00124364
-0.000443439
0.000255131
0.00243884
0.000601014
0.00302541
0.00551305
0.00406621
0.00649558
0.00743733
0.00874941
0.0103257
0.010162
0.0106874
-0.000213135
-0.00197242
-5.40226e-05
-0.00084416
0.000659738
0.00157375
0.00118285
-0.000420426
0.00023605
0.00243379
0.000558004
0.00286146
0.00547153
0.00401314
0.00620171
0.00733605
0.00835451
0.00984566
0.00971245
0.00991421
-0.000230428
-0.00198799
-7.61981e-05
-0.000841368
0.000601345
0.00146021
0.00111644
-0.000399892
0.000210603
0.00242211
0.000522701
0.00268316
0.00541767
0.00396183
0.00588686
0.0072117
0.00797006
0.00931944
0.00926946
0.00918342
-0.000249021
-0.00200385
-0.000102608
-0.000837583
0.000536976
0.00134974
0.0010441
-0.000382332
0.000179368
0.00240213
0.000495751
0.0024911
0.0053483
0.0039135
0.00555179
0.00705911
0.00760222
0.00875148
0.00881831
0.00850914
-0.000269025
-0.00201993
-0.000133737
-0.000832642
0.000466446
0.00124243
0.00096575
-0.000368408
0.000142975
0.00237189
0.000477453
0.00228674
0.00526013
0.00386923
0.00519795
0.00687159
0.00725622
0.0081502
0.00834184
0.00789944
-0.000290566
-0.00203613
-0.000170066
-0.000826356
0.000389609
0.00113819
0.000881425
-0.000358992
0.000102635
0.00232939
0.000467217
0.00207219
0.00514972
0.00382936
0.00482827
0.00664227
0.00693512
0.00752868
0.00782306
0.00735163
-0.000313814
-0.00205236
-0.000212054
-0.000818566
0.000306392
0.00103658
0.000791618
-0.00035546
5.94278e-05
0.00227319
0.000464086
0.00185027
0.00501304
0.00379254
0.0044481
0.00636542
0.00663709
0.00690358
0.00724954
0.00685079
-0.00033895
-0.00206845
-0.000260271
-0.000809315
0.000216972
0.000937028
0.000697246
-0.000359666
1.40033e-05
0.00220248
0.000466665
0.00162377
0.00484656
0.00375672
0.00406393
0.00603705
0.00635476
0.00629362
0.00661814
0.00636969
-0.000366143
-0.00208423
-0.000315395
-0.00079879
0.000121709
0.000838731
0.000599794
-0.000373576
-3.35596e-05
0.00211698
0.000472468
0.00139543
0.00464808
0.00371916
0.00368217
0.00565527
0.00607707
0.00571693
0.0059358
0.00587292
-0.000395591
-0.00209953
-0.000378071
-0.000787143
2.11218e-05
0.000740342
0.000501136
-0.000398379
-8.39452e-05
0.00201626
0.000478567
0.00116843
0.00441615
0.00367523
0.00330917
0.00522152
0.00579072
0.00518631
0.00521924
0.00532906
-0.000427565
-0.00211411
-0.000448909
-0.000774675
-8.38603e-05
0.000640057
0.000403479
-0.000434754
-0.000138422
0.00190055
0.000481987
0.000944966
0.00415012
0.00361953
0.00295073
0.00474131
0.00548136
0.00470546
0.00449421
0.00471984
-0.00046237
-0.00212765
-0.000528375
-0.000762193
-0.000192094
0.00053591
0.000308351
-0.000482978
-0.000198859
0.00177088
0.000479318
0.000725952
0.0038515
0.00354645
0.00261125
0.00422201
0.00513727
0.00427116
0.00378599
0.00404522
-0.000500284
-0.00213992
-0.000616872
-0.000750615
-0.000302054
0.000425754
0.000216579
-0.000541818
-0.000267038
0.0016279
0.000467408
0.00051197
0.00352248
0.00345038
0.00229421
0.00367133
0.00474959
0.0038744
0.00311418
0.00331976
-0.00054167
-0.00215064
-0.000714672
-0.00074131
-0.000411629
0.000307772
0.000128079
-0.000609084
-0.000345021
0.00147148
0.000444013
0.000303745
0.00316505
0.0033258
0.00200139
0.00309846
0.00431273
0.00350299
0.00249113
0.0025698
-0.000586993
-0.00215958
-0.000821617
-0.000736053
-0.000518853
0.000180611
4.24631e-05
-0.000683232
-0.000434631
0.0013022
0.000406691
0.000100648
0.00278271
0.00316761
0.00173219
0.00251303
0.00382365
0.00314455
0.00192107
0.0018242
-0.000636536
-0.00216662
-0.000937565
-0.000736672
-0.000621364
4.35334e-05
-4.32076e-05
-0.000761955
-0.000536677
0.00111972
0.00035381
-9.83586e-05
0.00237895
0.00297162
0.00148365
0.00192605
0.00328084
0.00278631
0.00140509
0.00110225
-0.00069076
-0.00217158
-0.00106181
-0.000745763
-0.000717581
-0.000103329
-0.000131452
-0.000842492
-0.000650724
0.000922572
0.000283198
-0.000292891
0.00195746
0.00273348
0.0012494
0.00134871
0.00268834
0.00241404
0.000943524
0.000417897
-0.000750072
-0.00217458
-0.001193
-0.000766175
-0.000806438
-0.000259107
-0.000224767
-0.000923183
-0.000776352
0.00071064
0.000193393
-0.000484151
0.00152344
0.00245145
0.00101996
0.000785779
0.00205183
0.00201847
0.00053514
-0.000214808
-0.000814846
-0.00217571
-0.00132948
-0.00080069
-0.000887766
-0.000421697
-0.000326763
-0.00100337
-0.000912356
0.000482974
8.36257e-05
-0.000673288
0.00108152
0.00212698
0.00078828
0.000242425
0.00136908
0.00157987
0.000183782
-0.000773632
-0.000885692
-0.00217519
-0.00146873
-0.000851986
-0.00096345
-0.000587831
-0.00044003
-0.00108375
-0.001056
0.000239359
-4.83942e-05
-0.000860914
0.000635702
0.00176252
0.000551052
-0.00026226
0.000658018
0.00106873
-0.00014072
-0.00125418
-0.000962935
-0.00217356
-0.00160808
-0.000922703
-0.00103551
-0.000754378
-0.00056642
-0.00116557
-0.00120597
-1.95337e-05
-0.000204495
-0.0010484
0.000190912
0.00135975
0.000307736
-0.000711453
-3.51659e-05
0.000499693
-0.000510692
-0.001762
-0.00104691
-0.00217161
-0.00174431
-0.00101468
-0.00110787
-0.000917811
-0.000706102
-0.00125145
-0.00135957
-0.000292462
-0.000386566
-0.00123732
-0.000249935
0.000920981
5.62005e-05
-0.00111536
-0.000711599
-0.000128412
-0.00093267
-0.00229592
-0.00113761
-0.00217051
-0.00187562
-0.00112855
-0.00118387
-0.0010765
-0.000859112
-0.00134396
-0.00151595
-0.000576921
-0.000594412
-0.00143167
-0.000683028
0.000449469
-0.000229208
-0.00150065
-0.00139872
-0.000833424
-0.00140386
-0.00272184
-0.00123503
-0.00217188
-0.00200041
-0.00126277
-0.00126794
-0.00123016
-0.00102386
-0.00144597
-0.0016724
-0.000869649
-0.000827992
-0.00163267
-0.00110782
-5.84201e-05
-0.000561226
-0.00186279
-0.00203958
-0.00155444
-0.00192044
-0.0031195
-0.00133883
-0.00217786
-0.00211763
-0.00141444
-0.00136377
-0.00137899
-0.0011991
-0.0015604
-0.0018292
-0.0011676
-0.00108704
-0.0018447
-0.00152843
-0.000597885
-0.000940488
-0.00219948
-0.00262191
-0.00228454
-0.00250333
-0.00353657
-0.0014484
-0.00219117
-0.00222685
-0.00157895
-0.00147425
-0.00152519
-0.00138368
-0.00168895
-0.00198767
-0.00146852
-0.00137141
-0.0020723
-0.00194238
-0.00115742
-0.00136415
-0.00253039
-0.00316118
-0.00301714
-0.00313595
-0.00397002
-0.00156336
-0.00221371
-0.00232824
-0.00175215
-0.00160198
-0.00167636
-0.00157647
-0.00183436
-0.0021496
-0.00176938
-0.00167962
-0.00231997
-0.00234842
-0.00172178
-0.00182859
-0.00288077
-0.00366189
-0.00371268
-0.00378696
-0.00443568
-0.00168299
-0.00224706
-0.00242318
-0.00192999
-0.00174752
-0.0018332
-0.00177767
-0.00199742
-0.00231777
-0.00206921
-0.00200893
-0.00259229
-0.00274485
-0.00227802
-0.0023295
-0.00325931
-0.00412127
-0.00436102
-0.00446069
-0.00494545
-0.00180675
-0.00229246
-0.00251355
-0.00210925
-0.00191033
-0.0019986
-0.00198748
-0.00217909
-0.00249565
-0.00236668
-0.00235364
-0.00288919
-0.00313457
-0.0028231
-0.00285465
-0.00366705
-0.00456076
-0.00496281
-0.00513512
-0.00549027
-0.00193397
-0.00235038
-0.00260285
-0.00228794
-0.00208752
-0.0021746
-0.00220758
-0.0023807
-0.0026852
-0.00266065
-0.00270846
-0.00321041
-0.00352344
-0.00335317
-0.00339089
-0.00410425
-0.00499947
-0.00551622
-0.00578439
-0.00607781
-0.00206418
-0.00242099
-0.0026939
-0.00246501
-0.00227664
-0.00236242
-0.00243834
-0.00260277
-0.00289003
-0.00295219
-0.00306825
-0.00355258
-0.00391442
-0.0038693
-0.00393292
-0.00456274
-0.00544508
-0.00603777
-0.00639295
-0.00669009
-0.00219716
-0.00250384
-0.00278919
-0.00264061
-0.00247536
-0.00256151
-0.00267985
-0.00284663
-0.00311399
-0.00324218
-0.00342725
-0.00391131
-0.0043126
-0.00437442
-0.00447534
-0.00503444
-0.00589561
-0.00654677
-0.00695655
-0.00729374
-0.00233286
-0.00259819
-0.00289082
-0.00281576
-0.00268174
-0.00277143
-0.00293149
-0.00311153
-0.00335963
-0.00353341
-0.00378278
-0.00428177
-0.00471884
-0.00486858
-0.0050154
-0.00551942
-0.00634407
-0.0070498
-0.00749303
-0.00786442
-0.00247143
-0.00270337
-0.00300006
-0.00299207
-0.00289531
-0.00299088
-0.00319058
-0.00339581
-0.00363041
-0.00383049
-0.00413346
-0.00465683
-0.00513167
-0.00535702
-0.00555126
-0.00601602
-0.00678813
-0.00753869
-0.00802085
-0.00839866
-0.00261307
-0.00281878
-0.00311794
-0.0031709
-0.00311593
-0.00321909
-0.00345469
-0.00369624
-0.00392707
-0.00413809
-0.0044794
-0.00503147
-0.00554916
-0.00584339
-0.00608012
-0.00652001
-0.00723398
-0.00800471
-0.00854225
-0.00891431
-0.00275802
-0.00294395
-0.0032452
-0.0033534
-0.00334361
-0.00345618
-0.00372186
-0.00400617
-0.00424712
-0.00446213
-0.00482461
-0.00540344
-0.00596606
-0.00632626
-0.00660432
-0.00702836
-0.00768728
-0.00844838
-0.00904301
-0.00942521
-0.00290665
-0.00307856
-0.00338223
-0.00354045
-0.00357819
-0.00370212
-0.00399137
-0.00432032
-0.00458625
-0.00480569
-0.00517477
-0.0057718
-0.0063775
-0.00680306
-0.00712568
-0.00753949
-0.00814879
-0.00887853
-0.00951168
-0.0099282
-0.00305933
-0.00322239
-0.00352916
-0.00373241
-0.00381905
-0.00395712
-0.00426376
-0.00463511
-0.00493807
-0.00516822
-0.00553457
-0.00613794
-0.00678135
-0.00727005
-0.00764161
-0.00805277
-0.00861783
-0.00930676
-0.00995145
-0.010409
-0.00321638
-0.00337522
-0.00368606
-0.00392908
-0.00406503
-0.00422117
-0.00454056
-0.0049484
-0.00529611
-0.00554782
-0.00590727
-0.00650401
-0.00717654
-0.00772406
-0.00814742
-0.008566
-0.00909364
-0.00974018
-0.0103734
-0.0108586
-0.00337806
-0.00353675
-0.00385278
-0.00413002
-0.00431496
-0.00449359
-0.00482337
-0.00526044
-0.0056543
-0.0059397
-0.00629575
-0.00687311
-0.00756203
-0.00816292
-0.00863938
-0.00907553
-0.00957331
-0.0101788
-0.0107897
-0.0112824
-0.00354451
-0.00370647
-0.00402907
-0.00433485
-0.0045676
-0.0047735
-0.00511317
-0.00557204
-0.00600871
-0.0063364
-0.00669863
-0.00725059
-0.00793853
-0.00858357
-0.00911427
-0.00957706
-0.0100542
-0.0106199
-0.0112059
-0.011692
-0.00371574
-0.00388364
-0.00421447
-0.00454362
-0.00482141
-0.00505915
-0.00541063
-0.00588433
-0.00635771
-0.00673158
-0.00711012
-0.00763963
-0.00831187
-0.00898427
-0.00956627
-0.0100655
-0.0105344
-0.0110619
-0.0116202
-0.0120953
-0.00389161
-0.00406721
-0.0044082
-0.00475648
-0.00507539
-0.00534842
-0.00571519
-0.00619881
-0.00670011
-0.00712095
-0.00752495
-0.00803694
-0.00868764
-0.00936976
-0.00999127
-0.010533
-0.0110083
-0.0115037
-0.0120305
-0.012493
-0.00407186
-0.00425593
-0.00460929
-0.00497359
-0.00532854
-0.00563927
-0.00602541
-0.00651693
-0.00703615
-0.00749913
-0.00793814
-0.00843946
-0.00906489
-0.00974668
-0.0103914
-0.0109717
-0.0114678
-0.0119431
-0.0124375
-0.0128826
-0.00425589
-0.00444847
-0.00481638
-0.00519513
-0.00558027
-0.00592919
-0.006339
-0.00683863
-0.00736832
-0.00786362
-0.00834111
-0.00884411
-0.00944236
-0.0101155
-0.0107715
-0.0113792
-0.011904
-0.0123738
-0.012841
-0.0132651
-0.00444315
-0.0046435
-0.00502743
-0.0054209
-0.00583055
-0.00621611
-0.00665308
-0.00716189
-0.00769874
-0.00821698
-0.0087258
-0.00924308
-0.00982053
-0.0104741
-0.0111329
-0.0117565
-0.012308
-0.0127853
-0.0132353
-0.0136403
-0.00463218
-0.00483972
-0.00524047
-0.00564987
-0.00607927
-0.00649842
-0.00696507
-0.00748429
-0.00802603
-0.00856178
-0.00909221
-0.00962607
-0.0101955
-0.0108247
-0.0114756
-0.0121059
-0.0126768
-0.0131668
-0.0136067
-0.0139952
-0.0048217
-0.00503566
-0.00545288
-0.00588062
-0.00632674
-0.00677509
-0.0072724
-0.0078044
-0.00834812
-0.00889513
-0.00944078
-0.00998674
-0.0105559
-0.011167
-0.011801
-0.0124298
-0.013017
-0.0135251
-0.0139635
-0.0143361
-0.00500937
-0.00522961
-0.00566231
-0.00611028
-0.0065726
-0.00704652
-0.00757278
-0.00812094
-0.00866781
-0.00921567
-0.0097703
-0.0103227
-0.0108849
-0.0114841
-0.0120987
-0.0127133
-0.0133094
-0.0138425
-0.0143018
-0.0146786
-0.00519269
-0.00541987
-0.00586709
-0.00633449
-0.0068135
-0.00731169
-0.00786394
-0.00843005
-0.00898768
-0.00953066
-0.0100845
-0.0106446
-0.0111893
-0.0117654
-0.0123615
-0.0129489
-0.0135253
-0.0140614
-0.014538
-0.014939
-0.00536909
-0.00560376
-0.00606538
-0.00655351
-0.00704827
-0.00756679
-0.00814391
-0.0087258
-0.00929543
-0.00983829
-0.0103823
-0.010952
-0.0114929
-0.0120379
-0.0126137
-0.0131842
-0.0137413
-0.0142604
-0.01471
-0.0150733
-0.00553275
-0.0057763
-0.00625492
-0.00676605
-0.00727946
-0.00781546
-0.00841539
-0.00901406
-0.00958584
-0.0101192
-0.010625
-0.011147
-0.0116655
-0.0121743
-0.0127203
-0.0132915
-0.0138822
-0.0144876
-0.015056
-0.0155343
-0.00568168
-0.00593271
-0.00642805
-0.00696195
-0.00749776
-0.00805558
-0.00868322
-0.00932797
-0.00995894
-0.0105411
-0.0110706
-0.0115347
-0.011943
-0.0123419
-0.012748
-0.0131543
-0.0135257
-0.0138631
-0.0141687
-0.0144676
-0.00581577
-0.00607884
-0.00658841
-0.00713874
-0.00768309
-0.00825121
-0.00887523
-0.00949241
-0.0100857
-0.010609
-0.0110902
-0.0115769
-0.0120442
-0.0125187
-0.0130186
-0.0135663
-0.0141537
-0.014763
-0.0153673
-0.0159019
-0.00591313
-0.00618355
-0.00672285
-0.00731994
-0.00790607
-0.00849046
-0.00911174
-0.00970885
-0.0102809
-0.0108019
-0.0112592
-0.0117363
-0.0122153
-0.0126465
-0.0130399
-0.0133922
-0.0137074
-0.0139982
-0.0142983
-0.0146477
-0.00599287
-0.00627056
-0.00682314
-0.00742376
-0.00800276
-0.00859931
-0.00928219
-0.0099781
-0.0106403
-0.011202
-0.0116069
-0.0119436
-0.0123105
-0.0126826
-0.0130461
-0.0134346
-0.0138642
-0.0143218
-0.0147818
-0.0152537
0.0402779
0.0242154
0.00853754
-0.000738177
-0.00450431
-0.00543378
-0.00569053
-0.0063758
-0.00788723
-0.00998544
-0.0119461
-0.0133471
-0.0143492
-0.0152994
-0.0163602
-0.0174679
-0.0185756
-0.019546
-0.0203073
-0.0211085
-0.0221422
-0.0232332
-0.0241673
-0.0250419
-0.0259617
-0.0269103
-0.0279315
-0.0289573
-0.0299079
-0.03095
-0.0323074
-0.0339127
-0.0353717
-0.0363359
-0.0370208
-0.0378659
-0.0388929
-0.0399827
-0.0410911
-0.0422104
-0.0433361
-0.0445496
-0.0459287
-0.0473623
-0.048645
-0.0498072
-0.0509416
-0.0521212
-0.0534039
-0.054782
-0.0561605
-0.0575351
-0.0589766
-0.0604616
-0.0619168
-0.0633412
-0.0648302
-0.0663806
-0.0679091
-0.0694257
-0.0710289
-0.0726904
-0.0743789
-0.0760813
-0.0778243
-0.0795396
-0.081281
-0.0830488
-0.0848002
-0.086568
-0.0885586
-0.0908345
-0.0929521
-0.094812
-0.0967064
-0.0987202
-0.100796
-0.102969
-0.10524
-0.107549
-0.109914
-0.112193
-0.114493
-0.116887
-0.11931
-0.121838
-0.124396
-0.127037
-0.129689
-0.132459
-0.135225
-0.137897
-0.140643
-0.143517
-0.146452
-0.149328
-0.152297
-0.155206
-0.157736
-0.160388
0.0379948
0.0240605
0.00863318
-0.000624651
-0.00442613
-0.00539055
-0.00566051
-0.00635122
-0.00786771
-0.00997189
-0.0119374
-0.0133411
-0.0143443
-0.0152946
-0.0163556
-0.0174637
-0.018572
-0.0195431
-0.0203045
-0.0211053
-0.0221392
-0.0232307
-0.0241649
-0.0250396
-0.0259595
-0.0269081
-0.0279295
-0.0289556
-0.0299062
-0.0309481
-0.0323053
-0.0339111
-0.0353708
-0.0363352
-0.0370197
-0.0378647
-0.0388919
-0.0399818
-0.0410903
-0.0422097
-0.0433353
-0.0445488
-0.0459279
-0.0473617
-0.0486445
-0.0498068
-0.0509411
-0.0521206
-0.0534034
-0.0547815
-0.0561601
-0.0575347
-0.0589762
-0.0604612
-0.0619164
-0.0633409
-0.0648298
-0.0663803
-0.0679088
-0.0694254
-0.0710286
-0.0726901
-0.0743785
-0.076081
-0.077824
-0.0795394
-0.0812808
-0.0830486
-0.0848
-0.0865678
-0.0885583
-0.0908342
-0.092952
-0.0948118
-0.0967062
-0.09872
-0.100796
-0.102969
-0.10524
-0.107549
-0.109914
-0.112193
-0.114493
-0.116886
-0.11931
-0.121837
-0.124396
-0.127037
-0.129689
-0.132459
-0.135225
-0.137897
-0.140643
-0.143517
-0.146452
-0.149328
-0.152297
-0.155206
-0.157736
-0.160388
0.0365675
0.0240981
0.00887999
-0.000409275
-0.00430419
-0.00534153
-0.00564312
-0.00634021
-0.00785481
-0.00995662
-0.0119226
-0.0133297
-0.0143371
-0.0152901
-0.0163522
-0.0174601
-0.0185686
-0.0195404
-0.020302
-0.0211029
-0.022137
-0.0232287
-0.024163
-0.0250377
-0.0259578
-0.0269063
-0.0279278
-0.0289541
-0.0299047
-0.0309462
-0.0323035
-0.03391
-0.0353705
-0.0363349
-0.0370187
-0.0378635
-0.038891
-0.039981
-0.0410896
-0.042209
-0.0433346
-0.044548
-0.0459273
-0.0473614
-0.0486442
-0.0498064
-0.0509407
-0.0521202
-0.0534029
-0.0547811
-0.0561598
-0.0575343
-0.0589758
-0.0604609
-0.0619161
-0.0633406
-0.0648295
-0.06638
-0.0679086
-0.0694251
-0.0710283
-0.0726898
-0.0743783
-0.0760807
-0.0778238
-0.0795391
-0.0812806
-0.0830484
-0.0847998
-0.0865675
-0.0885579
-0.0908341
-0.092952
-0.0948117
-0.096706
-0.0987198
-0.100796
-0.102969
-0.10524
-0.107549
-0.109914
-0.112193
-0.114493
-0.116886
-0.11931
-0.121837
-0.124396
-0.127037
-0.129689
-0.132459
-0.135225
-0.137897
-0.140642
-0.143517
-0.146452
-0.149328
-0.152297
-0.155206
-0.157736
-0.160388
0.0350393
0.0239893
0.00911777
-0.000174458
-0.00416026
-0.0052824
-0.00562382
-0.00633038
-0.00784273
-0.00993756
-0.0118981
-0.0133072
-0.0143224
-0.015283
-0.0163484
-0.0174559
-0.0185633
-0.0195355
-0.0202986
-0.0211008
-0.0221351
-0.0232265
-0.0241606
-0.0250358
-0.0259563
-0.0269047
-0.0279258
-0.0289522
-0.0299028
-0.0309441
-0.0323015
-0.0339089
-0.0353704
-0.0363346
-0.0370174
-0.037862
-0.0388899
-0.0399801
-0.0410888
-0.0422083
-0.0433338
-0.044547
-0.0459266
-0.0473611
-0.048644
-0.049806
-0.0509402
-0.0521196
-0.0534024
-0.0547807
-0.0561594
-0.0575339
-0.0589754
-0.0604606
-0.0619159
-0.0633402
-0.0648291
-0.0663797
-0.0679083
-0.0694248
-0.071028
-0.0726896
-0.0743781
-0.0760805
-0.0778236
-0.0795389
-0.0812803
-0.0830482
-0.0847997
-0.0865672
-0.0885575
-0.0908339
-0.0929521
-0.0948116
-0.0967058
-0.0987197
-0.100796
-0.102969
-0.105239
-0.107548
-0.109914
-0.112193
-0.114493
-0.116886
-0.119309
-0.121837
-0.124395
-0.127037
-0.129689
-0.132459
-0.135225
-0.137897
-0.140642
-0.143517
-0.146452
-0.149328
-0.152297
-0.155206
-0.157736
-0.160388
0.03342
0.0237864
0.00936904
8.58282e-05
-0.00399864
-0.00521522
-0.00560311
-0.00632204
-0.0078322
-0.00991562
-0.0118642
-0.0132726
-0.0142982
-0.0152711
-0.0163433
-0.0174506
-0.0185554
-0.0195274
-0.0202935
-0.0210985
-0.022133
-0.0232233
-0.0241575
-0.025034
-0.0259555
-0.0269036
-0.0279238
-0.0289496
-0.0299003
-0.0309418
-0.0322992
-0.0339072
-0.0353699
-0.0363342
-0.0370159
-0.0378603
-0.0388885
-0.039979
-0.0410878
-0.0422073
-0.0433327
-0.0445459
-0.0459257
-0.0473607
-0.0486437
-0.0498056
-0.0509397
-0.0521189
-0.0534017
-0.0547802
-0.0561591
-0.0575335
-0.058975
-0.0604603
-0.0619155
-0.0633398
-0.0648288
-0.0663794
-0.0679081
-0.0694245
-0.0710276
-0.0726893
-0.0743778
-0.0760803
-0.0778234
-0.0795387
-0.0812801
-0.0830481
-0.0847995
-0.0865668
-0.088557
-0.0908338
-0.0929522
-0.0948114
-0.0967055
-0.0987195
-0.100796
-0.102969
-0.105239
-0.107548
-0.109913
-0.112192
-0.114493
-0.116886
-0.119309
-0.121837
-0.124395
-0.127037
-0.129689
-0.132458
-0.135225
-0.137897
-0.140642
-0.143517
-0.146451
-0.149328
-0.152297
-0.155206
-0.157736
-0.160389
0.031796
0.0235207
0.0096406
0.000367725
-0.00383043
-0.00514702
-0.00558451
-0.00631599
-0.00782268
-0.00989265
-0.0118261
-0.0132313
-0.0142675
-0.0152548
-0.016336
-0.0174437
-0.0185449
-0.0195163
-0.0202868
-0.0210961
-0.0221301
-0.0232182
-0.0241529
-0.0250319
-0.0259555
-0.0269037
-0.0279221
-0.0289466
-0.0298977
-0.0309396
-0.0322965
-0.0339046
-0.0353685
-0.0363332
-0.037014
-0.0378581
-0.0388869
-0.0399776
-0.0410865
-0.0422061
-0.0433314
-0.0445445
-0.0459247
-0.0473602
-0.0486432
-0.0498051
-0.050939
-0.0521181
-0.053401
-0.0547797
-0.0561586
-0.057533
-0.0589746
-0.0604599
-0.0619151
-0.0633394
-0.0648284
-0.0663791
-0.0679077
-0.0694242
-0.0710273
-0.0726889
-0.0743775
-0.07608
-0.0778232
-0.0795384
-0.0812798
-0.0830479
-0.0847994
-0.0865664
-0.0885564
-0.0908337
-0.0929524
-0.0948112
-0.0967052
-0.0987193
-0.100795
-0.102968
-0.105239
-0.107548
-0.109913
-0.112192
-0.114493
-0.116886
-0.119309
-0.121837
-0.124395
-0.127036
-0.129689
-0.132458
-0.135225
-0.137897
-0.140642
-0.143517
-0.146451
-0.149328
-0.152297
-0.155206
-0.157737
-0.160389
0.0301851
0.0231808
0.0099141
0.000658882
-0.00366211
-0.00508062
-0.00556899
-0.00631185
-0.00781311
-0.009869
-0.0117866
-0.013188
-0.0142342
-0.0152362
-0.0163269
-0.0174352
-0.0185323
-0.0195031
-0.0202794
-0.0210937
-0.0221262
-0.0232107
-0.024146
-0.0250288
-0.0259559
-0.0269049
-0.0279211
-0.0289436
-0.0298954
-0.0309382
-0.0322939
-0.0339008
-0.0353657
-0.0363312
-0.0370115
-0.0378555
-0.0388848
-0.039976
-0.041085
-0.0422046
-0.0433297
-0.0445428
-0.0459235
-0.0473594
-0.0486424
-0.0498044
-0.0509383
-0.0521172
-0.0534001
-0.0547789
-0.0561581
-0.0575324
-0.058974
-0.0604594
-0.0619147
-0.063339
-0.064828
-0.0663787
-0.0679073
-0.0694238
-0.0710269
-0.0726885
-0.0743772
-0.0760798
-0.0778229
-0.0795381
-0.0812795
-0.0830477
-0.0847992
-0.086566
-0.0885557
-0.0908336
-0.0929526
-0.094811
-0.0967049
-0.0987191
-0.100795
-0.102968
-0.105239
-0.107548
-0.109913
-0.112192
-0.114492
-0.116886
-0.119309
-0.121837
-0.124395
-0.127036
-0.129689
-0.132458
-0.135225
-0.137897
-0.140642
-0.143517
-0.146451
-0.149328
-0.152297
-0.155206
-0.157738
-0.16039
0.0285948
0.0227527
0.0101779
0.000957888
-0.00349239
-0.00501463
-0.00555536
-0.00630919
-0.00780346
-0.009845
-0.0117469
-0.0131439
-0.0142
-0.0152164
-0.0163163
-0.0174253
-0.0185185
-0.0194889
-0.0202719
-0.021092
-0.0221221
-0.0232015
-0.0241368
-0.0250243
-0.0259561
-0.0269067
-0.0279206
-0.0289409
-0.0298939
-0.0309383
-0.0322921
-0.0338963
-0.0353614
-0.036328
-0.037008
-0.037852
-0.0388821
-0.039974
-0.0410833
-0.0422029
-0.0433279
-0.0445411
-0.045922
-0.0473582
-0.0486413
-0.0498035
-0.0509374
-0.0521162
-0.0533991
-0.054778
-0.0561573
-0.0575317
-0.0589733
-0.0604587
-0.061914
-0.0633385
-0.0648275
-0.0663781
-0.0679068
-0.0694233
-0.0710264
-0.072688
-0.0743769
-0.0760796
-0.0778227
-0.0795378
-0.0812792
-0.0830475
-0.084799
-0.0865654
-0.0885549
-0.0908335
-0.0929528
-0.0948108
-0.0967045
-0.0987188
-0.100795
-0.102968
-0.105239
-0.107548
-0.109913
-0.112192
-0.114492
-0.116886
-0.119309
-0.121837
-0.124395
-0.127036
-0.129689
-0.132458
-0.135225
-0.137896
-0.140642
-0.143517
-0.146451
-0.149328
-0.152297
-0.155207
-0.157739
-0.160391
0.0270359
0.0222338
0.0104262
0.00126591
-0.00331839
-0.0049473
-0.00554286
-0.00630839
-0.0077944
-0.00982097
-0.011707
-0.0130995
-0.0141651
-0.0151957
-0.0163049
-0.0174147
-0.0185039
-0.0194742
-0.0202644
-0.021091
-0.0221183
-0.0231914
-0.0241261
-0.0250184
-0.0259557
-0.0269089
-0.0279207
-0.0289385
-0.0298933
-0.0309401
-0.0322919
-0.0338923
-0.0353564
-0.0363235
-0.0370032
-0.0378474
-0.0388785
-0.0399714
-0.0410813
-0.0422013
-0.0433263
-0.0445395
-0.0459206
-0.0473568
-0.0486398
-0.0498023
-0.0509362
-0.052115
-0.0533979
-0.0547769
-0.0561564
-0.0575309
-0.0589723
-0.0604576
-0.0619131
-0.0633379
-0.064827
-0.0663774
-0.0679062
-0.0694228
-0.0710259
-0.0726874
-0.0743764
-0.0760794
-0.0778224
-0.0795375
-0.0812789
-0.0830473
-0.0847988
-0.0865648
-0.088554
-0.0908334
-0.092953
-0.0948105
-0.0967042
-0.0987186
-0.100795
-0.102967
-0.105238
-0.107548
-0.109913
-0.112192
-0.114492
-0.116885
-0.119309
-0.121837
-0.124395
-0.127036
-0.129688
-0.132458
-0.135225
-0.137896
-0.140642
-0.143517
-0.146451
-0.149328
-0.152297
-0.155207
-0.157741
-0.160392
0.0255228
0.0216261
0.010651
0.00158213
-0.00313805
-0.00487742
-0.00553103
-0.00631015
-0.00778673
-0.00979717
-0.0116669
-0.0130545
-0.0141293
-0.0151743
-0.016293
-0.0174036
-0.018489
-0.019459
-0.0202569
-0.0210906
-0.0221152
-0.0231813
-0.0241148
-0.0250117
-0.0259548
-0.0269113
-0.0279212
-0.0289366
-0.0298935
-0.0309434
-0.0322935
-0.0338898
-0.035352
-0.0363185
-0.0369971
-0.0378415
-0.0388741
-0.039968
-0.0410787
-0.0421995
-0.0433249
-0.0445383
-0.0459196
-0.0473554
-0.048638
-0.0498007
-0.0509347
-0.0521136
-0.0533967
-0.0547757
-0.0561555
-0.05753
-0.0589711
-0.0604561
-0.0619118
-0.0633371
-0.0648264
-0.0663766
-0.0679054
-0.0694223
-0.0710251
-0.0726865
-0.0743757
-0.0760791
-0.0778221
-0.0795372
-0.0812787
-0.0830472
-0.0847987
-0.0865642
-0.0885529
-0.0908331
-0.0929532
-0.0948102
-0.0967038
-0.0987185
-0.100794
-0.102967
-0.105238
-0.107547
-0.109913
-0.112192
-0.114491
-0.116885
-0.119308
-0.121836
-0.124394
-0.127036
-0.129688
-0.132458
-0.135225
-0.137896
-0.140641