/*--------------------------------*- C++ -*----------------------------------*\
| =========                 |                                                 |
| \\      /  F ield         | OpenFOAM: The Open Source CFD Toolbox           |
|  \\    /   O peration     | Version:  v1912                                 |
|   \\  /    A nd           | Website:  www.openfoam.com                      |
|    \\/     M anipulation  |                                                 |
\*---------------------------------------------------------------------------*/
FoamFile
{
    version     2.0;
    format      ascii;
    class       volVectorField;
    location    "3.75";
    object      U;
}
// * * * * * * * * * * * * * * * * * * * * * * * * * * * * * * * * * * * * * //

dimensions      [0 1 -1 0 0 0 0];


internalField   nonuniform List<vector> 
9600
(
(0.975637 0.00555837 0)
(1.04057 -0.0163011 0)
(0.951223 0.0123151 0)
(1.03275 0.00728507 0)
(0.970362 0.0068168 0)
(1.00989 -0.0247001 0)
(0.829475 0.0170061 0)
(1.15996 -0.0125308 0)
(0.844533 -0.0259042 0)
(1.12156 0.013663 0)
(0.953118 0.00526513 0)
(1.02709 0.029442 0)
(0.983119 0.0250237 0)
(1.01682 0.0143491 0)
(0.969467 0.0331237 0)
(1.0178 -0.00694786 0)
(0.92043 0.022522 0)
(1.03628 -0.0202478 0)
(0.864083 0.00304562 0)
(1.0425 -0.0338366 0)
(0.977551 0.00542665 0)
(1.03693 -0.01604 0)
(0.953028 0.0123156 0)
(1.02739 0.00720841 0)
(0.973964 0.00695074 0)
(1.00551 -0.0229128 0)
(0.839514 0.0153341 0)
(1.13795 -0.0123791 0)
(0.858824 -0.0256847 0)
(1.11344 0.0125692 0)
(0.969391 0.00652201 0)
(1.0212 0.0293504 0)
(0.997641 0.0252623 0)
(1.00469 0.0147957 0)
(0.990343 0.0327491 0)
(0.99253 -0.00532018 0)
(0.964901 0.0213947 0)
(0.984474 -0.0184216 0)
(0.954362 0.00285614 0)
(0.95439 -0.0337171 0)
(0.981214 0.00530516 0)
(1.03154 -0.015798 0)
(0.957473 0.0122978 0)
(1.01841 0.00710709 0)
(0.979439 0.00711719 0)
(1.00081 -0.0216482 0)
(0.859116 0.0135329 0)
(1.10924 -0.012495 0)
(0.892595 -0.0256638 0)
(1.08955 0.0111007 0)
(0.99412 0.00795734 0)
(1.01305 0.0288834 0)
(1.00639 0.0255837 0)
(0.999742 0.0150739 0)
(0.993329 0.0327438 0)
(0.995781 -0.00444808 0)
(0.973777 0.0207651 0)
(0.994268 -0.0174201 0)
(0.97337 0.00258084 0)
(0.975381 -0.0264908 0)
(0.986062 0.0052065 0)
(1.02496 -0.0155758 0)
(0.963979 0.0123185 0)
(1.00918 0.00699561 0)
(0.985168 0.00720737 0)
(0.996694 -0.0204915 0)
(0.885793 0.0122893 0)
(1.07741 -0.012826 0)
(0.934683 -0.0254828 0)
(1.05489 0.00982745 0)
(1.01261 0.00901145 0)
(1.0061 0.0285659 0)
(1.00447 0.025777 0)
(0.993711 0.0153202 0)
(0.989547 0.0327228 0)
(0.993978 -0.00397775 0)
(0.979088 0.0207626 0)
(0.993202 -0.0175289 0)
(0.981526 0.00294923 0)
(0.977541 -0.0259561 0)
(0.991359 0.00511826 0)
(1.01774 -0.0153662 0)
(0.971321 0.0123779 0)
(1.00221 0.00688664 0)
(0.98972 0.00726727 0)
(0.994237 -0.0195262 0)
(0.914131 0.0114256 0)
(1.04981 -0.013437 0)
(0.969689 -0.0251713 0)
(1.0225 0.00884186 0)
(1.01888 0.00958215 0)
(0.999821 0.0286558 0)
(0.998218 0.0260319 0)
(0.987331 0.0157478 0)
(0.984626 0.0323545 0)
(0.995442 -0.00318609 0)
(0.982762 0.0197041 0)
(0.999343 -0.0163251 0)
(0.987358 0.0023494 0)
(0.984948 -0.0234824 0)
(0.996478 0.00504285 0)
(1.0104 -0.0151677 0)
(0.978357 0.0124337 0)
(0.998383 0.00680324 0)
(0.992485 0.0072962 0)
(0.993602 -0.0187746 0)
(0.939339 0.0107963 0)
(1.03047 -0.0141292 0)
(0.989838 -0.0247503 0)
(1.00096 0.00822881 0)
(1.01623 0.00987908 0)
(0.993829 0.0289977 0)
(0.993198 0.0264055 0)
(0.984702 0.0160702 0)
(0.983674 0.0319421 0)
(0.998592 -0.00292224 0)
(0.988787 0.0189185 0)
(1.00395 -0.0157522 0)
(0.993466 0.00198764 0)
(0.989756 -0.0209604 0)
(1.00107 0.00498536 0)
(1.00334 -0.0149798 0)
(0.984447 0.0124504 0)
(0.997285 0.00676254 0)
(0.993836 0.0072981 0)
(0.993981 -0.0182317 0)
(0.959489 0.01035 0)
(1.01943 -0.0147238 0)
(0.996353 -0.0242829 0)
(0.989365 0.0079087 0)
(1.00978 0.010062 0)
(0.988847 0.0293203 0)
(0.991238 0.0266731 0)
(0.986379 0.0162684 0)
(0.987366 0.0313211 0)
(1.00303 -0.00262654 0)
(0.995338 0.0179855 0)
(1.00825 -0.0148907 0)
(0.998935 0.00147201 0)
(0.994217 -0.0184562 0)
(1.00499 0.00494876 0)
(0.996925 -0.0147998 0)
(0.989468 0.0124059 0)
(0.997932 0.00677011 0)
(0.994636 0.00728745 0)
(0.994253 -0.0178691 0)
(0.975119 0.0100112 0)
(1.01452 -0.0151068 0)
(0.994292 -0.0237595 0)
(0.982302 0.00772945 0)
(1.00246 0.0101772 0)
(0.985432 0.0294519 0)
(0.991879 0.0267657 0)
(0.990518 0.0163138 0)
(0.993523 0.0306299 0)
(1.00768 -0.00233689 0)
(1.00142 0.0169935 0)
(1.01161 -0.0139434 0)
(1.00333 0.00092537 0)
(0.997755 -0.0159778 0)
(1.00817 0.00493336 0)
(0.991587 -0.0146251 0)
(0.993519 0.0122883 0)
(0.999463 0.00682087 0)
(0.995666 0.00728322 0)
(0.993724 -0.0176588 0)
(0.987462 0.00970261 0)
(1.01331 -0.0152236 0)
(0.988557 -0.0231441 0)
(0.976015 0.00759515 0)
(0.995364 0.0102109 0)
(0.983545 0.0293578 0)
(0.993981 0.0267044 0)
(0.995288 0.0162321 0)
(0.999895 0.0299158 0)
(1.01174 -0.00199112 0)
(1.00639 0.015989 0)
(1.01401 -0.0128526 0)
(1.00652 0.000314709 0)
(1.00026 -0.0135273 0)
(1.01048 0.00493635 0)
(0.987717 -0.0144535 0)
(0.996626 0.0120956 0)
(1.00131 0.00690396 0)
(0.997391 0.00730625 0)
(0.992401 -0.0175714 0)
(0.997163 0.00936864 0)
(1.01392 -0.0150671 0)
(0.982511 -0.0224101 0)
(0.969948 0.00745897 0)
(0.989142 0.0101318 0)
(0.982803 0.029042 0)
(0.996475 0.0265123 0)
(0.999544 0.0160545 0)
(1.00526 0.0291896 0)
(1.01486 -0.00156088 0)
(1.01007 0.0149706 0)
(1.01539 -0.0116337 0)
(1.00855 -0.000304381 0)
(1.00174 -0.0111544 0)
(1.01182 0.00495209 0)
(0.985554 -0.0142829 0)
(0.998678 0.0118367 0)
(1.0031 0.00700172 0)
(0.999974 0.00737004 0)
(0.990812 -0.0175704 0)
(1.00419 0.0089805 0)
(1.01503 -0.0146744 0)
(0.977982 -0.0215457 0)
(0.965141 0.00731494 0)
(0.984318 0.0099304 0)
(0.982672 0.0285135 0)
(0.998594 0.0262172 0)
(1.00278 0.0158071 0)
(1.00922 0.0284499 0)
(1.01706 -0.00103747 0)
(1.01257 0.0139656 0)
(1.01588 -0.0102958 0)
(1.00956 -0.00089911 0)
(1.00239 -0.0088961 0)
(1.01218 0.00497332 0)
(0.985089 -0.0141097 0)
(0.999567 0.0115286 0)
(1.0045 0.00708934 0)
(1.00329 0.00747736 0)
(0.989629 -0.0176074 0)
(1.0084 0.00853149 0)
(1.01579 -0.0141043 0)
(0.97559 -0.0205826 0)
(0.962543 0.00717616 0)
(0.981252 0.00963098 0)
(0.982743 0.027804 0)
(1.00004 0.0258488 0)
(1.00503 0.0155079 0)
(1.01189 0.0276897 0)
(1.01847 -0.000427842 0)
(1.01412 0.0129934 0)
(1.01566 -0.00886741 0)
(1.00972 -0.00145157 0)
(1.00245 -0.00677731 0)
(1.01168 0.00499257 0)
(0.98607 -0.0139288 0)
(0.999334 0.0111918 0)
(1.00525 0.00714298 0)
(1.00695 0.00761567 0)
(0.989364 -0.0176282 0)
(1.00996 0.00803629 0)
(1.01572 -0.0134292 0)
(0.975111 -0.0195724 0)
(0.962405 0.0070573 0)
(0.980141 0.00928092 0)
(0.983045 0.0269685 0)
(1.00103 0.0254208 0)
(1.00665 0.0151817 0)
(1.0136 0.0268996 0)
(1.01921 0.000249768 0)
(1.0149 0.0120459 0)
(1.01496 -0.00737671 0)
(1.00927 -0.00193145 0)
(1.00212 -0.00483488 0)
(1.01057 0.00500332 0)
(0.988058 -0.0137348 0)
(0.998216 0.0108473 0)
(1.00524 0.00714466 0)
(1.01034 0.00775868 0)
(0.990225 -0.0175861 0)
(1.00937 0.00752195 0)
(1.01472 -0.0127107 0)
(0.975911 -0.0185731 0)
(0.964303 0.00695906 0)
(0.980931 0.0089284 0)
(0.983901 0.0260584 0)
(1.00189 0.0249496 0)
(1.00792 0.0148409 0)
(1.01458 0.0260853 0)
(1.01929 0.0010041 0)
(1.015 0.0111408 0)
(1.01391 -0.00583657 0)
(1.00844 -0.00230494 0)
(1.00154 -0.00310668 0)
(1.00914 0.00500092 0)
(0.990524 -0.0135233 0)
(0.996586 0.0105147 0)
(1.00457 0.00708492 0)
(1.01291 0.00787648 0)
(0.99207 -0.0174517 0)
(1.00732 0.0070157 0)
(1.01306 -0.011985 0)
(0.977356 -0.0176449 0)
(0.967334 0.00686288 0)
(0.983108 0.00860007 0)
(0.985386 0.0251178 0)
(1.00265 0.024456 0)
(1.00876 0.0145098 0)
(1.01485 0.0252633 0)
(1.01868 0.00182012 0)
(1.01448 0.0102908 0)
(1.01262 -0.00428877 0)
(1.00746 -0.00255122 0)
(1.00086 -0.00162364 0)
(1.0077 0.00498311 0)
(0.992984 -0.0132918 0)
(0.994854 0.0102066 0)
(1.00347 0.00697035 0)
(1.01439 0.00794196 0)
(0.994482 -0.0172164 0)
(1.00455 0.00654531 0)
(1.01112 -0.0112836 0)
(0.979029 -0.0168046 0)
(0.970458 0.006753 0)
(0.985772 0.00830461 0)
(0.987088 0.0241836 0)
(1.00299 0.0239677 0)
(1.0089 0.0142124 0)
(1.01434 0.0244433 0)
(1.01742 0.00267853 0)
(1.01345 0.00949803 0)
(1.01119 -0.00278937 0)
(1.00652 -0.00265805 0)
(1.00018 -0.000396712 0)
(1.00643 0.00494993 0)
(0.99511 -0.0130395 0)
(0.993352 0.00992671 0)
(1.00227 0.00681591 0)
(1.01483 0.00793855 0)
(0.996933 -0.0168863 0)
(1.00173 0.00612472 0)
(1.00921 -0.0106256 0)
(0.980713 -0.0160463 0)
(0.972945 0.0066301 0)
(0.988078 0.00804284 0)
(0.988437 0.0232746 0)
(1.00261 0.0235184 0)
(1.00821 0.0139447 0)
(1.01313 0.0236297 0)
(1.0157 0.003573 0)
(1.0121 0.00875723 0)
(1.00971 -0.00137369 0)
(1.00572 -0.0026169 0)
(0.999604 0.000571909 0)
(1.00542 0.00490302 0)
(0.996769 -0.0127677 0)
(0.992263 0.00967313 0)
(1.0012 0.00663705 0)
(1.01451 0.00786269 0)
(0.999001 -0.0164752 0)
(0.999354 0.00575244 0)
(1.00754 -0.0100108 0)
(0.982287 -0.0153717 0)
(0.974595 0.00650421 0)
(0.989611 0.0078056 0)
(0.989148 0.0224062 0)
(1.00157 0.0231142 0)
(1.00691 0.0137095 0)
(1.0115 0.0228136 0)
(1.01381 0.00446621 0)
(1.0107 0.00807171 0)
(1.0083 -5.734e-05 0)
(1.00512 -0.00243294 0)
(0.99919 0.00128587 0)
(1.00466 0.00484474 0)
(0.997977 -0.0124791 0)
(0.991614 0.00943977 0)
(1.00037 0.00644989 0)
(1.01376 0.00772229 0)
(1.00048 -0.0160013 0)
(0.997639 0.00541842 0)
(1.00619 -0.00943172 0)
(0.983675 -0.0147619 0)
(0.975602 0.00639084 0)
(0.990413 0.00759083 0)
(0.989312 0.0215791 0)
(1.00021 0.0227456 0)
(1.0054 0.0135086 0)
(1.00982 0.0219817 0)
(1.01203 0.00532004 0)
(1.00946 0.00745069 0)
(1.00707 0.001145 0)
(1.0047 -0.00212077 0)
(0.998958 0.00176518 0)
(1.0041 0.00477724 0)
(0.998818 -0.0121761 0)
(0.991334 0.00921869 0)
(0.999789 0.0062671 0)
(1.01284 0.00753028 0)
(1.00136 -0.0154828 0)
(0.996562 0.00510647 0)
(1.00515 -0.00887332 0)
(0.984849 -0.0141915 0)
(0.976265 0.0063056 0)
(0.990743 0.00740467 0)
(0.989204 0.0207705 0)
(0.998915 0.0224096 0)
(1.00405 0.0133198 0)
(1.00838 0.0211338 0)
(1.01053 0.00611597 0)
(1.00849 0.0068897 0)
(1.00605 0.00218433 0)
(1.00443 -0.00171201 0)
(0.9989 0.00206051 0)
(1.00369 0.00470233 0)
(0.999383 -0.0118612 0)
(0.99132 0.00900343 0)
(0.99942 0.00609689 0)
(1.0119 0.00729895 0)
(1.00175 -0.0149318 0)
(0.995968 0.00480205 0)
(1.00438 -0.0083235 0)
(0.985835 -0.0136441 0)
(0.976815 0.00624472 0)
(0.990864 0.00725058 0)
(0.98908 0.0199643 0)
(0.997898 0.0220926 0)
(1.00306 0.0131276 0)
(1.00731 0.0202774 0)
(1.00935 0.00684986 0)
(1.00782 0.00638878 0)
(1.00525 0.00305959 0)
(1.00425 -0.00121141 0)
(0.998994 0.00221422 0)
(1.00338 0.00462141 0)
(0.999755 -0.0115366 0)
(0.99148 0.00878893 0)
(0.9992 0.00594361 0)
(1.01105 0.00703918 0)
(1.00178 -0.0143554 0)
(0.995677 0.00449174 0)
(1.00384 -0.00776766 0)
(0.986693 -0.0131264 0)
(0.977375 0.0062014 0)
(0.990954 0.00712777 0)
(0.989097 0.0191542 0)
(0.997211 0.0217713 0)
(1.00248 0.012944 0)
(1.00661 0.0194209 0)
(1.00845 0.00753477 0)
(1.00738 0.00596216 0)
(1.00466 0.00381077 0)
(1.00411 -0.000607263 0)
(0.999206 0.0022648 0)
(1.00314 0.00453565 0)
(0.999996 -0.011203 0)
(0.991743 0.0085705 0)
(0.999068 0.00580886 0)
(1.0103 0.00676035 0)
(1.00159 -0.0137595 0)
(0.995531 0.00416699 0)
(1.00347 -0.00720022 0)
(0.987493 -0.0126312 0)
(0.977982 0.00617402 0)
(0.991095 0.00703381 0)
(0.989311 0.0183249 0)
(0.996783 0.0214424 0)
(1.00221 0.0127755 0)
(1.00616 0.0185683 0)
(1.00775 0.00818068 0)
(1.00708 0.00562864 0)
(1.00422 0.004447 0)
(1.00396 9.74241e-05 0)
(0.999501 0.00225952 0)
(1.00296 0.00444503 0)
(1.00015 -0.0108604 0)
(0.992062 0.00834459 0)
(0.99898 0.0056941 0)
(1.00966 0.00646657 0)
(1.00129 -0.0131429 0)
(0.995424 0.00382062 0)
(1.00324 -0.006622 0)
(0.988289 -0.0121434 0)
(0.978625 0.00615784 0)
(0.991295 0.00696808 0)
(0.989703 0.0174669 0)
(0.996493 0.0211087 0)
(1.00215 0.0126084 0)
(1.00586 0.0177214 0)
(1.00716 0.00878487 0)
(1.00686 0.00537038 0)
(1.00392 0.00495218 0)
(1.00379 0.000862355 0)
(0.999851 0.0022217 0)
(1.00282 0.0043504 0)
(1.00024 -0.0105104 0)
(0.992407 0.00811091 0)
(0.998911 0.00559631 0)
(1.00915 0.0061582 0)
(1.00094 -0.0125045 0)
(0.9953 0.00344764 0)
(1.0031 -0.00603819 0)
(0.989101 -0.0116637 0)
(0.979276 0.0061411 0)
(0.991529 0.00693291 0)
(0.990216 0.0165831 0)
(0.996226 0.0207524 0)
(1.00216 0.0124629 0)
(1.00561 0.0168679 0)
(1.00662 0.00936093 0)
(1.00663 0.00519417 0)
(1.00373 0.00532361 0)
(1.00361 0.00166494 0)
(1.00024 0.0022112 0)
(1.00271 0.00425242 0)
(1.00027 -0.0101532 0)
(0.992757 0.00786884 0)
(0.998853 0.00551322 0)
(1.00873 0.00584029 0)
(1.00062 -0.0118437 0)
(0.99515 0.00304928 0)
(1.00299 -0.00546113 0)
(0.989915 -0.0111796 0)
(0.979911 0.00612451 0)
(0.991765 0.00693165 0)
(0.990784 0.0156802 0)
(0.995912 0.0203648 0)
(1.00217 0.0123492 0)
(1.00536 0.0160132 0)
(1.00611 0.00988882 0)
(1.0064 0.00511946 0)
(1.00364 0.00555569 0)
(1.00342 0.00250354 0)
(1.00063 0.00227964 0)
(1.00262 0.00415035 0)
(1.00025 -0.00978557 0)
(0.993099 0.00761397 0)
(0.998813 0.00544725 0)
(1.00842 0.0055131 0)
(1.00034 -0.0111556 0)
(0.994996 0.00262774 0)
(1.00288 -0.00489151 0)
(0.990696 -0.0106859 0)
(0.980514 0.00609854 0)
(0.991985 0.00695842 0)
(0.991361 0.0147756 0)
(0.995536 0.0199467 0)
(1.00213 0.0122709 0)
(1.00512 0.0151625 0)
(1.00563 0.0103531 0)
(1.00614 0.00514539 0)
(1.00366 0.00564685 0)
(1.00327 0.00331219 0)
(1.00102 0.00245211 0)
(1.00256 0.00404512 0)
(1.00018 -0.00940857 0)
(0.993418 0.00734629 0)
(0.998801 0.00539485 0)
(1.00818 0.00517679 0)
(1.00014 -0.0104408 0)
(0.994872 0.00219192 0)
(1.00271 -0.0043434 0)
(0.991404 -0.010174 0)
(0.981085 0.0060627 0)
(0.992178 0.00701734 0)
(0.991928 0.0138795 0)
(0.99513 0.0194856 0)
(1.00202 0.0122312 0)
(1.00491 0.0143152 0)
(1.00519 0.0107444 0)
(1.00587 0.00528584 0)
(1.00378 0.0056345 0)
(1.00318 0.00405453 0)
(1.00139 0.00276964 0)
(1.00251 0.0039381 0)
(1.00008 -0.00902251 0)
(0.99371 0.00706369 0)
(0.998825 0.00535417 0)
(1.008 0.00483334 0)
(1.00002 -0.00970267 0)
(0.994811 0.00174983 0)
(1.00246 -0.00381762 0)
(0.992015 -0.00964619 0)
(0.981632 0.00600458 0)
(0.99234 0.00710697 0)
(0.992481 0.0130057 0)
(0.994745 0.0189748 0)
(1.00187 0.0122147 0)
(1.00477 0.0134765 0)
(1.00482 0.0110409 0)
(1.00561 0.0055393 0)
(1.00398 0.00553652 0)
(1.00318 0.00467538 0)
(1.00169 0.00323255 0)
(1.00247 0.00382887 0)
(0.999958 -0.00862425 0)
(0.993973 0.00676401 0)
(0.998882 0.00531972 0)
(1.00784 0.00447911 0)
(0.999985 -0.00894384 0)
(0.994833 0.00131351 0)
(1.00212 -0.0033174 0)
(0.99252 -0.00909346 0)
(0.982169 0.00590757 0)
(0.992472 0.00721603 0)
(0.993027 0.0121664 0)
(0.994428 0.0184054 0)
(1.00165 0.0122278 0)
(1.0047 0.0126659 0)
(1.00451 0.0112209 0)
(1.00533 0.00589458 0)
(1.00422 0.00539587 0)
(1.00327 0.00512713 0)
(1.00194 0.00380788 0)
(1.00242 0.00371724 0)
(0.999834 -0.00821223 0)
(0.994214 0.00644407 0)
(0.998961 0.00529034 0)
(1.00769 0.00411846 0)
(1.00002 -0.00817545 0)
(0.994945 0.000902562 0)
(1.00171 -0.00285318 0)
(0.992934 -0.00850864 0)
(0.982714 0.0057834 0)
(0.992582 0.00733968 0)
(0.993565 0.0113629 0)
(0.994209 0.0177667 0)
(1.00139 0.0122593 0)
(1.00469 0.011906 0)
(1.00427 0.0112649 0)
(1.00503 0.00632753 0)
(1.00446 0.00527117 0)
(1.00344 0.00539879 0)
(1.00211 0.0044506 0)
(1.00237 0.00360377 0)
(0.999728 -0.00778682 0)
(0.994447 0.00610242 0)
(0.999043 0.00526842 0)
(1.0075 0.00375783 0)
(1.00009 -0.00740499 0)
(0.995139 0.000527524 0)
(1.00126 -0.00242401 0)
(0.993281 -0.00788599 0)
(0.983285 0.00562473 0)
(0.99268 0.00746 0)
(0.994094 0.0106083 0)
(0.994097 0.0170734 0)
(1.00108 0.0122905 0)
(1.0047 0.011199 0)
(1.00408 0.0111732 0)
(1.00469 0.00679771 0)
(1.00464 0.00521335 0)
(1.00368 0.00548688 0)
(1.00224 0.00505437 0)
(1.0023 0.00348868 0)
(0.999653 -0.00734973 0)
(0.994686 0.0057419 0)
(0.999112 0.00525115 0)
(1.00727 0.0034002 0)
(1.00017 -0.00664052 0)
(0.995395 0.000207312 0)
(1.0008 -0.00204091 0)
(0.993591 -0.00723198 0)
(0.983895 0.00544015 0)
(0.992783 0.00757593 0)
(0.994612 0.00991806 0)
(0.994087 0.0163245 0)
(1.00071 0.0123135 0)
(1.00471 0.0105679 0)
(1.00393 0.0109584 0)
(1.00432 0.00727672 0)
(1.00473 0.00524555 0)
(1.00394 0.00543644 0)
(1.00235 0.00554743 0)
(1.00222 0.00337013 0)
(0.999613 -0.00689881 0)
(0.994943 0.0053636 0)
(0.999153 0.00523882 0)
(1.00699 0.00304131 0)
(1.00023 -0.00589703 0)
(0.995686 -5.03556e-05 0)
(1.00039 -0.00170174 0)
(0.993891 -0.00656422 0)
(0.984555 0.00523164 0)
(0.992902 0.0076783 0)
(0.995115 0.00929246 0)
(0.994166 0.0155269 0)
(1.00031 0.0123217 0)
(1.00467 0.0100271 0)
(1.00382 0.0106431 0)
(1.00392 0.00771582 0)
(1.0047 0.00538763 0)
(1.00421 0.00532193 0)
(1.00247 0.00586032 0)
(1.00213 0.00324728 0)
(0.999608 -0.00643535 0)
(0.995227 0.00496866 0)
(0.999161 0.00523113 0)
(1.00668 0.00269326 0)
(1.00026 -0.00519118 0)
(0.995986 -0.000234782 0)
(1.00003 -0.00140964 0)
(0.994201 -0.0058828 0)
(0.985267 0.00501507 0)
(0.993049 0.00774988 0)
(0.995602 0.00873348 0)
(0.994327 0.014699 0)
(0.999885 0.0122984 0)
(1.00458 0.00958072 0)
(1.00374 0.0102496 0)
(1.00351 0.0080735 0)
(1.00454 0.00561696 0)
(1.00443 0.00520645 0)
(1.00263 0.00596697 0)
(1.00203 0.00312086 0)
(0.99963 -0.00596121 0)
(0.99554 0.00455909 0)
(0.999138 0.00522122 0)
(1.00633 0.00236672 0)
(1.00026 -0.0045241 0)
(0.996275 -0.000339818 0)
(0.999728 -0.0011629 0)
(0.994534 -0.00519687 0)
(0.986027 0.00479088 0)
(0.993225 0.00778364 0)
(0.996074 0.00825073 0)
(0.994561 0.0138558 0)
(0.999459 0.012224 0)
(1.00443 0.009227 0)
(1.00369 0.00979628 0)
(1.00311 0.00835163 0)
(1.00429 0.00589275 0)
(1.0046 0.0051374 0)
(1.00283 0.00592491 0)
(1.00191 0.00298946 0)
(0.999671 -0.00548261 0)
(0.995879 0.00414935 0)
(0.999091 0.00521216 0)
(1.00597 0.00206181 0)
(1.00024 -0.00391915 0)
(0.996539 -0.00037232 0)
(0.999486 -0.000942898 0)
(0.994887 -0.00452533 0)
(0.986822 0.00457353 0)
(0.993432 0.00778496 0)
(0.996529 0.00782889 0)
(0.99486 0.0130087 0)
(0.999055 0.0121078 0)
(1.00422 0.00895824 0)
(1.00368 0.00931158 0)
(1.00276 0.0085347 0)
(1.00395 0.00620094 0)
(1.00468 0.0051389 0)
(1.00308 0.00579994 0)
(1.0018 0.00285284 0)
(0.999719 -0.0049943 0)
(0.996239 0.00372986 0)
(0.99903 0.00519926 0)
(1.0056 0.00179876 0)
(1.0002 -0.00337476 0)
(0.996777 -0.000337293 0)
(0.999292 -0.000752691 0)
(0.995259 -0.00388203 0)
(0.987644 0.0043734 0)
(0.99366 0.0077564 0)
(0.996961 0.0074735 0)
(0.995223 0.012173 0)
(0.998691 0.0119409 0)
(1.00396 0.00877084 0)
(1.00371 0.00883158 0)
(1.00248 0.00861978 0)
(1.00357 0.00651744 0)
(1.00468 0.0051934 0)
(1.00334 0.00566002 0)
(1.00168 0.0027099 0)
(0.999768 -0.00450336 0)
(0.996613 0.00332092 0)
(0.998965 0.00517101 0)
(1.00523 0.00157205 0)
(1.00015 -0.00289801 0)
(0.996986 -0.000243473 0)
(0.999134 -0.000578906 0)
(0.995642 -0.00326581 0)
(0.988478 0.00418633 0)
(0.993911 0.0076699 0)
(0.997366 0.00717639 0)
(0.995637 0.0113608 0)
(0.998384 0.0117087 0)
(1.00366 0.00864915 0)
(1.00375 0.00836339 0)
(1.00228 0.00860494 0)
(1.00316 0.00683247 0)
(1.0046 0.00529062 0)
(1.00358 0.00555512 0)
(1.00156 0.00256614 0)
(0.999812 -0.00401971 0)
(0.996995 0.00291776 0)
(0.998901 0.00513687 0)
(1.00486 0.00139789 0)
(1.00011 -0.0024972 0)
(0.997177 -0.00011412 0)
(0.999007 -0.00039949 0)
(0.99603 -0.00270222 0)
(0.989314 0.00402004 0)
(0.994174 0.00756861 0)
(0.997742 0.00691714 0)
(0.996095 0.0105925 0)
(0.998143 0.0114207 0)
(1.00332 0.00858363 0)
(1.00382 0.007949 0)
(1.00218 0.00847668 0)
(1.00276 0.00714127 0)
(1.00446 0.0054175 0)
(1.00379 0.00547335 0)
(1.00145 0.00241418 0)
(0.999845 -0.0035297 0)
(0.99738 0.00252815 0)
(0.998846 0.0050661 0)
(1.00449 0.00128168 0)
(1.00008 -0.00214353 0)
(0.997355 5.42448e-05 0)
(0.998902 -0.000213181 0)
(0.996416 -0.00217119 0)
(0.99015 0.00385482 0)
(0.99445 0.00743503 0)
(0.998078 0.00671262 0)
(0.996584 0.0098492 0)
(0.997977 0.0110795 0)
(1.00295 0.00855578 0)
(1.00387 0.00761218 0)
(1.00217 0.00827284 0)
(1.00238 0.00739462 0)
(1.00423 0.00560996 0)
(1.00396 0.0053966 0)
(1.00135 0.00226325 0)
(0.99987 -0.00305766 0)
(0.997759 0.00216336 0)
(0.9988 0.00497225 0)
(1.00413 0.00123255 0)
(1.00006 -0.00186101 0)
(0.997527 0.000235507 0)
(0.998817 -1.31479e-05 0)
(0.996794 -0.00168961 0)
(0.990971 0.00372625 0)
(0.994741 0.0072684 0)
(0.998373 0.0065301 0)
(0.997089 0.00917268 0)
(0.997897 0.0106667 0)
(1.00258 0.00852894 0)
(1.0039 0.00734131 0)
(1.00224 0.00805303 0)
(1.00207 0.0076138 0)
(1.00396 0.00582307 0)
(1.00406 0.00534069 0)
(1.00125 0.00210835 0)
(0.99988 -0.00258603 0)
(0.998134 0.00181873 0)
(0.998772 0.00483052 0)
(1.00378 0.0012345 0)
(1.00005 -0.00159633 0)
(0.997699 0.000411091 0)
(0.998745 0.000201728 0)
(0.997166 -0.00124361 0)
(0.991787 0.00358447 0)
(0.995038 0.00709215 0)
(0.998633 0.00636981 0)
(0.997594 0.00853593 0)
(0.997889 0.0102158 0)
(1.00221 0.00847275 0)
(1.00391 0.00709843 0)
(1.0024 0.00771598 0)
(1.0018 0.0078087 0)
(1.00361 0.00618538 0)
(1.0041 0.00531486 0)
(1.00116 0.00195346 0)
(0.99988 -0.00212971 0)
(0.998491 0.00150673 0)
(0.998758 0.00464625 0)
(1.00344 0.00129641 0)
(1.00005 -0.00136835 0)
(0.997874 0.000572725 0)
(0.99869 0.000434594 0)
(0.997518 -0.000832267 0)
(0.992582 0.0034601 0)
(0.995354 0.0068833 0)
(0.99885 0.0062342 0)
(0.998092 0.00795537 0)
(0.997962 0.00972927 0)
(1.00185 0.0083774 0)
(1.00386 0.00687891 0)
(1.00264 0.00722366 0)
(1.0017 0.00761931 0)
(1.00321 0.00641156 0)
(1.00397 0.0053682 0)
(1.00108 0.00179944 0)
(0.999866 -0.00169281 0)
(0.998836 0.00123119 0)
(0.998768 0.00441562 0)
(1.0031 0.00140094 0)
(1.00004 -0.00114029 0)
(0.998058 0.000712829 0)
(0.998647 0.000670229 0)
(0.997854 -0.000455541 0)
(0.993361 0.00334177 0)
(0.995678 0.00665831 0)
(0.99904 0.00612252 0)
(0.998568 0.00741468 0)
(0.998094 0.00921718 0)
(1.00152 0.00826508 0)
(1.00374 0.00663895 0)
(1.00282 0.00674475 0)
(1.00167 0.00723992 0)
(1.00291 0.00637495 0)
(1.00393 0.0053963 0)
(1.001 0.00164896 0)
(0.999842 -0.00127753 0)
(0.999152 0.00100007 0)
(0.998796 0.0041346 0)
(1.00278 0.0015299 0)
(1.00005 -0.00090765 0)
(0.998243 0.000830959 0)
(0.99862 0.000909967 0)
(0.998162 -8.3385e-05 0)
(0.994111 0.00321245 0)
(0.996027 0.00641529 0)
(0.99919 0.00599865 0)
(0.999015 0.00694116 0)
(0.998305 0.00869624 0)
(1.0012 0.0081059 0)
(1.00355 0.0064921 0)
(1.00303 0.00640931 0)
(1.00173 0.00708022 0)
(1.00264 0.00660904 0)
(1.00384 0.00570186 0)
(1.00093 0.00150652 0)
(0.999805 -0.000900515 0)
(0.999445 0.00081216 0)
(0.998849 0.00384393 0)
(1.00247 0.0016604 0)
(1.00004 -0.000669866 0)
(0.998438 0.000929838 0)
(0.998608 0.00114546 0)
(0.998446 0.000258219 0)
(0.994835 0.00311068 0)
(0.996383 0.00615838 0)
(0.999329 0.00587954 0)
(0.99943 0.00652679 0)
(0.998547 0.00815128 0)
(1.00095 0.00794239 0)
(1.00334 0.00649338 0)
(1.00323 0.00619133 0)
(1.00193 0.00693768 0)
(1.00251 0.00677577 0)
(1.00367 0.005994 0)
(1.00087 0.00136729 0)
(0.999762 -0.000549317 0)
(0.999705 0.000682079 0)
(0.998918 0.0035186 0)
(1.00219 0.00177246 0)
(1.00003 -0.000404627 0)
(0.998633 0.00101857 0)
(0.998612 0.00136363 0)
(0.9987 0.00060344 0)
(0.995522 0.00300833 0)
(0.996757 0.00588716 0)
(0.999438 0.0057553 0)
(0.999796 0.00613709 0)
(0.998859 0.00766832 0)
(1.00078 0.00778259 0)
(1.00311 0.006539 0)
(1.0034 0.00597913 0)
(1.00216 0.00661112 0)
(1.0024 0.00664191 0)
(1.0034 0.00603903 0)
(1.00081 0.00124564 0)
(0.999712 -0.000250754 0)
(0.999934 0.000606362 0)
(0.999007 0.00319725 0)
(1.00193 0.00186758 0)
(1 -0.000153105 0)
(0.99883 0.00110267 0)
(0.998639 0.0015679 0)
(0.99893 0.000929334 0)
(0.996168 0.00292965 0)
(0.997137 0.00562017 0)
(0.999542 0.00563092 0)
(1.00014 0.00584732 0)
(0.999202 0.00721277 0)
(1.00069 0.0075838 0)
(1.00284 0.0065652 0)
(1.00345 0.00580788 0)
(1.00242 0.00629271 0)
(1.00244 0.00656545 0)
(1.00324 0.00619765 0)
(1.00076 0.00112912 0)
(0.999662 1.36769e-05 0)
(1.00013 0.000582586 0)
(0.999102 0.00287129 0)
(1.0017 0.00191398 0)
(0.99998 0.000114775 0)
(0.999026 0.00119266 0)
(0.998681 0.00174621 0)
(0.99913 0.00124779 0)
(0.99677 0.00287906 0)
(0.997532 0.00534824 0)
(0.999637 0.00552362 0)
(1.00042 0.00559286 0)
(0.999575 0.00677654 0)
(1.00067 0.0073329 0)
(1.00258 0.00653859 0)
(1.00348 0.00576043 0)
(1.00271 0.00608968 0)
(1.00255 0.00643638 0)
(1.00307 0.00619887 0)
(1.00071 0.00103063 0)
(0.99961 0.000231348 0)
(1.00029 0.00059563 0)
(0.999208 0.00256768 0)
(1.00151 0.00193904 0)
(0.999952 0.00036609 0)
(0.999216 0.00127534 0)
(0.99875 0.00190803 0)
(0.999312 0.00155433 0)
(0.997321 0.0028608 0)
(0.99793 0.00508433 0)
(0.99974 0.00541325 0)
(1.00068 0.00542431 0)
(0.99995 0.00639414 0)
(1.00073 0.00701252 0)
(1.00237 0.00649531 0)
(1.00345 0.00575655 0)
(1.00294 0.00584812 0)
(1.00269 0.00617287 0)
(1.00298 0.00611978 0)
(1.00067 0.000942363 0)
(0.999563 0.000410249 0)
(1.00042 0.000644259 0)
(0.999314 0.00229325 0)
(1.00135 0.00192348 0)
(0.99993 0.0006095 0)
(0.999407 0.00137211 0)
(0.998838 0.00205204 0)
(0.999472 0.00182959 0)
(0.99782 0.0028765 0)
(0.998335 0.00484243 0)
(0.999862 0.00529824 0)
(1.00088 0.00528814 0)
(1.0003 0.00602911 0)
(1.00084 0.00667958 0)
(1.00221 0.00639279 0)
(1.00337 0.00572609 0)
(1.00313 0.00565875 0)
(1.0029 0.00593246 0)
(1.00297 0.00604378 0)
(1.00064 0.000868765 0)
(0.999522 0.000549888 0)
(1.00053 0.000706531 0)
(0.999419 0.00205789 0)
(1.00122 0.0018928 0)
(0.999912 0.00082428 0)
(0.999587 0.0014589 0)
(0.998947 0.00217179 0)
(0.999624 0.00208907 0)
(0.99827 0.00292008 0)
(0.99873 0.00461772 0)
(1 0.00515514 0)
(1.00106 0.00516572 0)
(1.00062 0.00573762 0)
(1.001 0.0063561 0)
(1.0021 0.00623416 0)
(1.00327 0.00568445 0)
(1.00326 0.00554418 0)
(1.00312 0.0056804 0)
(1.00302 0.00585956 0)
(1.0006 0.000807625 0)
(0.999487 0.000654262 0)
(1.00061 0.000777035 0)
(0.999518 0.00187051 0)
(1.00112 0.00184111 0)
(0.999904 0.00100827 0)
(0.999768 0.00154906 0)
(0.999079 0.0022796 0)
(0.999767 0.00231602 0)
(0.998666 0.00297678 0)
(0.999111 0.00442007 0)
(1.00016 0.00500375 0)
(1.00122 0.00505628 0)
(1.00091 0.00548158 0)
(1.00119 0.00603311 0)
(1.00205 0.00604555 0)
(1.0032 0.0056047 0)
(1.00334 0.00545782 0)
(1.0033 0.00547264 0)
(1.00316 0.00563223 0)
(1.00057 0.000757054 0)
(0.999461 0.000731489 0)
(1.00067 0.000847493 0)
(0.999611 0.00171863 0)
(1.00106 0.00178689 0)
(0.999907 0.00117258 0)
(0.999941 0.0016251 0)
(0.999227 0.00235274 0)
(0.99991 0.0025094 0)
(0.99902 0.00305524 0)
(0.999472 0.00425143 0)
(1.00034 0.00483957 0)
(1.00136 0.00493382 0)
(1.00117 0.00526562 0)
(1.00139 0.00574843 0)
(1.00205 0.00585661 0)
(1.00314 0.00549189 0)
(1.00339 0.00535814 0)
(1.00344 0.00534565 0)
(1.00335 0.00537458 0)
(1.00055 0.000716949 0)
(0.999443 0.00078584 0)
(1.00072 0.000910264 0)
(0.999695 0.00160444 0)
(1.00101 0.00173308 0)
(0.999921 0.00130719 0)
(1.00011 0.00169326 0)
(0.999396 0.00240885 0)
(1.00006 0.0026749 0)
(0.999331 0.00313767 0)
(0.999804 0.00411016 0)
(1.00053 0.00466934 0)
(1.00151 0.00480799 0)
(1.00141 0.00508459 0)
(1.00161 0.00547679 0)
(1.00208 0.00565321 0)
(1.0031 0.00537125 0)
(1.00345 0.00521623 0)
(1.00353 0.0052499 0)
(1.00353 0.00515779 0)
(1.00053 0.000684255 0)
(0.999431 0.000823987 0)
(1.00075 0.000963276 0)
(0.999773 0.00151663 0)
(1.00099 0.0016879 0)
(0.999947 0.0014253 0)
(1.00028 0.00175884 0)
(0.99958 0.00243658 0)
(1.00021 0.00279332 0)
(0.999607 0.00321432 0)
(1.00011 0.00399998 0)
(1.00072 0.00451006 0)
(1.00165 0.00467129 0)
(1.00162 0.00491395 0)
(1.00182 0.00522982 0)
(1.00216 0.00544715 0)
(1.00306 0.00526491 0)
(1.00352 0.00505721 0)
(1.00361 0.00512913 0)
(1.00365 0.00503395 0)
(1.00051 0.000658569 0)
(0.999427 0.00084862 0)
(1.00078 0.00100771 0)
(0.999844 0.00145092 0)
(1.00098 0.00165151 0)
(0.999984 0.00153091 0)
(1.00043 0.00181585 0)
(0.999777 0.00243953 0)
(1.00038 0.00287126 0)
(0.999857 0.00328595 0)
(1.00038 0.00391326 0)
(1.00091 0.00436007 0)
(1.0018 0.00452005 0)
(1.00183 0.00475283 0)
(1.00203 0.00502125 0)
(1.00227 0.00522989 0)
(1.00304 0.00514934 0)
(1.00358 0.00491906 0)
(1.00372 0.00494892 0)
(1.00372 0.00495186 0)
(1.00049 0.000639054 0)
(0.999428 0.000863133 0)
(1.0008 0.00104359 0)
(0.99991 0.00140395 0)
(1.001 0.0016218 0)
(1.00003 0.0016246 0)
(1.00058 0.00187406 0)
(0.999981 0.00243113 0)
(1.00057 0.00290001 0)
(1.00009 0.00332998 0)
(1.00062 0.00384138 0)
(1.00109 0.00422251 0)
(1.00195 0.00437278 0)
(1.00202 0.00459153 0)
(1.00223 0.00482793 0)
(1.0024 0.00501976 0)
(1.00304 0.00500817 0)
(1.0036 0.00481982 0)
(1.00385 0.00475006 0)
(1.00379 0.00484171 0)
(1.00047 0.000624701 0)
(0.999434 0.000869164 0)
(1.00081 0.00107363 0)
(0.99997 0.00137121 0)
(1.00102 0.00159931 0)
(1.00009 0.0017051 0)
(1.00071 0.00193285 0)
(1.00018 0.0024173 0)
(1.00076 0.00288244 0)
(1.00032 0.00333838 0)
(1.00083 0.00377592 0)
(1.00126 0.00410251 0)
(1.0021 0.00422924 0)
(1.00221 0.00442539 0)
(1.00243 0.00463601 0)
(1.00255 0.004829 0)
(1.00309 0.00484425 0)
(1.0036 0.00472819 0)
(1.00397 0.00458111 0)
(1.00389 0.00466794 0)
(1.00046 0.000613888 0)
(0.999445 0.000870615 0)
(1.00082 0.00109711 0)
(1.00003 0.00134989 0)
(1.00106 0.00158159 0)
(1.00015 0.0017701 0)
(1.00083 0.00198756 0)
(1.00037 0.00240409 0)
(1.00097 0.00283953 0)
(1.00054 0.00330986 0)
(1.00103 0.0037049 0)
(1.00142 0.00399354 0)
(1.00224 0.00408949 0)
(1.00239 0.00426399 0)
(1.00263 0.00444406 0)
(1.00272 0.0046429 0)
(1.00316 0.00467497 0)
(1.00361 0.00461345 0)
(1.00404 0.00445767 0)
(1.00402 0.0044716 0)
(1.00045 0.000606565 0)
(0.999461 0.000867028 0)
(1.00083 0.00111677 0)
(1.00008 0.00133672 0)
(1.00111 0.00156496 0)
(1.00023 0.00181592 0)
(1.00095 0.00203605 0)
(1.00055 0.00239707 0)
(1.00117 0.00278006 0)
(1.00077 0.00324956 0)
(1.00123 0.00362367 0)
(1.00156 0.00388902 0)
(1.00236 0.0039576 0)
(1.00256 0.00410888 0)
(1.00283 0.00425453 0)
(1.00289 0.00445007 0)
(1.00326 0.00450415 0)
(1.00364 0.00447402 0)
(1.00408 0.0043529 0)
(1.00414 0.00430158 0)
(1.00044 0.000601489 0)
(0.99948 0.000860826 0)
(1.00084 0.00113014 0)
(1.00012 0.00133108 0)
(1.00116 0.00154624 0)
(1.00032 0.0018422 0)
(1.00105 0.00206813 0)
(1.00071 0.00239423 0)
(1.00137 0.00271544 0)
(1.001 0.00316253 0)
(1.00142 0.00352991 0)
(1.0017 0.00378746 0)
(1.00248 0.00383021 0)
(1.00272 0.00395971 0)
(1.00301 0.00407178 0)