/*--------------------------------*- C++ -*----------------------------------*\
| =========                 |                                                 |
| \\      /  F ield         | OpenFOAM: The Open Source CFD Toolbox           |
|  \\    /   O peration     | Version:  v1912                                 |
|   \\  /    A nd           | Website:  www.openfoam.com                      |
|    \\/     M anipulation  |                                                 |
\*---------------------------------------------------------------------------*/
FoamFile
{
    version     2.0;
    format      ascii;
    class       volScalarField;
    location    "5.1";
    object      p;
}
// * * * * * * * * * * * * * * * * * * * * * * * * * * * * * * * * * * * * * //

dimensions      [0 2 -2 0 0 0 0];


internalField   nonuniform List<scalar> 
9600
(
1.72983e-10
-0.000959491
0.00193555
0.000834281
0.0014914
-3.26668e-05
-0.000886091
0.000658335
0.000380729
0.000473671
0.00267389
0.00364022
0.00684578
0.0068438
0.0102032
0.00962671
0.011981
0.0154808
0.0165773
0.0213111
-3.00388e-06
-0.000959058
0.00193888
0.000824231
0.00149737
-4.90575e-05
-0.000886623
0.000667315
0.000373265
0.00051789
0.00268067
0.00361679
0.00685175
0.00676609
0.0102185
0.00956024
0.0119806
0.0151098
0.0166123
0.0205165
-6.59815e-06
-0.000958201
0.00194213
0.000810374
0.00150416
-6.47566e-05
-0.00088487
0.000675111
0.000367583
0.000557684
0.00267957
0.00358384
0.00686002
0.00669675
0.0102242
0.00949622
0.0119603
0.0149164
0.0165901
0.0197322
-1.03879e-05
-0.000957649
0.00194517
0.000792084
0.00150301
-7.64214e-05
-0.000882108
0.000681673
0.000364685
0.000586377
0.0026768
0.00354692
0.00685963
0.00661616
0.0102097
0.00942714
0.0119305
0.0147172
0.0165019
0.0190987
-1.45705e-05
-0.000957435
0.00194898
0.000768393
0.00149453
-8.31297e-05
-0.000878402
0.000687511
0.000363433
0.00060826
0.00267561
0.00350642
0.00684913
0.00652658
0.0101888
0.00935317
0.0119052
0.0144904
0.0163943
0.0185069
-1.91962e-05
-0.000957272
0.00195308
0.000739444
0.00148278
-8.46542e-05
-0.000873833
0.000692399
0.000363162
0.000617393
0.00267514
0.00346313
0.00683373
0.00643476
0.0101656
0.00928119
0.0118756
0.0142685
0.0162597
0.0179366
-2.42255e-05
-0.000956951
0.00195624
0.000706068
0.00147117
-8.17173e-05
-0.000868337
0.000696315
0.000363813
0.000642758
0.00267417
0.00341702
0.00681959
0.00634143
0.0101365
0.00921279
0.0118318
0.0140536
0.0160817
0.017388
-2.96284e-05
-0.00095642
0.00195738
0.000668958
0.00146193
-7.47283e-05
-0.000861531
0.000699486
0.000365267
0.0006701
0.00267248
0.00336689
0.00680846
0.00624638
0.0100987
0.00914924
0.0117715
0.0138447
0.0158588
0.0168676
-3.54021e-05
-0.000955775
0.00195584
0.000628436
0.00145627
-6.37708e-05
-0.000853
0.000702301
0.000367385
0.000698916
0.00267015
0.0033109
0.00679861
0.00615108
0.0100497
0.00909362
0.0116919
0.0136417
0.0155932
0.0163714
-4.1561e-05
-0.000955159
0.00195156
0.000584719
0.00145425
-4.86486e-05
-0.000842548
0.000705147
0.000370081
0.000728647
0.0026671
0.00324871
0.00678823
0.00605746
0.00998775
0.00904651
0.0115901
0.0134442
0.0152851
0.0158948
-4.81226e-05
-0.00095464
0.001945
0.000538299
0.00145483
-2.98128e-05
-0.000830275
0.000708195
0.000373173
0.000759062
0.00266339
0.00318282
0.00677593
0.00596678
0.00991237
0.00900636
0.011464
0.0132509
0.0149361
0.0154301
-5.50921e-05
-0.000954159
0.00193703
0.000490137
0.00145641
-8.52885e-06
-0.000816477
0.000711452
0.000376343
0.000790166
0.00265946
0.00311793
0.00676024
0.00587946
0.00982368
0.0089707
0.0113115
0.0130598
0.0145499
0.0149688
-6.24569e-05
-0.000953551
0.00192849
0.000441506
0.00145742
1.41227e-05
-0.00080153
0.00071492
0.000379241
0.000822067
0.00265561
0.0030587
0.00673964
0.00579556
0.00972198
0.00893712
0.0111311
0.0128687
0.0141316
0.0145015
-7.01991e-05
-0.00095262
0.00192003
0.000393632
0.00145668
3.41975e-05
-0.000785796
0.000718664
0.000381539
0.000854826
0.00265196
0.00300765
0.00671252
0.00571543
0.00960684
0.00890399
0.0109227
0.0126748
0.0136883
0.014019
-7.83039e-05
-0.000951211
0.00191191
0.000347403
0.00145347
5.073e-05
-0.000769565
0.00072279
0.000383006
0.000888374
0.00264843
0.00296494
0.00667701
0.00563978
0.00947723
0.00887093
0.0106866
0.012474
0.0132286
0.0135151
-8.67619e-05
-0.000949252
0.00190405
0.000303256
0.00144743
6.47037e-05
-0.000753131
0.000727367
0.000383453
0.00092258
0.00264484
0.00292929
0.00663136
0.00556955
0.00933196
0.00883771
0.010424
0.0122607
0.0127615
0.0129877
-9.55727e-05
-0.000946774
0.00189613
0.000261221
0.00143844
7.6245e-05
-0.000736834
0.000732445
0.000382578
0.00095727
0.00264112
0.00289919
0.0065745
0.00550573
0.00916969
0.00880294
0.010138
0.0120285
0.0122963
0.0124381
-0.000104743
-0.000943894
0.00188778
0.000221087
0.00142652
8.56809e-05
-0.000721068
0.000738091
0.000380001
0.000992215
0.00263714
0.00287347
0.00650628
0.00544875
0.00898904
0.00876489
0.00983275
0.0117709
0.0118417
0.0118692
-0.000114278
-0.000940784
0.00187859
0.000182565
0.00141175
9.34243e-05
-0.000706256
0.000744388
0.000375372
0.00102711
0.0026326
0.00285115
0.00642703
0.005398
0.00878958
0.00872186
0.00951257
0.0114819
0.0114048
0.0112849
-0.000124177
-0.000937645
0.00186821
0.000145423
0.00139418
9.98892e-05
-0.000692802
0.000751465
0.000368405
0.00106139
0.00262757
0.00283094
0.00633686
0.00535247
0.00857186
0.00867135
0.00918183
0.0111579
0.0109904
0.0106912
-0.000134435
-0.000934691
0.00185629
0.000109542
0.00137381
0.000105459
-0.000681114
0.000759443
0.000358941
0.0010943
0.00262231
0.00281101
0.00623583
0.005311
0.0083364
0.00861023
0.00884572
0.0107971
0.0105996
0.0100948
-0.000145035
-0.000932128
0.00184257
7.49061e-05
0.00135055
0.000110483
-0.000671634
0.000768368
0.000346942
0.00112494
0.00261684
0.00278962
0.00612416
0.00527184
0.00808403
0.00853515
0.0085089
0.0103996
0.0102298
0.00950478
-0.000155941
-0.00093015
0.00182678
4.15753e-05
0.00132424
0.000115278
-0.000664818
0.000778277
0.000332511
0.00115221
0.00261113
0.00276524
0.00600207
0.00523329
0.00781588
0.00844277
0.00817569
0.00996631
0.00987652
0.00893273
-0.000167097
-0.000928953
0.00180867
9.67071e-06
0.00129463
0.000120191
-0.000661089
0.000789097
0.000315874
0.00117485
0.00260543
0.00273651
0.00586961
0.00519456
0.0075333
0.00832943
0.00785075
0.00949866
0.00953215
0.00839144
-0.000178443
-0.000928719
0.00178799
-2.06713e-05
0.00126141
0.000125576
-0.000660822
0.000800578
0.000297376
0.0011915
0.00260043
0.00270246
0.0057266
0.00515513
0.00723808
0.00819078
0.00753837
0.00900035
0.00918632
0.0078931
-0.000189918
-0.000929626
0.00176447
-4.93281e-05
0.00122427
0.000131753
-0.000664441
0.000812382
0.000277727
0.0012006
0.00259692
0.00266223
0.00557237
0.00511446
0.006932
0.00802268
0.00724279
0.00847677
0.00882615
0.00744714
-0.000201435
-0.000931845
0.00173783
-7.61721e-05
0.00118284
0.000139129
-0.00067227
0.000823985
0.000257887
0.00120033
0.00259569
0.00261563
0.0054058
0.00507252
0.00661699
0.00782081
0.00696747
0.00793549
0.00843833
0.00705631
-0.000212894
-0.000935543
0.00170777
-0.000101038
0.00113669
0.000148179
-0.000684431
0.000834674
0.00023891
0.00118882
0.00259691
0.00256317
0.00522548
0.00502937
0.00629583
0.00758017
0.00671316
0.00738785
0.00801248
0.00671532
-0.000224208
-0.000940877
0.00167396
-0.000123689
0.00108538
0.000159313
-0.000700991
0.000843301
0.000222383
0.00116438
0.00259962
0.00250639
0.00502964
0.00498424
0.00597308
0.00729659
0.00647616
0.00684846
0.00754373
0.00640948
-0.00023529
-0.00094797
0.00163601
-0.000143827
0.00102855
0.000172795
-0.000721878
0.000848404
0.000210068
0.00112558
0.00260257
0.0024482
0.00481621
0.0049346
0.00565466
0.00696861
0.00624878
0.0063322
0.00703403
0.00611577
-0.000246038
-0.00095696
0.00159348
-0.00016107
0.000965812
0.000188676
-0.000746675
0.000848435
0.000203471
0.0010716
0.00260383
0.00239207
0.00458351
0.00487612
0.00534699
0.00659836
0.00601994
0.00585168
0.00649126
0.00580856
-0.000256344
-0.000967966
0.00154586
-0.000174869
0.000896735
0.000206785
-0.000774576
0.000841311
0.000204206
0.00100262
0.00259956
0.00234154
0.00433121
0.00480261
0.00505686
0.00619127
0.00577551
0.00541471
0.00592985
0.00546708
-0.000266139
-0.000981035
0.00149248
-0.000184574
0.000821132
0.000226684
-0.000804617
0.00082461
0.000213552
0.000919376
0.00258537
0.00230002
0.00406064
0.00470583
0.00478929
0.00575619
0.00550204
0.00502173
0.00536924
0.00508056
-0.000275375
-0.000996202
0.00143262
-0.000189552
0.000738973
0.000247656
-0.0008355
0.000795637
0.000231692
0.000824114
0.00255667
0.00226922
0.00377524
0.0045773
0.00454531
0.00530559
0.00519055
0.00466593
0.00482857
0.00465003
-0.000284003
-0.00101348
0.00136544
-0.00018927
0.000650455
0.000268496
-0.000865375
0.000752067
0.000257852
0.000720211
0.0025078
0.00224878
0.00348143
0.00441002
0.00432277
0.00485295
0.00483706
0.00433431
0.00432268
0.00418574
-0.000292036
-0.00103276
0.00128999
-0.000183395
0.000556248
0.000287484
-0.000892295
0.000692635
0.000290661
0.000611311
0.0024332
0.00223638
0.00318674
0.00419952
0.00411618
0.00441104
0.00444333
0.00401018
0.00385971
0.00370494
-0.000299561
-0.00105382
0.00120516
-0.000171733
0.000457556
0.000302352
-0.000914276
0.000616514
0.000327243
0.000502128
0.00232929
0.00222766
0.00289864
0.00394483
0.0039153
0.00399079
0.00401678
0.00367602
0.00343883
0.00323042
-0.000306723
-0.00107618
0.00110981
-0.000154335
0.000356106
0.000310302
-0.000929365
0.000523903
0.000363107
0.000397603
0.00219504
0.00221551
0.00262418
0.00364848
0.00370754
0.00359906
0.00356909
0.00332069
0.00305203
0.00277854
-0.000313781
-0.00109927
0.00100297
-0.000131797
0.000254017
0.000308423
-0.000936227
0.00041636
0.000393086
0.000301289
0.00203076
0.00219166
0.00236918
0.00331646
0.00347948
0.0032366
0.00311378
0.00294344
0.00268992
0.00235421
-0.000321052
-0.00112229
0.000883937
-0.000105621
0.00015392
0.000294326
-0.000934098
0.000296288
0.000411392
0.000214856
0.00183896
0.00214804
0.00213658
0.00295709
0.00322084
0.00289981
0.00266188
0.00254553
0.002347
0.00196338
-0.000328927
-0.00114454
0.000752396
-7.80108e-05
5.88453e-05
0.000266121
-0.000923505
0.000167064
0.000412396
0.000138348
0.00162546
0.002078
0.00192466
0.00257882
0.00292588
0.00258289
0.00222433
0.00212819
0.00201369
0.00161428
-0.000337833
-0.00116543
0.000608431
-5.26024e-05
-2.8019e-05
0.000222981
-0.000906596
3.25977e-05
0.000392225
6.9875e-05
0.00139669
0.00197763
0.00173169
0.00219099
0.00258753
0.00227219
0.00181013
0.00169957
0.00168208
0.00131074
-0.000348443
-0.00118424
0.000452703
-3.22387e-05
-0.000104152
0.000165546
-0.000886095
-0.000103362
0.000348388
6.94333e-06
0.00115702
0.0018431
0.00155436
0.00180674
0.0022088
0.00194976
0.00141931
0.0012661
0.00133672
0.00104579
-0.000361396
-0.00120035
0.00028668
-2.07621e-05
-0.000167448
9.5484e-05
-0.000866136
-0.000237254
0.000279994
-5.41054e-05
0.00091223
0.00167324
0.00138467
0.0014382
0.00180313
0.00161326
0.00105695
0.000846716
0.000960567
0.000751312
-0.000377635
-0.00121272
0.000112675
-2.25849e-05
-0.000217848
1.58809e-05
-0.000850836
-0.000366542
0.000188234
-0.000118438
0.000667099
0.00146951
0.00121734
0.00109631
0.00138753
0.00127102
0.000732348
0.000445886
0.00053173
0.00037547
-0.000398428
-0.00122051
-6.54731e-05
-4.21792e-05
-0.000257744
-6.96464e-05
-0.000842934
-0.000489979
7.5422e-05
-0.000189726
0.000424315
0.00123315
0.0010471
0.000785861
0.000970512
0.000918802
0.000420368
4.55701e-05
5.41169e-05
-7.77498e-05
-0.000424805
-0.0012234
-0.000242711
-8.38822e-05
-0.000291357
-0.00015622
-0.000844694
-0.000607599
-5.69608e-05
-0.000272919
0.000185935
0.000968541
0.000866771
0.000502676
0.000548426
0.000512534
6.54532e-05
-0.000370839
-0.000452251
-0.000506197
-0.000457747
-0.00122152
-0.00041418
-0.000150513
-0.000324958
-0.000239154
-0.000857437
-0.000720787
-0.000201435
-0.000366844
-4.63779e-05
0.000677929
0.000660954
0.000246288
0.000157127
0.000101217
-0.000297079
-0.000769305
-0.000946178
-0.00101073
-0.000497262
-0.00121615
-0.000576569
-0.000243335
-0.000363177
-0.00031703
-0.00088093
-0.000831644
-0.000357196
-0.000472898
-0.000270758
0.000368153
0.000420855
-5.60505e-06
-0.000214967
-0.000318927
-0.000687913
-0.00116955
-0.00142409
-0.00152522
-0.000543432
-0.00120939
-0.000727279
-0.000359354
-0.000412836
-0.000390977
-0.000910904
-0.000942877
-0.000524733
-0.000591807
-0.000486852
4.33375e-05
0.000144633
-0.000261394
-0.000570624
-0.000745569
-0.00109975
-0.00157799
-0.00188194
-0.00200759
-0.000596144
-0.00120355
-0.000864486
-0.000493194
-0.000479956
-0.000464233
-0.000946529
-0.00105446
-0.00070444
-0.000729922
-0.00069739
-0.000283519
-0.000160183
-0.000532115
-0.000919304
-0.00116977
-0.0015105
-0.00197326
-0.00230693
-0.00244138
-0.000654715
-0.00120226
-0.000987334
-0.00063701
-0.000568403
-0.000543447
-0.000983151
-0.00116429
-0.000896367
-0.000891473
-0.000903621
-0.000601073
-0.000488634
-0.000825071
-0.00125458
-0.00157535
-0.0019187
-0.00235573
-0.00271842
-0.00287275
-0.000718799
-0.00120798
-0.00109567
-0.00078439
-0.000680461
-0.000634521
-0.00102331
-0.00127151
-0.00109912
-0.00107713
-0.00111024
-0.000907123
-0.000825446
-0.00113374
-0.00158578
-0.00196911
-0.00233425
-0.00273584
-0.00311226
-0.00330873
-0.000787505
-0.00122263
-0.00119161
-0.00093076
-0.000813532
-0.000743573
-0.00107205
-0.00137191
-0.00130711
-0.00128721
-0.0013256
-0.00120068
-0.00115975
-0.00145795
-0.0019263
-0.00235049
-0.00274258
-0.00312086
-0.00348246
-0.00372747
-0.00086033
-0.0012472
-0.00127799
-0.00107252
-0.000962394
-0.000875165
-0.00113681
-0.00146477
-0.00151151
-0.00151937
-0.00155688
-0.00148651
-0.0014891
-0.00178764
-0.00227042
-0.00272266
-0.00313803
-0.00351819
-0.00384402
-0.00411533
-0.000936641
-0.00128264
-0.00135929
-0.00120787
-0.00111996
-0.0010307
-0.00122548
-0.00155415
-0.00170405
-0.00176646
-0.0018098
-0.0017736
-0.00181187
-0.00211357
-0.00261238
-0.003094
-0.00352228
-0.00391687
-0.0042136
-0.00447109
-0.00101598
-0.00132735
-0.00143931
-0.0013358
-0.00128094
-0.00120903
-0.00134334
-0.00164928
-0.00188257
-0.00201515
-0.00208273
-0.0020731
-0.0021322
-0.00243372
-0.00294319
-0.00345925
-0.00389994
-0.00430639
-0.00459836
-0.00481348
-0.00109813
-0.0013812
-0.00152114
-0.00145788
-0.00144053
-0.00140441
-0.00149377
-0.00175951
-0.00204846
-0.00225499
-0.00236826
-0.00238983
-0.00245945
-0.00274862
-0.00325841
-0.00381083
-0.00427371
-0.00468326
-0.00498945
-0.00516776
-0.0011831
-0.00144341
-0.00160696
-0.00157765
-0.00159588
-0.00160912
-0.00167808
-0.00189219
-0.0022059
-0.00248293
-0.00265411
-0.00271928
-0.00280262
-0.00306873
-0.00356097
-0.00413856
-0.0046364
-0.00505083
-0.0053746
-0.00554246
-0.00127115
-0.00151314
-0.00169808
-0.00169961
-0.00174696
-0.00181525
-0.00189002
-0.00205267
-0.00236208
-0.00269785
-0.00293429
-0.00305253
-0.00315919
-0.00340481
-0.00386058
-0.00444173
-0.00497925
-0.00541146
-0.00574599
-0.00592509
-0.0013627
-0.00158993
-0.001795
-0.00182691
-0.00189617
-0.00201567
-0.00211802
-0.0022435
-0.00252759
-0.0029011
-0.00320448
-0.00338257
-0.00352172
-0.00375628
-0.0041733
-0.00473147
-0.00529374
-0.00575749
-0.00610265
-0.00629925
-0.00145827
-0.00167384
-0.00189733
-0.0019605
-0.00204743
-0.00220771
-0.00235084
-0.0024634
-0.002713
-0.00309812
-0.00346098
-0.00370454
-0.00388383
-0.00411722
-0.00450281
-0.00502516
-0.00558306
-0.00607953
-0.0064465
-0.00665672
-0.00155828
-0.00176498
-0.00200444
-0.00210005
-0.00220382
-0.00239201
-0.0025809
-0.00270617
-0.00292362
-0.00329687
-0.00370429
-0.00401232
-0.00423964
-0.00448211
-0.00484229
-0.00533318
-0.00586464
-0.00637322
-0.00677314
-0.00699762
-0.00166304
-0.00186343
-0.00211583
-0.00224418
-0.00236702
-0.00257268
-0.00280365
-0.00296094
-0.00315954
-0.00350531
-0.00393789
-0.00430449
-0.00458158
-0.004846
-0.00518785
-0.00565176
-0.00615537
-0.00664575
-0.00707427
-0.00732508
-0.00177252
-0.00196916
-0.00223157
-0.00239132
-0.00253688
-0.00275474
-0.00301876
-0.00321722
-0.00341748
-0.00373076
-0.00416565
-0.00458235
-0.00490765
-0.00519969
-0.00553529
-0.00597425
-0.00645904
-0.00691565
-0.0073477
-0.00763437
-0.00188652
-0.0020819
-0.00235196
-0.00254029
-0.00271249
-0.00294121
-0.00322799
-0.00346819
-0.00368807
-0.00397654
-0.00439497
-0.00484455
-0.00521745
-0.00553934
-0.00587874
-0.00629606
-0.00676723
-0.00719727
-0.00760417
-0.00791718
-0.00200478
-0.00220115
-0.00247725
-0.00269034
-0.00289226
-0.00313312
-0.00343477
-0.00371193
-0.00396028
-0.00423852
-0.00463604
-0.0050943
-0.00550688
-0.0058644
-0.00621386
-0.00661354
-0.00707039
-0.0074892
-0.00786087
-0.0081741
-0.00212687
-0.00232617
-0.00260779
-0.00284121
-0.00307406
-0.00333009
-0.0036425
-0.00394889
-0.00422823
-0.00450853
-0.0048894
-0.00534198
-0.00577488
-0.00616877
-0.00653855
-0.00692573
-0.00736423
-0.00777967
-0.00812672
-0.00841799
-0.0022523
-0.00245581
-0.00274346
-0.00299315
-0.00325605
-0.00353097
-0.00385286
-0.00417996
-0.00448886
-0.00478021
-0.00514972
-0.00559341
-0.00602902
-0.00644666
-0.00684549
-0.00723044
-0.0076477
-0.0080582
-0.00839585
-0.00866186
-0.00238078
-0.00258899
-0.00288356
-0.00314655
-0.00343686
-0.00373375
-0.00406662
-0.00440757
-0.00473957
-0.00504909
-0.0054125
-0.00584503
-0.00627963
-0.00670228
-0.00712613
-0.00752379
-0.00792269
-0.00832273
-0.00865936
-0.00890948
-0.00251123
-0.00272457
-0.00302717
-0.00330164
-0.00361583
-0.00393621
-0.00428275
-0.00463423
-0.00498088
-0.0053105
-0.0056747
-0.00609094
-0.00652323
-0.00694407
-0.00737626
-0.00779237
-0.00818314
-0.00856771
-0.00890208
-0.00914756
-0.00264334
-0.00286107
-0.00317266
-0.00345862
-0.00379255
-0.00413705
-0.00449947
-0.00486024
-0.00521575
-0.00556148
-0.0059328
-0.0063341
-0.00675599
-0.00717499
-0.00760426
-0.0080332
-0.00842888
-0.00880039
-0.00912497
-0.00936351
-0.00277504
-0.00299761
-0.00331838
-0.00361621
-0.00396764
-0.00433438
-0.00471477
-0.00508462
-0.00544698
-0.0058023
-0.00617716
-0.00656861
-0.00697114
-0.00738063
-0.00780487
-0.00823678
-0.0086479
-0.00902761
-0.00935365
-0.00958937
-0.00290533
-0.0031328
-0.00346231
-0.00377338
-0.00414074
-0.00452832
-0.00492817
-0.00530722
-0.00567616
-0.00604121
-0.00641227
-0.00679535
-0.00717827
-0.00755696
-0.00796152
-0.00837445
-0.00877626
-0.00916449
-0.00951592
-0.00978706
-0.00303225
-0.00326472
-0.00360295
-0.00392707
-0.00430881
-0.00471705
-0.00514033
-0.00552914
-0.00589965
-0.00627288
-0.0066386
-0.00700792
-0.00739107
-0.00774866
-0.00812929
-0.00852764
-0.00889529
-0.00923092
-0.00952774
-0.00976785
-0.00315194
-0.0033921
-0.00373986
-0.00407937
-0.00447329
-0.00489571
-0.00534306
-0.00575399
-0.0061279
-0.00649073
-0.00683311
-0.00714431
-0.0074742
-0.00780002
-0.00815327
-0.0085871
-0.00904583
-0.00949187
-0.00988994
-0.0101997
-0.00326293
-0.00350811
-0.00387064
-0.00422828
-0.00463306
-0.00507376
-0.00554749
-0.00599109
-0.00642488
-0.0068341
-0.00719582
-0.00747388
-0.00769224
-0.00789567
-0.00808972
-0.0083084
-0.00852238
-0.00870015
-0.00886018
-0.00903483
-0.0033657
-0.00360886
-0.00397578
-0.0043459
-0.00476197
-0.00522303
-0.00572244
-0.00615811
-0.00654031
-0.0068854
-0.00717903
-0.00744555
-0.00771741
-0.00801862
-0.00834972
-0.00875019
-0.00921065
-0.00966686
-0.0100912
-0.0104437
-0.00347715
-0.00374648
-0.00409936
-0.00446129
-0.00486408
-0.00533522
-0.00585716
-0.00631201
-0.00669544
-0.00703284
-0.00733466
-0.0076046
-0.00786914
-0.00812084
-0.008317
-0.00845021
-0.00859262
-0.00876031
-0.00894955
-0.0091759
-0.00346613
-0.0037253
-0.00415881
-0.00460035
-0.00506606
-0.00558114
-0.00614005
-0.00660963
-0.00699166
-0.00728463
-0.00749784
-0.00767786
-0.00786706
-0.00809489
-0.00834122
-0.00860996
-0.00890872
-0.00921027
-0.00949036
-0.0097661
0.0258593
0.0161363
0.00349993
-0.00457881
-0.00706254
-0.00688753
-0.00624037
-0.00590426
-0.00604483
-0.00663704
-0.00757433
-0.00855868
-0.00927129
-0.00977612
-0.0104293
-0.0112657
-0.0121442
-0.0131826
-0.0142749
-0.0150297
-0.0154004
-0.0155521
-0.0156574
-0.015948
-0.0165456
-0.0172633
-0.0179148
-0.0185214
-0.019133
-0.0197172
-0.0202507
-0.0208
-0.0214957
-0.0223706
-0.0232491
-0.0240698
-0.0249038
-0.0255914
-0.0260346
-0.0265039
-0.0271518
-0.0278629
-0.0286219
-0.0294631
-0.0302472
-0.0309198
-0.0315731
-0.0322873
-0.0330467
-0.0338478
-0.0346647
-0.0354839
-0.0363086
-0.0371538
-0.0380426
-0.0389091
-0.0397223
-0.0405854
-0.0414979
-0.0423982
-0.0433239
-0.0442884
-0.0452746
-0.0462299
-0.0472104
-0.0482396
-0.0492938
-0.0503571
-0.0514225
-0.0524134
-0.0534546
-0.0546604
-0.0559276
-0.0571327
-0.0582812
-0.0594472
-0.0606262
-0.0618773
-0.0631834
-0.064465
-0.0658264
-0.0672243
-0.0685894
-0.0699476
-0.0714099
-0.0729203
-0.0743801
-0.0758902
-0.0774027
-0.0789758
-0.0805506
-0.082179
-0.0837802
-0.0854061
-0.0870636
-0.088709
-0.0903847
-0.0920118
-0.0933805
-0.0946978
0.0245087
0.0159928
0.00360539
-0.00446062
-0.0069937
-0.0068531
-0.0062191
-0.005887
-0.00602915
-0.00662283
-0.00756269
-0.00855025
-0.009265
-0.00977052
-0.0104239
-0.0112608
-0.0121394
-0.0131781
-0.0142716
-0.0150271
-0.0153979
-0.0155494
-0.0156545
-0.015945
-0.0165429
-0.017261
-0.0179127
-0.0185193
-0.0191311
-0.0197155
-0.0202491
-0.0207984
-0.021494
-0.0223691
-0.0232479
-0.0240687
-0.0249028
-0.0255907
-0.0260339
-0.026503
-0.027151
-0.0278622
-0.0286212
-0.0294625
-0.0302467
-0.0309193
-0.0315726
-0.0322868
-0.0330462
-0.0338473
-0.0346643
-0.0354835
-0.0363082
-0.0371534
-0.0380422
-0.0389087
-0.039722
-0.040585
-0.0414975
-0.0423979
-0.0433236
-0.044288
-0.0452743
-0.0462296
-0.0472101
-0.0482394
-0.0492936
-0.0503569
-0.0514223
-0.0524132
-0.0534543
-0.0546601
-0.0559274
-0.0571325
-0.058281
-0.059447
-0.060626
-0.0618772
-0.0631832
-0.0644648
-0.0658263
-0.0672242
-0.0685893
-0.0699475
-0.0714098
-0.0729202
-0.07438
-0.0758901
-0.0774026
-0.0789757
-0.0805505
-0.0821789
-0.0837801
-0.085406
-0.0870635
-0.0887089
-0.0903846
-0.0920117
-0.0933803
-0.0946976
0.0235352
0.0159693
0.00387634
-0.00421243
-0.00686797
-0.00680073
-0.00619771
-0.00587681
-0.00602184
-0.00661447
-0.00755203
-0.00853891
-0.00925549
-0.00976358
-0.010419
-0.0112568
-0.0121353
-0.0131744
-0.0142691
-0.0150254
-0.0153962
-0.0155472
-0.0156517
-0.0159422
-0.0165406
-0.0172592
-0.017911
-0.0185175
-0.0191295
-0.0197141
-0.0202478
-0.0207969
-0.0214924
-0.0223679
-0.023247
-0.0240678
-0.0249022
-0.0255903
-0.0260333
-0.0265021
-0.0271503
-0.0278615
-0.0286205
-0.029462
-0.0302464
-0.030919
-0.0315722
-0.0322863
-0.0330458
-0.0338469
-0.034664
-0.0354831
-0.0363079
-0.037153
-0.0380419
-0.0389085
-0.0397217
-0.0405847
-0.0414973
-0.0423976
-0.0433233
-0.0442878
-0.0452741
-0.0462294
-0.0472099
-0.0482391
-0.0492934
-0.0503567
-0.0514222
-0.052413
-0.0534541
-0.0546599
-0.0559272
-0.0571324
-0.0582809
-0.0594469
-0.0606259
-0.061877
-0.0631831
-0.0644647
-0.0658262
-0.0672241
-0.0685892
-0.0699474
-0.0714097
-0.0729201
-0.0743799
-0.07589
-0.0774025
-0.0789756
-0.0805505
-0.0821788
-0.08378
-0.0854059
-0.0870635
-0.0887089
-0.0903845
-0.0920117
-0.0933803
-0.0946975
0.0225551
0.0158858
0.00417779
-0.00390771
-0.0066999
-0.00672642
-0.00616663
-0.00586362
-0.00601542
-0.00660849
-0.00754118
-0.00852309
-0.00923993
-0.0097526
-0.0104124
-0.0112522
-0.0121308
-0.0131699
-0.0142659
-0.0150235
-0.0153946
-0.0155445
-0.0156482
-0.0159389
-0.0165382
-0.0172576
-0.0179095
-0.0185158
-0.0191276
-0.0197124
-0.0202462
-0.0207952
-0.0214906
-0.0223663
-0.0232458
-0.0240668
-0.0249015
-0.0255898
-0.0260325
-0.0265011
-0.0271494
-0.0278608
-0.0286198
-0.0294616
-0.0302461
-0.0309185
-0.0315717
-0.0322858
-0.0330453
-0.0338465
-0.0346636
-0.0354828
-0.0363075
-0.0371527
-0.0380416
-0.0389082
-0.0397214
-0.0405844
-0.041497
-0.0423974
-0.0433231
-0.0442875
-0.0452739
-0.0462292
-0.0472096
-0.0482389
-0.0492932
-0.0503565
-0.051422
-0.0524129
-0.0534538
-0.0546597
-0.0559271
-0.0571323
-0.0582807
-0.0594467
-0.0606257
-0.0618769
-0.063183
-0.0644646
-0.065826
-0.067224
-0.0685891
-0.0699473
-0.0714095
-0.07292
-0.0743798
-0.0758899
-0.0774024
-0.0789755
-0.0805504
-0.0821788
-0.08378
-0.0854059
-0.0870634
-0.0887088
-0.0903845
-0.0920117
-0.0933804
-0.0946974
0.0215247
0.0157155
0.00448797
-0.00357
-0.00650789
-0.00663781
-0.00612769
-0.00584674
-0.00600861
-0.00660444
-0.00753069
-0.00850318
-0.00921823
-0.00973709
-0.0104034
-0.0112464
-0.0121259
-0.0131645
-0.0142613
-0.015021
-0.0153929
-0.0155412
-0.0156436
-0.0159347
-0.0165351
-0.0172556
-0.0179081
-0.0185141
-0.0191256
-0.0197104
-0.0202445
-0.0207933
-0.0214882
-0.0223641
-0.0232443
-0.0240656
-0.0249006
-0.025589
-0.0260314
-0.0264997
-0.0271482
-0.0278597
-0.0286189
-0.029461
-0.0302457
-0.030918
-0.031571
-0.0322853
-0.0330448
-0.0338461
-0.0346632
-0.0354824
-0.0363072
-0.0371523
-0.0380412
-0.038908
-0.0397211
-0.0405841
-0.0414967
-0.0423971
-0.0433228
-0.0442873
-0.0452736
-0.0462289
-0.0472093
-0.0482387
-0.0492929
-0.0503562
-0.0514219
-0.0524127
-0.0534534
-0.0546594
-0.055927
-0.0571322
-0.0582806
-0.0594466
-0.0606255
-0.0618767
-0.0631829
-0.0644644
-0.0658259
-0.0672239
-0.068589
-0.0699471
-0.0714094
-0.0729199
-0.0743797
-0.0758898
-0.0774023
-0.0789754
-0.0805503
-0.0821787
-0.0837799
-0.0854058
-0.0870633
-0.0887087
-0.0903845
-0.0920118
-0.0933807
-0.0946973
0.02047
0.0154846
0.00481205
-0.00320259
-0.00630032
-0.00654295
-0.006086
-0.00582848
-0.00600142
-0.0066013
-0.00752097
-0.008482
-0.00919381
-0.0097192
-0.0103925
-0.0112392
-0.0121206
-0.0131586
-0.0142557
-0.0150179
-0.015391
-0.0155371
-0.015638
-0.0159297
-0.016531
-0.0172526
-0.0179061
-0.0185124
-0.0191234
-0.0197084
-0.0202429
-0.0207914
-0.0214852
-0.0223609
-0.0232421
-0.0240641
-0.0248992
-0.0255877
-0.0260298
-0.026498
-0.0271466
-0.0278583
-0.0286178
-0.0294603
-0.0302452
-0.0309173
-0.0315703
-0.0322846
-0.0330442
-0.0338455
-0.0346627
-0.0354819
-0.0363068
-0.0371519
-0.0380408
-0.0389076
-0.0397207
-0.0405837
-0.0414963
-0.0423967
-0.0433225
-0.044287
-0.0452734
-0.0462287
-0.0472091
-0.0482384
-0.0492927
-0.050356
-0.0514218
-0.0524125
-0.053453
-0.0546591
-0.0559269
-0.0571321
-0.0582804
-0.0594464
-0.0606253
-0.0618765
-0.0631827
-0.0644642
-0.0658257
-0.0672239
-0.0685889
-0.069947
-0.0714093
-0.0729199
-0.0743796
-0.0758897
-0.0774022
-0.0789753
-0.0805502
-0.0821786
-0.0837798
-0.0854057
-0.0870633
-0.0887087
-0.0903845
-0.092012
-0.0933811
-0.0946973
0.0194202
0.0152032
0.00514702
-0.00281436
-0.00608497
-0.00644764
-0.00604514
-0.00581057
-0.00599387
-0.00659808
-0.0075118
-0.00846125
-0.00916934
-0.00970116
-0.010381
-0.0112309
-0.0121146
-0.0131524
-0.01425
-0.0150154
-0.0153894
-0.0155321
-0.0156314
-0.0159242
-0.016526
-0.0172481
-0.0179029
-0.0185097
-0.0191205
-0.0197064
-0.0202422
-0.0207903
-0.021482
-0.0223567
-0.0232392
-0.0240622
-0.0248971
-0.0255855
-0.0260279
-0.0264961
-0.0271446
-0.0278564
-0.0286163
-0.0294593
-0.0302442
-0.0309163
-0.0315693
-0.0322838
-0.0330435
-0.0338448
-0.034662
-0.0354813
-0.0363063
-0.0371514
-0.0380403
-0.0389072
-0.0397203
-0.0405832
-0.0414959
-0.0423964
-0.0433222
-0.0442867
-0.0452731
-0.0462284
-0.0472088
-0.0482381
-0.0492924
-0.0503557
-0.0514216
-0.0524123
-0.0534525
-0.0546587
-0.0559267
-0.057132
-0.0582802
-0.0594462
-0.0606251
-0.0618762
-0.0631825
-0.064464
-0.0658255
-0.0672237
-0.0685888
-0.0699468
-0.0714091
-0.0729198
-0.0743795
-0.0758896
-0.0774021
-0.0789752
-0.0805501
-0.0821785
-0.0837797
-0.0854056
-0.0870632
-0.0887086
-0.0903845
-0.0920122
-0.0933817
-0.0946974
0.0183917
0.0148666
0.0054752
-0.00241437
-0.00586463
-0.00635244
-0.00600472
-0.0057925
-0.0059854
-0.00659437
-0.00750335
-0.0084417
-0.00914575
-0.00968363
-0.0103694
-0.0112219
-0.0121079
-0.0131461
-0.0142453
-0.0150145
-0.0153887
-0.0155261
-0.0156235
-0.0159183
-0.0165209
-0.0172429
-0.0178984
-0.0185052
-0.0191162
-0.0197039
-0.0202425
-0.0207906
-0.0214793
-0.0223521
-0.0232357
-0.0240598
-0.0248941
-0.0255823
-0.0260255
-0.026494
-0.0271422
-0.0278541
-0.0286146
-0.0294579
-0.0302428
-0.0309149
-0.0315681
-0.0322828
-0.0330426
-0.0338438
-0.034661
-0.0354805
-0.0363057
-0.0371508
-0.0380397
-0.0389067
-0.0397199
-0.0405827
-0.0414954
-0.0423959
-0.0433218
-0.0442863
-0.0452727
-0.0462281
-0.0472085
-0.0482378
-0.0492921
-0.0503553
-0.0514214
-0.0524121
-0.053452
-0.0546583
-0.0559266
-0.0571319
-0.0582799
-0.0594459
-0.0606249
-0.0618759
-0.0631823
-0.0644638
-0.0658253
-0.0672236
-0.0685886
-0.0699466
-0.0714089
-0.0729197
-0.0743794
-0.0758894
-0.077402
-0.0789751
-0.08055
-0.0821784
-0.0837797
-0.0854055
-0.0870632
-0.0887086
-0.0903846
-0.0920126
-0.0933826
-0.0946976
0.0173928
0.0144655
0.00578415
-0.002004
-0.00563441
-0.0062543
-0.00596333
-0.00577386
-0.00597614
-0.0065904
-0.00749591
-0.00842371
-0.00912328
-0.00966665
-0.0103579
-0.0112124
-0.0121008
-0.0131401
-0.0142422
-0.0150162
-0.0153899
-0.01552
-0.0156143
-0.0159118
-0.0165158
-0.0172379
-0.0178934
-0.0184994
-0.0191101
-0.0197007
-0.0202434
-0.0207925
-0.0214778
-0.0223478
-0.0232324
-0.0240573
-0.0248902
-0.0255778
-0.0260224
-0.0264916
-0.0271396
-0.0278517
-0.0286127
-0.0294562
-0.0302409
-0.0309129
-0.0315665
-0.0322816
-0.0330416
-0.0338427
-0.0346597
-0.0354793
-0.0363048
-0.03715
-0.0380388
-0.038906
-0.0397193
-0.0405821
-0.0414947
-0.0423953
-0.0433214
-0.0442859
-0.0452722
-0.0462277
-0.0472082
-0.0482376
-0.0492918
-0.050355
-0.0514212
-0.0524118
-0.0534513
-0.0546577
-0.0559265
-0.0571318
-0.0582797
-0.0594457
-0.0606246
-0.0618756
-0.0631821
-0.0644635
-0.065825
-0.0672234
-0.0685884
-0.0699463
-0.0714087
-0.0729195
-0.0743792
-0.0758893
-0.0774018
-0.078975
-0.0805499
-0.0821783
-0.0837796
-0.0854054
-0.0870631
-0.0887085
-0.0903848
-0.0920132
-0.0933838
-0.0946979
0.0164306
0.0140006
0.00606845
-0.00158144
-0.0053901
-0.00615221
-0.00592123
-0.00575515
-0.00596652
-0.00658618
-0.00748933
-0.00840721
-0.00910191
-0.00965033
-0.0103467
-0.0112029
-0.0120938
-0.0131347
-0.0142411
-0.0150209
-0.0153939
-0.0155144
-0.0156039
-0.0159042
-0.0165106
-0.0172333
-0.0178888
-0.0184933
-0.019103
-0.0196966
-0.0202447
-0.0207958
-0.0214778
-0.0223446
-0.0232299
-0.0240554
-0.024886
-0.0255723
-0.0260183
-0.0264886
-0.0271367
-0.0278493
-0.0286111
-0.0294546
-0.0302385
-0.0309104
-0.0315644
-0.0322801
-0.0330403
-0.0338414
-0.0346582
-0.0354779
-0.0363037
-0.0371489