/*--------------------------------*- C++ -*----------------------------------*\
| =========                 |                                                 |
| \\      /  F ield         | OpenFOAM: The Open Source CFD Toolbox           |
|  \\    /   O peration     | Version:  v1912                                 |
|   \\  /    A nd           | Website:  www.openfoam.com                      |
|    \\/     M anipulation  |                                                 |
\*---------------------------------------------------------------------------*/
FoamFile
{
    version     2.0;
    format      ascii;
    class       surfaceScalarField;
    location    "0.45";
    object      phi;
}
// * * * * * * * * * * * * * * * * * * * * * * * * * * * * * * * * * * * * * //

dimensions      [0 3 -1 0 0 0 0];
oriented        oriented;


internalField   nonuniform List<scalar> 
19000
(
1.16557e-06
-8.66443e-08
1.16705e-06
3.69608e-07
1.18164e-06
-5.37411e-07
1.18298e-06
-7.24743e-07
1.20424e-06
-2.06675e-07
1.15402e-06
4.3708e-07
1.14388e-06
1.62354e-07
1.17139e-06
7.03359e-07
1.16862e-06
-1.22295e-07
1.16719e-06
-3.018e-07
1.17686e-06
-3.11936e-07
1.15486e-06
-5.43297e-07
1.19871e-06
-9.5929e-08
1.17107e-06
-5.97816e-07
1.20989e-06
-2.87543e-07
1.19954e-06
-1.15339e-07
1.20799e-06
-5.8514e-09
1.21001e-06
1.69245e-07
1.20063e-06
1.67263e-07
2.68505e-07
1.18028e-06
1.221e-06
-8.33865e-08
1.22518e-06
3.65436e-07
1.23746e-06
-5.49697e-07
1.23764e-06
-7.24926e-07
1.25954e-06
-2.2857e-07
1.21573e-06
4.80887e-07
1.20188e-06
1.76211e-07
1.23649e-06
6.6874e-07
1.22821e-06
-1.14009e-07
1.22672e-06
-3.00307e-07
1.2296e-06
-3.14816e-07
1.213e-06
-5.26703e-07
1.24836e-06
-1.31291e-07
1.23033e-06
-5.79779e-07
1.25999e-06
-3.17208e-07
1.26758e-06
-1.22932e-07
1.25525e-06
6.47909e-09
1.28354e-06
1.40959e-07
1.24446e-06
2.06346e-07
2.49501e-07
1.26346e-06
1.27839e-06
-7.8997e-08
1.28544e-06
3.58389e-07
1.29295e-06
-5.57204e-07
1.29495e-06
-7.26928e-07
1.31337e-06
-2.46989e-07
1.2839e-06
5.10353e-07
1.2656e-06
1.94517e-07
1.30124e-06
6.33098e-07
1.28836e-06
-1.01125e-07
1.28553e-06
-2.97486e-07
1.2815e-06
-3.10783e-07
1.27402e-06
-5.1922e-07
1.30016e-06
-1.57437e-07
1.29763e-06
-5.77249e-07
1.31358e-06
-3.33155e-07
1.33504e-06
-1.44394e-07
1.31814e-06
2.33837e-08
1.33811e-06
1.20985e-07
1.3175e-06
2.26956e-07
2.61196e-07
1.30581e-06
1.33877e-06
-7.36621e-08
1.34727e-06
3.49883e-07
1.34833e-06
-5.58259e-07
1.35312e-06
-7.31718e-07
1.36702e-06
-2.60887e-07
1.35252e-06
5.24851e-07
1.33561e-06
2.11422e-07
1.36485e-06
6.03864e-07
1.35034e-06
-8.66207e-08
1.34367e-06
-2.90811e-07
1.33579e-06
-3.02905e-07
1.33453e-06
-5.17957e-07
1.35437e-06
-1.77284e-07
1.36175e-06
-5.84627e-07
1.37194e-06
-3.43347e-07
1.3963e-06
-1.68754e-07
1.38961e-06
3.00784e-08
1.3961e-06
1.14489e-07
1.39077e-06
2.32293e-07
2.77817e-07
1.37415e-06
1.40299e-06
-6.82976e-08
1.41115e-06
3.41724e-07
1.40554e-06
-5.52651e-07
1.41167e-06
-7.37852e-07
1.42217e-06
-2.71378e-07
1.41968e-06
5.27333e-07
1.41003e-06
2.21074e-07
1.43066e-06
5.83237e-07
1.41579e-06
-7.17521e-08
1.4049e-06
-2.79922e-07
1.39548e-06
-2.93486e-07
1.39634e-06
-5.18813e-07
1.41216e-06
-1.93106e-07
1.42296e-06
-5.95426e-07
1.43238e-06
-3.5277e-07
1.45558e-06
-1.91955e-07
1.45889e-06
2.67708e-08
1.46069e-06
1.12687e-07
1.46032e-06
2.32669e-07
2.89679e-07
1.44846e-06
1.47148e-06
-6.41062e-08
1.47805e-06
3.35158e-07
1.46694e-06
-5.41542e-07
1.47188e-06
-7.42792e-07
1.48052e-06
-2.8002e-07
1.48659e-06
5.21262e-07
1.48636e-06
2.21308e-07
1.50057e-06
5.69023e-07
1.48514e-06
-5.63185e-08
1.47174e-06
-2.66523e-07
1.46162e-06
-2.83367e-07
1.46192e-06
-5.19116e-07
1.4743e-06
-2.0548e-07
1.48435e-06
-6.05476e-07
1.49373e-06
-3.62156e-07
1.51537e-06
-2.13594e-07
1.52488e-06
1.72612e-08
1.52719e-06
1.10381e-07
1.52957e-06
2.30292e-07
2.9759e-07
1.52165e-06
1.54398e-06
-6.18657e-08
1.54889e-06
3.30248e-07
1.53409e-06
-5.26742e-07
1.53583e-06
-7.44536e-07
1.54325e-06
-2.87443e-07
1.55503e-06
5.09491e-07
1.56279e-06
2.13539e-07
1.57409e-06
5.57723e-07
1.55805e-06
-4.02779e-08
1.54427e-06
-2.52742e-07
1.5337e-06
-2.72798e-07
1.53241e-06
-5.17819e-07
1.54102e-06
-2.14091e-07
1.54781e-06
-6.12263e-07
1.55667e-06
-3.71018e-07
1.57679e-06
-2.33718e-07
1.59047e-06
3.58178e-09
1.59463e-06
1.06224e-07
1.60031e-06
2.24611e-07
3.02708e-07
1.59519e-06
1.6198e-06
-6.15403e-08
1.62394e-06
3.26114e-07
1.60725e-06
-5.10057e-07
1.60511e-06
-7.42392e-07
1.61095e-06
-2.93287e-07
1.62606e-06
4.94387e-07
1.63882e-06
2.0078e-07
1.64987e-06
5.4667e-07
1.63394e-06
-2.4353e-08
1.62146e-06
-2.40255e-07
1.61065e-06
-2.61991e-07
1.60775e-06
-5.14916e-07
1.61236e-06
-2.18705e-07
1.61441e-06
-6.14315e-07
1.62223e-06
-3.78834e-07
1.6404e-06
-2.51891e-07
1.65744e-06
-1.34573e-08
1.66357e-06
1.00091e-07
1.67296e-06
2.15227e-07
3.052e-07
1.67046e-06
1.6985e-06
-6.24645e-08
1.70294e-06
3.21676e-07
1.68585e-06
-4.92969e-07
1.6802e-06
-7.36741e-07
1.68382e-06
-2.96914e-07
1.70027e-06
4.77941e-07
1.71496e-06
1.86085e-07
1.72712e-06
5.34517e-07
1.71239e-06
-9.62808e-09
1.70223e-06
-2.30091e-07
1.6915e-06
-2.51267e-07
1.68737e-06
-5.1078e-07
1.68839e-06
-2.19731e-07
1.68512e-06
-6.11045e-07
1.69129e-06
-3.84997e-07
1.70654e-06
-2.67143e-07
1.72608e-06
-3.2995e-08
1.73385e-06
9.23208e-08
1.74668e-06
2.02393e-07
3.04885e-07
1.747e-06
1.78008e-06
-6.38181e-08
1.7855e-06
3.16255e-07
1.76906e-06
-4.76532e-07
1.76072e-06
-7.28396e-07
1.76179e-06
-2.97986e-07
1.77819e-06
4.61543e-07
1.79238e-06
1.71892e-07
1.80601e-06
5.20887e-07
1.7934e-06
2.97795e-09
1.78593e-06
-2.2262e-07
1.77568e-06
-2.41016e-07
1.77066e-06
-5.05762e-07
1.76917e-06
-2.18239e-07
1.76081e-06
-6.02685e-07
1.76462e-06
-3.88804e-07
1.77568e-06
-2.78208e-07
1.79628e-06
-5.35871e-08
1.80484e-06
8.37546e-08
1.82014e-06
1.87097e-07
3.01681e-07
1.82334e-06
1.86492e-06
-6.49914e-08
1.87149e-06
3.09689e-07
1.85629e-06
-4.61335e-07
1.84601e-06
-7.1812e-07
1.84462e-06
-2.96588e-07
1.86035e-06
4.45805e-07
1.87242e-06
1.59821e-07
1.88739e-06
5.05919e-07
1.87739e-06
1.29785e-08
1.87241e-06
-2.17637e-07
1.86296e-06
-2.31567e-07
1.85723e-06
-5.00037e-07
1.85461e-06
-2.15612e-07
1.84201e-06
-5.90089e-07
1.84293e-06
-3.89723e-07
1.84867e-06
-2.83948e-07
1.86843e-06
-7.33467e-08
1.87654e-06
7.56462e-08
1.89266e-06
1.70974e-07
2.95795e-07
1.89855e-06
1.95353e-06
-6.5686e-08
1.96108e-06
3.02142e-07
1.94726e-06
-4.47517e-07
1.9356e-06
-7.06459e-07
1.9321e-06
-2.93082e-07
1.9472e-06
4.30705e-07
1.95638e-06
1.5064e-07
1.97236e-06
4.8994e-07
1.96498e-06
2.03577e-08
1.96192e-06
-2.14578e-07
1.95344e-06
-2.23085e-07
1.94701e-06
-4.93605e-07
1.9445e-06
-2.13103e-07
1.92881e-06
-5.74401e-07
1.92677e-06
-3.87685e-07
1.92661e-06
-2.83791e-07
1.94374e-06
-9.04769e-08
1.95011e-06
6.92756e-08
1.96513e-06
1.5596e-07
2.87696e-07
1.97323e-06
2.04634e-06
-6.58386e-08
2.05463e-06
2.93853e-07
2.04198e-06
-4.34871e-07
2.02932e-06
-6.93797e-07
2.02416e-06
-2.87915e-07
2.03895e-06
4.15906e-07
2.04523e-06
1.44363e-07
2.0619e-06
4.73268e-07
2.05679e-06
2.54752e-08
2.05498e-06
-2.12773e-07
2.04745e-06
-2.15556e-07
2.04021e-06
-4.86362e-07
2.03863e-06
-2.11525e-07
2.02093e-06
-5.567e-07
2.01639e-06
-3.83147e-07
2.01059e-06
-2.77995e-07
2.02393e-06
-1.03814e-07
2.02774e-06
6.54667e-08
2.03995e-06
1.43755e-07
2.77956e-07
2.04969e-06
2.14366e-06
-6.55009e-08
2.15252e-06
2.84994e-07
2.14065e-06
-4.22996e-07
2.12728e-06
-6.80427e-07
2.12086e-06
-2.81502e-07
2.13573e-06
4.01045e-07
2.13959e-06
1.40497e-07
2.15673e-06
4.56126e-07
2.15331e-06
2.88987e-08
2.15217e-06
-2.11629e-07
2.14546e-06
-2.08849e-07
2.13729e-06
-4.78191e-07
2.13694e-06
-2.11178e-07
2.118e-06
-5.37753e-07
2.11175e-06
-3.76905e-07
2.10133e-06
-2.67573e-07
2.11059e-06
-1.13079e-07
2.11178e-06
6.42785e-08
2.12022e-06
1.35317e-07
2.67117e-07
2.13106e-06
2.24574e-06
-6.47528e-08
2.25509e-06
2.75643e-07
2.24355e-06
-4.11456e-07
2.22971e-06
-6.66591e-07
2.22239e-06
-2.74174e-07
2.23756e-06
3.85872e-07
2.23971e-06
1.38342e-07
2.25721e-06
4.38634e-07
2.25488e-06
3.12215e-08
2.25396e-06
-2.10708e-07
2.24793e-06
-2.02815e-07
2.23875e-06
-4.69013e-07
2.23957e-06
-2.11995e-07
2.21978e-06
-5.17963e-07
2.21266e-06
-3.69789e-07
2.19901e-06
-2.5392e-07
2.20464e-06
-1.18716e-07
2.2039e-06
6.50245e-08
2.20853e-06
1.3069e-07
2.55622e-07
2.22002e-06
2.35278e-06
-6.36605e-08
2.36262e-06
2.65811e-07
2.35104e-06
-3.99881e-07
2.33692e-06
-6.52472e-07
2.32892e-06
-2.6617e-07
2.34452e-06
3.70274e-07
2.34562e-06
1.37239e-07
2.36341e-06
4.20849e-07
2.36171e-06
3.2915e-08
2.36071e-06
-2.09708e-07
2.35525e-06
-1.97352e-07
2.34503e-06
-4.58797e-07
2.34677e-06
-2.13737e-07
2.32629e-06
-4.97476e-07
2.31891e-06
-3.62415e-07
2.30343e-06
-2.38434e-07
2.30614e-06
-1.21433e-07
2.3046e-06
6.6574e-08
2.30603e-06
1.29251e-07
2.43798e-07
2.31786e-06
2.465e-06
-6.22644e-08
2.47534e-06
2.55473e-07
2.46347e-06
-3.88014e-07
2.44919e-06
-6.38192e-07
2.44066e-06
-2.57644e-07
2.45671e-06
3.54231e-07
2.45726e-06
1.36688e-07
2.4753e-06
4.02806e-07
2.47396e-06
3.42602e-08
2.47266e-06
-2.08413e-07
2.46774e-06
-1.92435e-07
2.45649e-06
-4.47544e-07
2.4589e-06
-2.16142e-07
2.43777e-06
-4.76345e-07
2.43043e-06
-3.55079e-07
2.41425e-06
-2.22255e-07
2.41463e-06
-1.21808e-07
2.41342e-06
6.77823e-08
2.41258e-06
1.30088e-07
2.31929e-07
2.42445e-06
2.58261e-06
-6.05826e-08
2.59349e-06
2.44601e-07
2.58118e-06
-3.75707e-07
2.5668e-06
-6.23815e-07
2.55784e-06
-2.48687e-07
2.57429e-06
3.37782e-07
2.57462e-06
1.3636e-07
2.59287e-06
3.84561e-07
2.59177e-06
3.5353e-08
2.59001e-06
-2.06654e-07
2.58567e-06
-1.88092e-07
2.57342e-06
-4.3529e-07
2.57624e-06
-2.18965e-07
2.55455e-06
-4.54659e-07
2.54726e-06
-3.4779e-07
2.5312e-06
-2.06196e-07
2.52959e-06
-1.20191e-07
2.52949e-06
6.78785e-08
2.52729e-06
1.32287e-07
2.20326e-07
2.5389e-06
2.70586e-06
-5.86185e-08
2.71729e-06
2.33171e-07
2.70448e-06
-3.62888e-07
2.69003e-06
-6.09367e-07
2.68069e-06
-2.39353e-07
2.69748e-06
3.20992e-07
2.6978e-06
1.36047e-07
2.71615e-06
3.66203e-07
2.71535e-06
3.61525e-08
2.71299e-06
-2.04287e-07
2.70925e-06
-1.84353e-07
2.69608e-06
-4.22119e-07
2.69909e-06
-2.21974e-07
2.67701e-06
-4.32583e-07
2.66958e-06
-3.40361e-07
2.65419e-06
-1.90808e-07
2.65075e-06
-1.16745e-07
2.65204e-06
6.65833e-08
2.64929e-06
1.35037e-07
2.0934e-07
2.66028e-06
2.83502e-06
-5.63682e-08
2.84702e-06
2.21173e-07
2.83367e-06
-3.4954e-07
2.81915e-06
-5.9485e-07
2.80948e-06
-2.29686e-07
2.82652e-06
3.03951e-07
2.82697e-06
1.356e-07
2.84531e-06
3.47863e-07
2.84492e-06
3.65423e-08
2.84184e-06
-2.01204e-07
2.8387e-06
-1.81212e-07
2.82475e-06
-4.0817e-07
2.8277e-06
-2.2493e-07
2.80547e-06
-4.10344e-07
2.79764e-06
-3.32539e-07
2.78326e-06
-1.76427e-07
2.77812e-06
-1.116e-07
2.78068e-06
6.40204e-08
2.77804e-06
1.37675e-07
1.99308e-07
2.78808e-06
2.97035e-06
-5.38253e-08
2.98292e-06
2.08609e-07
2.96905e-06
-3.35672e-07
2.95445e-06
-5.8025e-07
2.9445e-06
-2.19734e-07
2.96168e-06
2.86765e-07
2.9624e-06
1.34884e-07
2.98056e-06
3.29703e-07
2.98072e-06
3.6381e-08
2.97685e-06
-1.97336e-07
2.97424e-06
-1.78604e-07
2.95971e-06
-3.93639e-07
2.96237e-06
-2.2759e-07
2.94021e-06
-3.88182e-07
2.93176e-06
-3.24092e-07
2.91855e-06
-1.63216e-07
2.91191e-06
-1.04954e-07
2.91541e-06
6.05214e-08
2.91337e-06
1.39713e-07
1.90446e-07
2.92223e-06
3.11217e-06
-5.09844e-08
3.12529e-06
1.95488e-07
3.11093e-06
-3.21319e-07
3.09622e-06
-5.65538e-07
3.08605e-06
-2.09562e-07
3.10325e-06
2.69564e-07
3.10438e-06
1.33752e-07
3.12217e-06
3.11913e-07
3.12302e-06
3.55343e-08
3.11836e-06
-1.92675e-07
3.11614e-06
-1.76391e-07
3.10127e-06
-3.78767e-07
3.10339e-06
-2.29705e-07
3.08152e-06
-3.66319e-07
3.0723e-06
-3.14866e-07
3.06027e-06
-1.51185e-07
3.05239e-06
-9.7078e-08
3.05646e-06
5.64557e-08
3.05534e-06
1.40834e-07
1.82822e-07
3.06296e-06
3.26077e-06
-4.78424e-08
3.27442e-06
1.81833e-07
3.25964e-06
-3.06534e-07
3.24477e-06
-5.50665e-07
3.23445e-06
-1.9925e-07
3.25152e-06
2.52501e-07
3.25324e-06
1.3203e-07
3.27046e-06
2.94697e-07
3.27209e-06
3.39033e-08
3.2667e-06
-1.87289e-07
3.26468e-06
-1.74365e-07
3.24972e-06
-3.63811e-07
3.25108e-06
-2.31063e-07
3.22968e-06
-3.44924e-07
3.2196e-06
-3.04781e-07
3.2087e-06
-1.40287e-07
3.19986e-06
-8.82427e-08
3.20419e-06
5.21313e-08
3.20416e-06
1.40858e-07
1.76366e-07
3.21062e-06
3.41649e-06
-4.43994e-08
3.43065e-06
1.67675e-07
3.41551e-06
-2.91395e-07
3.40041e-06
-5.35566e-07
3.39006e-06
-1.889e-07
3.4068e-06
2.35757e-07
3.40931e-06
1.2952e-07
3.42576e-06
2.78248e-07
3.42821e-06
3.14553e-08
3.42226e-06
-1.81338e-07
3.42015e-06
-1.72258e-07
3.40536e-06
-3.4902e-07
3.4058e-06
-2.31508e-07
3.38497e-06
-3.24091e-07
3.37402e-06
-2.93829e-07
3.3642e-06
-1.3047e-07
3.35465e-06
-7.86895e-08
3.35896e-06
4.78192e-08
3.36014e-06
1.39678e-07
1.70923e-07
3.36558e-06
3.57967e-06
-4.06601e-08
3.59429e-06
1.5306e-07
3.57889e-06
-2.76002e-07
3.56348e-06
-5.2015e-07
3.55321e-06
-1.7863e-07
3.56942e-06
2.19545e-07
3.57293e-06
1.26014e-07
3.58846e-06
2.62717e-07
3.59166e-06
2.82579e-08
3.58539e-06
-1.75071e-07
3.58291e-06
-1.69783e-07
3.56848e-06
-3.34586e-07
3.56794e-06
-2.30972e-07
3.54769e-06
-3.03834e-07
3.53591e-06
-2.82049e-07
3.52715e-06
-1.21717e-07
3.51708e-06
-6.86112e-08
3.52114e-06
4.37574e-08
3.52359e-06
1.37229e-07
1.66287e-07
3.52822e-06
3.75068e-06
-3.66338e-08
3.76569e-06
1.38046e-07
3.75017e-06
-2.60479e-07
3.73432e-06
-5.04304e-07
3.72428e-06
-1.68582e-07
3.73974e-06
2.04086e-07
3.74441e-06
1.21343e-07
3.75897e-06
2.48156e-07
3.76273e-06
2.44994e-08
3.75646e-06
-1.68804e-07
3.75335e-06
-1.66675e-07
3.73938e-06
-3.20614e-07
3.7379e-06
-2.29495e-07
3.71818e-06
-2.84113e-07
3.70564e-06
-2.69505e-07
3.69792e-06
-1.14005e-07
3.68755e-06
-5.82364e-08
3.69109e-06
4.02151e-08
3.69485e-06
1.33473e-07
1.62223e-07
3.69891e-06
3.92989e-06
-3.23361e-08
3.94523e-06
1.22709e-07
3.92972e-06
-2.44973e-07
3.91332e-06
-4.87897e-07
3.90365e-06
-1.58915e-07
3.91815e-06
1.89585e-07
3.92406e-06
1.15432e-07
3.93772e-06
2.34497e-07
3.94176e-06
2.04563e-08
3.93581e-06
-1.62851e-07
3.93189e-06
-1.62752e-07
3.91835e-06
-3.07074e-07
3.91607e-06
-2.27219e-07
3.89683e-06
-2.64875e-07
3.88357e-06
-2.56241e-07
3.87687e-06
-1.07307e-07
3.86648e-06
-4.78403e-08
3.86923e-06
3.7461e-08
3.87425e-06
1.2845e-07
1.58448e-07
3.87803e-06
4.1177e-06
-2.77891e-08
4.13327e-06
1.07137e-07
4.11795e-06
-2.29648e-07
4.10083e-06
-4.70782e-07
4.09173e-06
-1.49811e-07
4.10511e-06
1.76209e-07
4.11221e-06
1.08331e-07
4.12517e-06
2.21535e-07
4.12915e-06
1.64758e-08
4.12379e-06
-1.57489e-07
4.11899e-06
-1.57955e-07
4.10573e-06
-2.93813e-07
4.10286e-06
-2.24353e-07
4.08408e-06
-2.46093e-07
4.0701e-06
-2.42259e-07
4.06436e-06
-1.01568e-07
4.05427e-06
-3.77534e-08
4.05601e-06
3.5729e-08
4.06214e-06
1.22315e-07
1.54628e-07
4.06596e-06
4.31454e-06
-2.30223e-08
4.33023e-06
9.14407e-08
4.31527e-06
-2.14683e-07
4.29728e-06
-4.52798e-07
4.28894e-06
-1.41467e-07
4.30108e-06
1.64065e-07
4.3092e-06
1.00215e-07
4.32175e-06
2.08985e-07
4.32532e-06
1.29047e-08
4.32074e-06
-1.52905e-07
4.31515e-06
-1.52368e-07
4.30192e-06
-2.80582e-07
4.29864e-06
-2.21078e-07
4.28038e-06
-2.27834e-07
4.26564e-06
-2.27519e-07
4.26076e-06
-9.66875e-08
4.25133e-06
-2.83176e-08
4.25193e-06
3.51288e-08
4.25885e-06
1.15395e-07
1.50395e-07
4.26308e-06
4.52083e-06
-1.80737e-08
4.53652e-06
7.57444e-08
4.52211e-06
-2.00268e-07
4.50308e-06
-4.33777e-07
4.49572e-06
-1.34102e-07
4.50659e-06
1.5319e-07
4.51542e-06
9.139e-08
4.52791e-06
1.96499e-07
4.53074e-06
1.00672e-08
4.52701e-06
-1.49175e-07
4.52086e-06
-1.46211e-07
4.50734e-06
-2.67064e-07
4.50378e-06
-2.17523e-07
4.48621e-06
-2.10258e-07
4.4707e-06
-2.12008e-07
4.46646e-06
-9.24521e-08
4.45803e-06
-1.98858e-08
4.45753e-06
3.56265e-08
4.46478e-06
1.0815e-07
1.45415e-07
4.46976e-06
4.73703e-06
-1.2989e-08
4.75258e-06
6.01914e-08
4.73891e-06
-1.86596e-07
4.71868e-06
-4.1355e-07
4.7125e-06
-1.27918e-07
4.72216e-06
1.43531e-07
4.73129e-06
8.2256e-08
4.74408e-06
1.83716e-07
4.74592e-06
8.22061e-09
4.743e-06
-1.4625e-07
4.73657e-06
-1.39784e-07
4.72248e-06
-2.52968e-07
4.71866e-06
-2.13705e-07
4.702e-06
-1.93605e-07
4.68578e-06
-1.95786e-07
4.68191e-06
-8.85787e-08
4.67473e-06
-1.27073e-08
4.67334e-06
3.70177e-08
4.68042e-06
1.01073e-07
1.39511e-07
4.68632e-06
4.96363e-06
-7.82334e-09
4.97888e-06
4.49452e-08
4.96615e-06
-1.73864e-07
4.94458e-06
-3.91984e-07
4.93969e-06
-1.23025e-07
4.94829e-06
1.34925e-07
4.95729e-06
7.32579e-08
4.97069e-06
1.70321e-07
4.97142e-06
7.48833e-09
4.96907e-06
-1.43897e-07
4.96275e-06
-1.33473e-07
4.94791e-06
-2.38124e-07
4.94367e-06
-2.0946e-07
4.92823e-06
-1.78167e-07
4.91145e-06
-1.7901e-07
4.9076e-06
-8.47271e-08
4.90182e-06
-6.92437e-09
4.89984e-06
3.89947e-08
4.90636e-06
9.4551e-08
1.32756e-07
4.91312e-06
5.20113e-06
-2.63937e-09
5.21589e-06
3.0184e-08
5.20428e-06
-1.62254e-07
5.18133e-06
-3.69031e-07
5.17765e-06
-1.1935e-07
5.1855e-06
1.27084e-07
5.19393e-06
6.48275e-08
5.20814e-06
1.5611e-07
5.20784e-06
7.7862e-09
5.20562e-06
-1.41682e-07
5.19986e-06
-1.27708e-07
5.18425e-06
-2.2251e-07
5.17928e-06
-2.04497e-07
5.16531e-06
-1.64195e-07
5.14826e-06
-1.61962e-07
5.1441e-06
-8.05613e-08
5.13973e-06
-2.55256e-09
5.13751e-06
4.12113e-08
5.14322e-06
8.88414e-08
1.25403e-07
5.15057e-06
5.45006e-06
2.49114e-09
5.46414e-06
1.61057e-08
5.45381e-06
-1.51931e-07
5.42954e-06
-3.44752e-07
5.42683e-06
-1.16644e-07
5.43429e-06
1.19625e-07
5.44176e-06
5.73597e-08
5.45684e-06
1.41031e-07
5.4558e-06
8.81832e-09
5.45319e-06
-1.39072e-07
5.44831e-06
-1.22827e-07
5.43205e-06
-2.06244e-07
5.42607e-06
-1.98524e-07
5.41368e-06
-1.51798e-07
5.39673e-06
-1.4502e-07
5.39202e-06
-7.58447e-08
5.38892e-06
5.39951e-10
5.38678e-06
4.33581e-08
5.39163e-06
8.39912e-08
1.17836e-07
5.39919e-06
5.71096e-06
7.48739e-09
5.72414e-06
2.92578e-09
5.71524e-06
-1.43025e-07
5.68983e-06
-3.19343e-07
5.68772e-06
-1.14533e-07
5.6952e-06
1.12141e-07
5.70142e-06
5.11435e-08
5.7172e-06
1.25246e-07
5.71592e-06
1.00997e-08
5.71237e-06
-1.35524e-07
5.70849e-06
-1.18949e-07
5.69196e-06
-1.89712e-07
5.68461e-06
-1.91173e-07
5.6738e-06
-1.4099e-07
5.65739e-06
-1.28608e-07
5.65199e-06
-7.0444e-08
5.64994e-06
2.59348e-09
5.64812e-06
4.51752e-08
5.65218e-06
7.99349e-08
1.10422e-07
5.65959e-06
5.98442e-06
1.22618e-08
5.99647e-06
-9.12663e-09
5.98907e-06
-1.35624e-07
5.96285e-06
-2.93121e-07
5.96088e-06
-1.12565e-07
5.96877e-06
1.04249e-07
5.9736e-06
4.63111e-08
5.98971e-06
1.09139e-07
5.98874e-06
1.10717e-08
5.98383e-06
-1.30613e-07
5.98086e-06
-1.15983e-07
5.9646e-06
-1.73454e-07
5.95565e-06
-1.82215e-07
5.94617e-06
-1.3151e-07
5.93074e-06
-1.13183e-07
5.92466e-06
-6.43668e-08
5.92335e-06
3.90711e-09
5.92201e-06
4.6513e-08
5.92544e-06
7.651e-08
1.03416e-07
5.93244e-06
6.27103e-06
1.67228e-08
6.28171e-06
-1.98111e-08
6.27587e-06
-1.29787e-07
6.24924e-06
-2.66491e-07
6.24695e-06
-1.10266e-07
6.25557e-06
9.56269e-08
6.25906e-06
4.28225e-08
6.27493e-06
9.32669e-08
6.27479e-06
1.1211e-08
6.26835e-06
-1.24176e-07
6.2659e-06
-1.13533e-07
6.25053e-06
-1.58081e-07
6.23999e-06
-1.71678e-07
6.23136e-06
-1.2288e-07
6.21726e-06
-9.90844e-08
6.21067e-06
-5.77776e-08
6.20983e-06
4.75022e-09
6.209e-06
4.73388e-08
6.21196e-06
7.35573e-08
9.68868e-08
6.21849e-06
6.57142e-06
2.07724e-08
6.58047e-06
-2.88659e-08
6.57624e-06
-1.25551e-07
6.54968e-06
-2.39927e-07
6.54659e-06
-1.0718e-07
6.55616e-06
8.60558e-08
6.55851e-06
4.04756e-08
6.57351e-06
7.82685e-08
6.57456e-06
1.01543e-08
6.5668e-06
-1.16417e-07
6.56426e-06
-1.10987e-07
6.55018e-06
-1.44004e-07
6.53846e-06
-1.59958e-07
6.53015e-06
-1.14569e-07
6.51747e-06
-8.64064e-08
6.51062e-06
-5.09246e-08
6.51006e-06
5.31185e-09
6.50974e-06
4.76558e-08
6.51228e-06
7.10192e-08
9.07621e-08
6.5184e-06
6.88625e-06
2.43099e-08
6.89343e-06
-3.60383e-08
6.89079e-06
-1.22915e-07
6.86481e-06
-2.13952e-07
6.86055e-06
-1.02916e-07
6.87112e-06
7.54833e-08
6.87265e-06
3.89466e-08
6.88617e-06
6.47472e-08
6.88856e-06
7.7641e-09
6.87996e-06
-1.07818e-07
6.87668e-06
-1.07702e-07
6.86407e-06
-1.31391e-07
6.85173e-06
-1.47621e-07
6.84341e-06
-1.06249e-07
6.83196e-06
-7.49619e-08
6.82506e-06
-4.40235e-08
6.82471e-06
5.66654e-09
6.82494e-06
4.74187e-08
6.82705e-06
6.8914e-08
8.50074e-08
6.8328e-06
7.21621e-06
2.72349e-08
7.22129e-06
-4.11164e-08
7.22019e-06
-1.21816e-07
7.19533e-06
-1.8909e-07
7.18961e-06
-9.71956e-08
7.20104e-06
6.40555e-08
7.20215e-06
3.78286e-08
7.21374e-06
5.31653e-08
7.21731e-06
4.19042e-09
7.20854e-06
-9.90444e-08
7.20404e-06
-1.03207e-07
7.19277e-06
-1.2012e-07
7.18042e-06
-1.35268e-07
7.17194e-06
-9.77695e-08
7.16151e-06
-6.45355e-08
7.15465e-06
-3.71653e-08
7.15437e-06
5.94678e-09
7.15534e-06
4.64505e-08
7.15704e-06
6.72151e-08
7.97661e-08
7.16228e-06
7.56201e-06
2.94501e-08
7.56483e-06
-4.39405e-08
7.56515e-06
-1.22126e-07
7.5419e-06
-1.65844e-07
7.53458e-06
-8.98741e-08
7.54654e-06
5.20883e-08
7.54771e-06
3.66594e-08
7.55708e-06
4.38038e-08
7.5614e-06
-1.36338e-10
7.55317e-06
-9.08121e-08
7.54736e-06
-9.73986e-08
7.53701e-06
-1.09768e-07
7.52506e-06
-1.23316e-07
7.51655e-06
-8.92597e-08
7.50697e-06
-5.49561e-08
7.50011e-06
-3.0309e-08
7.49973e-06
6.32497e-09
7.50154e-06
4.46418e-08
7.50309e-06
6.56633e-08
7.53124e-08
7.50755e-06
7.9244e-06
3.0865e-08
7.92487e-06
-4.44177e-08
7.9264e-06
-1.23652e-07
7.90519e-06
-1.44639e-07
7.89629e-06
-8.09673e-08
7.90836e-06
4.0019e-08
7.91003e-06
3.49809e-08
7.91708e-06
3.67559e-08
7.9216e-06
-4.65662e-09
7.91445e-06
-8.36589e-08
7.90758e-06
-9.0527e-08
7.89755e-06
-9.974e-08
7.88623e-06
-1.11995e-07
7.878e-06
-8.10304e-08
7.86913e-06
-4.60816e-08
7.86226e-06
-2.34425e-08
7.86159e-06
6.98917e-09
7.86407e-06
4.21651e-08
7.86601e-06
6.3725e-08
7.18256e-08
7.8695e-06
8.30414e-06
3.14046e-08
8.3023e-06
-4.25787e-08
8.30474e-06
-1.26086e-07
8.28592e-06
-1.25821e-07
8.27558e-06
-7.06255e-08
8.28727e-06
2.83226e-08
8.28982e-06
3.24298e-08
8.29467e-06
3.1906e-08
8.29875e-06
-8.73216e-09
8.29294e-06
-7.78494e-08
8.28553e-06
-8.31167e-08
8.27531e-06
-8.95193e-08
8.26459e-06
-1.01273e-07
8.25696e-06
-7.34054e-08
8.2488e-06
-3.79229e-08
8.24201e-06
-1.66457e-08
8.24084e-06
8.15441e-09
8.2436e-06
3.94048e-08
8.24636e-06
6.09671e-08
6.9064e-08
8.24912e-06
8.70205e-06
3.10195e-08
8.6981e-06
-3.86302e-08
8.70098e-06
-1.28972e-07
8.68481e-06
-1.09645e-07
8.6733e-06
-5.91209e-08
8.68413e-06
1.74978e-08
8.68782e-06
2.8742e-08
8.69076e-06
2.8961e-08
8.69379e-06
-1.17584e-08
8.68931e-06
-7.33739e-08
8.68199e-06
-7.5792e-08
8.6714e-06
-7.89328e-08
8.66093e-06
-9.08048e-08
8.65406e-06
-6.65315e-08
8.64688e-06
-3.07467e-08
8.64018e-06
-9.94712e-09
8.63841e-06
9.93297e-09
8.64105e-06
3.67605e-08
8.64463e-06
5.73829e-08
6.64127e-08
8.64729e-06
9.11895e-06
2.96932e-08
9.1132e-06
-3.28832e-08
9.116e-06
-1.31773e-07
9.10264e-06
-9.62833e-08
9.0903e-06
-4.67828e-08
9.09982e-06
7.97986e-09
9.10479e-06
2.37746e-08
9.10625e-06
2.74995e-08
9.10773e-06
-1.32465e-08
9.10431e-06
-6.99506e-08
9.09771e-06
-6.91916e-08
9.08691e-06
-6.81274e-08
9.07619e-06
-8.00934e-08
9.07003e-06
-6.0366e-08
9.06411e-06
-2.48295e-08
9.05767e-06
-3.50789e-09
9.05529e-06
1.2311e-08
9.05749e-06
3.45615e-08
9.0615e-06
5.3379e-08
6.32106e-08
9.0647e-06
9.55571e-06
2.7446e-08
9.54853e-06
-2.57107e-08
9.55068e-06
-1.33923e-07
9.54022e-06
-8.5821e-08
9.52745e-06
-3.40101e-08
9.53531e-06
1.18395e-10
9.54152e-06
1.75608e-08
9.54205e-06
2.69772e-08
9.54171e-06
-1.29062e-08
9.53877e-06
-6.70175e-08
9.53333e-06
-6.3752e-08
9.52274e-06
-5.75322e-08
9.51155e-06
-6.89005e-08
9.50567e-06
-5.44939e-08
9.50117e-06
-2.03281e-08
9.49538e-06
2.28393e-09
9.49247e-06
1.52169e-08
9.49401e-06
3.30215e-08
9.49793e-06
4.9466e-08
5.91869e-08
9.50195e-06
1.00132e-05
2.43522e-08
1.00051e-05
-1.75462e-08
1.0006e-05
-1.34841e-07
9.99844e-06
-7.82821e-08
9.98572e-06
-2.12831e-08
9.9916e-06
-5.76664e-09
9.99892e-06
1.02423e-08
9.99911e-06
2.67876e-08
9.99681e-06
-1.06039e-08
9.99372e-06
-6.39276e-08
9.98964e-06
-5.96777e-08
9.9798e-06
-4.76905e-08
9.96816e-06
-5.72628e-08
9.96204e-06
-4.83718e-08
9.95887e-06
-1.71547e-08
9.95413e-06
7.01766e-09
9.95081e-06
1.85377e-08
9.95169e-06
3.21483e-08
9.95514e-06
4.60139e-08
5.46481e-08
9.95968e-06
1.04925e-05
2.05322e-08
1.04837e-05
-8.83223e-09
1.04829e-05
-1.34018e-07
1.04782e-05
-7.35723e-08
1.04661e-05
-9.21014e-09
1.04697e-05
-9.34974e-09
1.04779e-05
2.06599e-09
1.04784e-05
2.63236e-08
1.04742e-05
-6.42827e-09
1.04703e-05
-6.00304e-08
1.04675e-05
-5.68855e-08
1.04589e-05
-3.91147e-08
1.04471e-05
-4.54831e-08
1.04403e-05
-4.15501e-08
1.04381e-05
-1.49361e-08
1.04348e-05
1.03466e-08
1.04313e-05
2.19895e-08
1.04316e-05
3.18958e-08
1.04344e-05
4.31748e-08
5.02161e-08
1.04388e-05
1.09944e-05
1.6149e-08
1.09856e-05
-1.20442e-11
1.09827e-05
-1.3112e-07
1.09805e-05
-7.14087e-08
1.09697e-05
1.5684e-09
1.09708e-05
-1.03987e-08
1.09794e-05
-6.55984e-09
1.09808e-05
2.49614e-08
1.0975e-05
-6.21063e-10
1.09698e-05
-5.48425e-08
1.09678e-05
-5.49298e-08
1.0961e-05
-3.22935e-08
1.09495e-05
-3.40095e-08
1.09418e-05
-3.38635e-08
1.094e-05
-1.30422e-08
1.09381e-05
1.21666e-08
1.09351e-05
2.5071e-08
1.09347e-05
3.22698e-08
1.0937e-05
4.08796e-08
4.63454e-08
1.09408e-05
1.15201e-05
1.14058e-08
1.15116e-05
8.46867e-09
1.15065e-05
-1.25964e-07
1.15065e-05
-7.13927e-08
1.14975e-05
1.04982e-08
1.1496e-05
-8.86283e-09
1.15045e-05
-1.50262e-08
1.15073e-05
2.21404e-08
1.15004e-05
6.25664e-09
1.14935e-05
-4.79203e-08
1.14918e-05
-5.32207e-08
1.14869e-05
-2.74751e-08
1.14764e-05
-2.34129e-08
1.14679e-05
-2.54414e-08
1.14657e-05
-1.07894e-08
1.14652e-05
1.26524e-08
1.14631e-05
2.7209e-08
1.14621e-05
3.32396e-08
1.1464e-05
3.89623e-08
4.32027e-08
1.14671e-05
1.20707e-05
6.53766e-09
1.2063e-05
1.61557e-08
1.20555e-05
-1.185e-07
1.20571e-05
-7.29974e-08
1.20505e-05
1.71391e-08
1.20466e-05
-4.95299e-09
1.20541e-05
-2.25497e-08
1.20587e-05
1.75449e-08
1.20516e-05
1.33247e-08
1.20428e-05
-3.91212e-08
1.20406e-05
-5.09366e-08
1.20377e-05
-2.46463e-08
1.20286e-05
-1.43086e-08
1.20198e-05
-1.66602e-08
1.20167e-05
-7.67338e-09
1.20171e-05
1.2287e-08
1.20163e-05
2.80144e-08
1.2015e-05
3.44924e-08
1.20164e-05
3.75754e-08
4.05907e-08
1.2019e-05
1.26473e-05
1.7931e-09
1.26409e-05
2.26216e-08
1.26312e-05
-1.08822e-07
1.26338e-05
-7.55968e-08
1.26298e-05
2.11606e-08
1.26239e-05
9.0797e-10
1.26296e-05
-2.82686e-08
1.26361e-05
1.10904e-08
1.26298e-05
1.95944e-08
1.26193e-05
-2.86266e-08
1.26157e-05
-4.73038e-08
1.26144e-05
-2.33894e-08
1.26073e-05
-7.21622e-09
1.25987e-05
-8.05143e-09
1.25947e-05
-3.66463e-09
1.25952e-05
1.18092e-08
1.25958e-05
2.74493e-08
1.25949e-05
3.53742e-08
1.25954e-05
3.70498e-08
3.82786e-08
1.25977e-05
1.32513e-05
-2.57386e-09
1.32464e-05
2.74758e-08
1.32348e-05
-9.71703e-08
1.32377e-05
-7.8479e-08
1.32364e-05
2.24201e-08
1.32293e-05
8.059e-09
1.32324e-05
-3.14334e-08
1.32404e-05
3.09265e-09
1.3236e-05
2.40268e-08
1.32242e-05
-1.68669e-08
1.32188e-05
-4.1826e-08
1.32183e-05
-2.29378e-08
1.32135e-05
-2.39144e-09
1.32056e-05
-1.86531e-10
1.3201e-05
9.16135e-10
1.3201e-05
1.18051e-08
1.32025e-05
2.59736e-08
1.32027e-05
3.52075e-08
1.32025e-05
3.72106e-08
3.65147e-08
1.32043e-05
1.38839e-05
-6.3388e-09
1.3881e-05
3.04388e-08
1.38678e-05
-8.39583e-08
1.38701e-05
-8.08738e-08
1.38716e-05
2.09643e-08
1.3864e-05
1.56941e-08
1.38641e-05
-3.15815e-08
1.38729e-05
-5.69041e-09
1.38712e-05
2.57702e-08
1.38589e-05
-4.59381e-09
1.38514e-05
-3.43793e-08
1.38509e-05
-2.23595e-08
1.38482e-05
2.55417e-10
1.38416e-05
6.3792e-09
1.38368e-05
5.80997e-09
1.38361e-05
1.24714e-08
1.38379e-05
2.41742e-08
1.38393e-05
3.37574e-08
1.38393e-05
3.72144e-08
3.56773e-08
1.38402e-05
1.45467e-05
-9.33823e-09
1.45457e-05
3.14179e-08
1.45315e-05
-6.97911e-08
1.45326e-05
-8.19892e-08
1.45366e-05
1.70362e-08
1.45294e-05
2.28932e-08
1.45264e-05
-2.86566e-08
1.45348e-05
-1.4079e-08
1.45362e-05
2.44265e-08
1.45246e-05
6.991e-09
1.45153e-05
-2.50661e-08
1.45137e-05
-2.08314e-08
1.45129e-05
1.13843e-09
1.4508e-05
1.12808e-08
1.4503e-05
1.07335e-08
1.45019e-05
1.35905e-08
1.45035e-05
2.26032e-08
1.45058e-05
3.14754e-08
1.45068e-05
3.61537e-08
3.54596e-08
1.4507e-05
1.5241e-05
-1.14794e-08
1.52419e-05
3.0512e-08
1.52275e-05
-5.53954e-08
1.52267e-05
-8.11232e-08
1.52326e-05
1.10747e-08
1.52267e-05
2.87743e-08
1.52211e-05
-2.29796e-08
1.52278e-05
-2.08477e-08
1.5232e-05
2.02384e-08
1.52225e-05
1.64914e-08
1.52118e-05
-1.43124e-08
1.52088e-05
-1.78201e-08
1.52089e-05
1.03839e-09
1.52058e-05
1.42936e-08
1.52013e-05
1.52714e-08
1.51998e-05
1.51201e-08
1.5201e-05
2.13669e-08
1.52035e-05
2.90166e-08
1.52056e-05
3.39961e-08
3.49791e-08
1.52061e-05
1.59686e-05
-1.27415e-08
1.59711e-05
2.79916e-08
1.59572e-05
-4.15069e-08
1.59539e-05
-7.78377e-08
1.59613e-05
3.76143e-09
1.59575e-05
3.25575e-08
1.59497e-05
-1.52495e-08
1.59537e-05
-2.4829e-08
1.59601e-05
1.38981e-08
1.59537e-05
2.28077e-08
1.59424e-05
-3.01521e-09
1.59377e-05
-1.30507e-08
1.59379e-05
8.47484e-10
1.59367e-05
1.55106e-08
1.5933e-05
1.88764e-08
1.5931e-05
1.71686e-08
1.5932e-05
2.03247e-08
1.59343e-05
2.67822e-08
1.59369e-05
3.13642e-08
3.35542e-08
1.59383e-05
1.6731e-05
-1.31736e-08
1.67348e-05
2.42604e-08
1.6722e-05
-2.87708e-08
1.67163e-05
-7.20994e-08
1.67241e-05
-4.00775e-09
1.67228e-05
3.37995e-08
1.67141e-05
-6.49157e-09
1.67147e-05
-2.54401e-08
1.67219e-05
6.65444e-09
1.67191e-05
2.5621e-08
1.67087e-05
7.42051e-09
1.67023e-05
-6.66868e-09
1.67018e-05
1.33572e-09
1.67019e-05
1.54398e-08
1.66996e-05
2.11205e-08
1.66973e-05
1.95231e-08
1.66979e-05
1.97254e-08
1.67e-05
2.46919e-08
1.67025e-05
2.88161e-08
3.13492e-08
1.67047e-05
1.75301e-05
-1.28908e-08
1.75345e-05
1.9821e-08
1.75235e-05
-1.77251e-08
1.75156e-05
-6.42337e-08
1.75229e-05
-1.12732e-08
1.75242e-05
3.2507e-08
1.75155e-05
2.13435e-09
1.75129e-05
-2.28499e-08
1.75196e-05
4.48255e-11
1.75201e-05
2.5093e-08
1.75115e-05
1.60175e-08
1.75042e-05
6.59996e-10
1.75026e-05
2.93107e-09
1.75032e-05
1.47666e-08
1.75024e-05
2.19984e-08
1.75003e-05
2.16252e-08
1.75001e-05
1.98782e-08
1.7502e-05
2.27541e-08
1.75044e-05
2.6487e-08
2.87646e-08
1.7507e-05
1.83675e-05
-1.20508e-08
1.83721e-05
1.51946e-08
1.83631e-05
-8.72692e-09
1.83537e-05
-5.4811e-08
1.83596e-05
-1.71963e-08
1.83631e-05
2.90772e-08
1.83556e-05
9.55183e-09
1.83505e-05
-1.77425e-08
1.83552e-05
-4.64852e-09
1.83582e-05
2.21053e-08
1.83522e-05
2.19888e-08
1.83449e-05
8.04206e-09
1.83421e-05
5.65596e-09
1.83427e-05
1.41774e-08
1.83428e-05
2.18884e-08
1.83415e-05
2.29611e-08