/*--------------------------------*- C++ -*----------------------------------*\
| =========                 |                                                 |
| \\      /  F ield         | OpenFOAM: The Open Source CFD Toolbox           |
|  \\    /   O peration     | Version:  v1912                                 |
|   \\  /    A nd           | Website:  www.openfoam.com                      |
|    \\/     M anipulation  |                                                 |
\*---------------------------------------------------------------------------*/
FoamFile
{
    version     2.0;
    format      ascii;
    class       volScalarField;
    location    "9.2";
    object      p;
}
// * * * * * * * * * * * * * * * * * * * * * * * * * * * * * * * * * * * * * //

dimensions      [0 2 -2 0 0 0 0];


internalField   nonuniform List<scalar> 
9600
(
6.03064e-12
0.00261891
0.00466354
0.000184119
0.00228362
0.00412557
0.0030155
0.00343977
0.00355251
0.00190722
0.00175708
0.00155096
0.00108093
0.000769512
-0.00456155
-0.00524968
-0.00792201
-0.00907576
-0.00799695
-0.00770243
-4.68763e-06
0.00262286
0.00466331
0.000190839
0.00229415
0.00407719
0.0030217
0.00340319
0.00352841
0.00191759
0.00185043
0.00152601
0.00109942
0.000687511
-0.00447137
-0.00523645
-0.00786391
-0.0090347
-0.00800573
-0.00774088
-9.50101e-06
0.00262691
0.00466356
0.000198201
0.00230481
0.00403616
0.00301976
0.00337881
0.00350738
0.00191782
0.00190315
0.00148391
0.00112794
0.000594762
-0.00433867
-0.00522659
-0.00777201
-0.00900641
-0.00804425
-0.00776804
-1.35794e-05
0.00262955
0.00466279
0.000202504
0.00231699
0.00398967
0.00300081
0.00337357
0.00348032
0.00190804
0.00195641
0.00143061
0.00115719
0.000487
-0.00422121
-0.00521931
-0.00769083
-0.00899243
-0.00809073
-0.00781397
-1.68989e-05
0.00263076
0.0046603
0.000201225
0.00233716
0.00393863
0.00297053
0.0033829
0.00344841
0.00189819
0.00201058
0.00136697
0.00119081
0.000356928
-0.00411543
-0.00521444
-0.00762016
-0.00896868
-0.0081554
-0.00787296
-1.95257e-05
0.00263075
0.00465563
0.000193
0.00236642
0.00388464
0.00293239
0.00340394
0.00341084
0.00189054
0.00206192
0.00129959
0.00123488
0.000214833
-0.00401071
-0.00521235
-0.00754672
-0.00894103
-0.00824382
-0.007918
-2.17115e-05
0.00262979
0.00464852
0.000178434
0.00240066
0.00382734
0.00288966
0.00342925
0.00336788
0.00188339
0.0021072
0.00123346
0.00128997
6.57244e-05
-0.00391114
-0.00520845
-0.00747878
-0.00891823
-0.00834195
-0.00795298
-2.38462e-05
0.00262825
0.0046391
0.000160316
0.00243517
0.00376598
0.00284632
0.00345379
0.00331968
0.00187332
0.00214473
0.00116965
0.00135022
-9.11332e-05
-0.00382035
-0.00520094
-0.00742867
-0.00889263
-0.00844665
-0.00800023
-2.62858e-05
0.00262649
0.00462765
0.000143015
0.00246692
0.00370009
0.00280654
0.00347471
0.00326728
0.00185755
0.00217405
0.00110654
0.00140525
-0.000254708
-0.00373802
-0.00519061
-0.00739761
-0.00885936
-0.0085685
-0.00806765
-2.92317e-05
0.00262473
0.00461439
0.000131031
0.00249474
0.00362979
0.00277385
0.00349104
0.00321301
0.00183492
0.00219509
0.00104273
0.00144738
-0.000419892
-0.00366463
-0.00517591
-0.00738235
-0.00882098
-0.00870634
-0.00814746
-3.27061e-05
0.00262289
0.00459971
0.000127776
0.00251887
0.00355603
0.00275011
0.00350344
0.00315994
0.00180605
0.00220822
0.000979361
0.001473
-0.000581271
-0.00360132
-0.00515357
-0.00737929
-0.00877617
-0.00884697
-0.00823515
-3.65894e-05
0.00262077
0.00458408
0.000135211
0.00253994
0.00348032
0.00273483
0.00351308
0.00311084
0.00177316
0.00221435
0.00091951
0.00148053
-0.00073426
-0.00354756
-0.0051203
-0.0073812
-0.00871872
-0.00897718
-0.00832959
-4.06938e-05
0.00261814
0.00456792
0.000153463
0.00255844
0.00340444
0.00272591
0.00352095
0.00306644
0.00173938
0.00221471
0.000866103
0.00146957
-0.000875833
-0.00350139
-0.00507314
-0.00737868
-0.00864287
-0.00908519
-0.00842465
-4.48223e-05
0.00261485
0.00455157
0.000181255
0.00257459
0.00332999
0.00272082
0.00352752
0.00302521
0.00170769
0.00221067
0.000820357
0.0014409
-0.00100444
-0.00346063
-0.00500218
-0.00736454
-0.00854597
-0.00915988
-0.00851033
-4.8812e-05
0.00261084
0.00453523
0.000216813
0.00258835
0.00325813
0.00271773
0.00353242
0.00298458
0.00168007
0.00220311
0.00078203
0.00139665
-0.00111934
-0.00342391
-0.00492309
-0.00733559
-0.00842914
-0.00919286
-0.00857799
-5.25538e-05
0.0026056
0.00451888
0.000258526
0.0025998
0.00318939
0.0027157
0.00353454
0.00294208
0.00165743
0.00219181
0.000750454
0.00133948
-0.00122133
-0.00339031
-0.00482857
-0.00729074
-0.00829608
-0.00918003
-0.00862299
-5.59749e-05
0.00260021
0.00450235
0.000305157
0.0026091
0.00312374
0.00271431
0.00353285
0.00289598
0.00163969
0.00217603
0.000724734
0.00127196
-0.00131149
-0.00336059
-0.00472052
-0.00722968
-0.00815182
-0.00912105
-0.00864417
-5.9015e-05
0.00259416
0.00448545
0.000355753
0.00261651
0.00306074
0.00271314
0.00352671
0.00284565
0.00162621
0.00215477
0.000703985
0.00119614
-0.00139094
-0.00333482
-0.00460145
-0.00715327
-0.00800232
-0.00901806
-0.00864254
-6.1604e-05
0.0025874
0.00446801
0.000409491
0.0026223
0.0029997
0.00271164
0.00351581
0.00279125
0.00161646
0.00212694
0.00068757
0.00111383
-0.0014616
-0.00331288
-0.0044728
-0.00706302
-0.00785335
-0.00887498
-0.00862068
-6.36383e-05
0.00257984
0.00444989
0.000465623
0.0026267
0.00294005
0.00270912
0.00350025
0.00273312
0.00161009
0.00209175
0.000674752
0.00102704
-0.00152529
-0.00329486
-0.00433797
-0.00696059
-0.00770935
-0.00869735
-0.00858141
-6.49901e-05
0.00257136
0.00443098
0.000523484
0.00262982
0.00288138
0.00270489
0.00348042
0.00267135
0.0016069
0.00204913
0.000664413
0.000936769
-0.00158333
-0.00328038
-0.00420258
-0.00684769
-0.00757342
-0.00849106
-0.00852622
-6.55161e-05
0.00256177
0.00441124
0.000582516
0.00263164
0.00282354
0.00269829
0.00345665
0.00260599
0.00160673
0.00199952
0.000654946
0.000847306
-0.00163681
-0.00326897
-0.00406645
-0.00672527
-0.00744823
-0.00826154
-0.0084532
-6.50414e-05
0.00255087
0.00439065
0.000642281
0.00263209
0.00276666
0.00268866
0.00342926
0.00253691
0.0016093
0.00194352
0.000644736
0.000760061
-0.00168661
-0.00326093
-0.00393123
-0.00659288
-0.00733634
-0.00801453
-0.00835639
-6.33708e-05
0.00253842
0.00436919
0.000702435
0.00263107
0.002711
0.00267538
0.00339865
0.00246367
0.00161408
0.00188242
0.000631755
0.000677294
-0.00173266
-0.00325719
-0.00379739
-0.00644844
-0.00723958
-0.00775682
-0.00822838
-6.02922e-05
0.00252414
0.00434682
0.000762668
0.00262848
0.00265687
0.00265783
0.00336515
0.00238594
0.00162038
0.00181808
0.000613505
0.000600797
-0.0017739
-0.00325899
-0.0036656
-0.00628974
-0.0071586
-0.00749668
-0.00806118
-5.55594e-05
0.00250771
0.0043236
0.000822681
0.00262415
0.00260468
0.00263531
0.00332898
0.0023037
0.00162732
0.00175252
0.0005878
0.000531602
-0.00180892
-0.00326716
-0.00353779
-0.00611426
-0.00709174
-0.00724364
-0.00784788
-4.88966e-05
0.00248881
0.0042995
0.000882233
0.00261794
0.00255496
0.0026072
0.00329043
0.00221701
0.00163366
0.00168825
0.000552847
0.000469462
-0.00183546
-0.0032819
-0.00341663
-0.00591897
-0.00703531
-0.00700897
-0.00758541
-4.00149e-05
0.00246708
0.0042745
0.00094111
0.00260964
0.00250824
0.00257287
0.00324975
0.00212638
0.00163771
0.00162814
0.000507582
0.000412689
-0.00185079
-0.00330302
-0.00330569
-0.00570103
-0.00698272
-0.00680367
-0.00727745
-2.86098e-05
0.00244214
0.0042486
0.000999187
0.00259895
0.00246509
0.00253169
0.00320701
0.00203297
0.00163746
0.00157487
0.000452142
0.000359047
-0.00185248
-0.00332982
-0.00320841
-0.00545951
-0.00692499
-0.00663673
-0.00693697
-1.43538e-05
0.0024136
0.00422175
0.0010565
0.00258552
0.00242605
0.00248326
0.00316209
0.00193835
0.00163053
0.00153055
0.000388284
0.00030481
-0.00183807
-0.00335967
-0.00312948
-0.00519656
-0.00685166
-0.0065134
-0.00658226
3.08671e-06
0.00238107
0.0041938
0.00111317
0.00256884
0.00239173
0.0024275
0.00311457
0.00184452
0.0016144
0.00149658
0.000318847
0.000245612
-0.0018058
-0.00338786
-0.0030746
-0.00491868
-0.00675023
-0.00643215
-0.00623494
2.40468e-05
0.0023442
0.00416459
0.00116944
0.00254815
0.00236281
0.0023646
0.00306364
0.00175358
0.00158694
0.00147332
0.000247438
0.000177592
-0.00175608
-0.00340851
-0.00304689
-0.00463495
-0.00660829
-0.00638443
-0.00592061
4.88876e-05
0.00230264
0.00413391
0.00122578
0.00252271
0.00233986
0.00229497
0.00300812
0.00166799
0.00154633
0.00145974
0.000178801
9.76319e-05
-0.00169121
-0.00341514
-0.00304626
-0.00435527
-0.00641647
-0.00635574
-0.00566139
7.79882e-05
0.00225608
0.00410132
0.00128286
0.00249153
0.00232319
0.00221964
0.00294634
0.00159034
0.00149171
0.00145342
0.000117733
4.01989e-06
-0.00161554
-0.00340047
-0.0030685
-0.00409273
-0.00617329
-0.00632858
-0.00547079
0.000111699
0.00220428
0.00406629
0.00134147
0.00245356
0.00231298
0.00214037
0.00287628
0.00152248
0.0014235
0.00145058
6.87766e-05
-0.000102808
-0.00153627
-0.00335893
-0.00310571
-0.00386026
-0.00588625
-0.00628195
-0.00535088
0.000150403
0.00214709
0.00402806
0.00140258
0.00240824
0.00230877
0.00205909
0.00279583
0.00146547
0.00134336
0.00144643
3.58731e-05
-0.00022042
-0.00146132
-0.00328843
-0.0031491
-0.00366662
-0.00556921
-0.00619253
-0.00528681
0.000194448
0.00208463
0.0039854
0.00146683
0.00235542
0.00230963
0.00197835
0.00270305
0.00141937
0.00125436
0.00143573
2.09933e-05
-0.000344935
-0.00139504
-0.00319106
-0.00318764
-0.00351568
-0.00524067
-0.00604448
-0.00525104
0.000244065
0.00201736
0.00393666
0.00153474
0.00229551
0.00231411
0.00190119
0.00259672
0.00138322
0.00116059
0.00141401
2.41113e-05
-0.000470947
-0.00134933
-0.00306415
-0.00320908
-0.00340105
-0.00492037
-0.00583993
-0.00521546
0.000299549
0.00194606
0.00387937
0.00160655
0.00223003
0.00232018
0.00183046
0.00247661
0.00135486
0.00106624
0.00137805
4.38935e-05
-0.000591092
-0.00133067
-0.00291812
-0.00320401
-0.00331077
-0.00461958
-0.00558834
-0.00515156
0.000360935
0.00187207
0.00381095
0.00168182
0.00216082
0.0023256
0.00176917
0.00234377
0.00133109
0.000976226
0.00132547
7.56596e-05
-0.000696446
-0.00133749
-0.00276852
-0.00317354
-0.00323668
-0.0043429
-0.00530044
-0.0050311
0.000428155
0.00179683
0.00372879
0.00175983
0.0020906
0.00232716
0.00172001
0.00220117
0.00130609
0.000894671
0.00125781
0.000113573
-0.000782201
-0.0013682
-0.00262699
-0.00311852
-0.00317361
-0.00409486
-0.0049908
-0.00484089
0.000501176
0.00172176
0.00363085
0.00183897
0.00202264
0.00232264
0.00168446
0.00205265
0.00127496
0.000822165
0.00117754
0.000153725
-0.000844245
-0.00141691
-0.00250242
-0.00304395
-0.00311697
-0.00387939
-0.00467452
-0.00458837
0.000579642
0.00164806
0.00351605
0.00191772
0.00195923
0.00230986
0.00166371
0.0019022
0.00123373
0.000760459
0.00108769
0.000189667
-0.000880276
-0.00146939
-0.00239781
-0.00295927
-0.00306481
-0.00369848
-0.00438607
-0.00428685
0.000663252
0.00157676
0.0033837
0.00199395
0.00190326
0.00228769
0.00165699
0.0017552
0.00117796
0.000707814
0.000993985
0.000218399
-0.000890938
-0.00151867
-0.00230726
-0.00284765
-0.00298555
-0.0035287
-0.00413028
-0.00403475
0.000751196
0.00150907
0.00323527
0.00206459
0.00185583
0.00225668
0.00166172
0.00161684
0.00110675
0.000659592
0.000900805
0.00023831
-0.000876976
-0.00155434
-0.00222641
-0.00271571
-0.00288915
-0.0033712
-0.00391084
-0.00383427
0.000842135
0.00144691
0.00307274
0.00212619
0.0018185
0.00221687
0.00167564
0.0014916
0.00102229
0.000614247
0.000806765
0.000249722
-0.000843553
-0.00157148
-0.0021537
-0.00257057
-0.00277029
-0.00322438
-0.00372756
-0.0036971
0.000932986
0.00139276
0.00290125
0.00217699
0.00179102
0.00216979
0.00169462
0.0013837
0.000929095
0.000564337
0.000724394
0.000257539
-0.00079786
-0.00156955
-0.00209469
-0.00246722
-0.00268296
-0.00310487
-0.00357629
-0.00355873
0.0010205
0.00134952
0.00272668
0.00220604
0.00177065
0.00211727
0.00171578
0.00129625
0.000830241
0.000507776
0.000649612
0.0002613
-0.000746637
-0.00154891
-0.00203406
-0.00235417
-0.00257353
-0.00297866
-0.00343945
-0.00346953
0.00110315
0.001319
0.0025532
0.00221298
0.00175513
0.0020603
0.00173587
0.00123195
0.00073123
0.000442459
0.000577199
0.000260992
-0.000686302
-0.00151423
-0.001985
-0.00226593
-0.00247756
-0.00286101
-0.00330512
-0.00335713
0.00117962
0.00130115
0.00238576
0.00219717
0.00173926
0.00199973
0.00175355
0.00119092
0.000637746
0.000367324
0.000505103
0.000257032
-0.000622742
-0.00147049
-0.00194714
-0.00219347
-0.00237922
-0.00273609
-0.00317379
-0.00324133
0.00124926
0.00129486
0.00222756
0.00216018
0.0017201
0.00193666
0.00176601
0.0011712
0.000556175
0.000283526
0.000425787
0.000247333
-0.000556222
-0.0014146
-0.0019089
-0.0021323
-0.00229376
-0.00261082
-0.00303158
-0.00312064
0.00131249
0.00129761
0.00208226
0.00210681
0.00169536
0.00186904
0.00177079
0.00117098
0.000490533
0.000193016
0.000339381
0.000233089
-0.000488619
-0.00134763
-0.0018673
-0.00208063
-0.00221755
-0.00247734
-0.00286064
-0.00299039
0.00136877
0.0013073
0.00195379
0.00204132
0.00166236
0.00179518
0.00176679
0.00118517
0.000443002
0.000103896
0.00024586
0.000207586
-0.00042184
-0.00126276
-0.00181543
-0.00203111
-0.00214368
-0.0023563
-0.00268616
-0.00284959
0.00141811
0.00132168
0.00183788
0.00196769
0.00162192
0.00171465
0.00174985
0.00120964
0.000417223
1.83346e-05
0.000143556
0.00017443
-0.000351707
-0.0011627
-0.00175298
-0.00198446
-0.0020744
-0.002252
-0.00252598
-0.00269085
0.00146059
0.00133863
0.00173648
0.00189147
0.00157561
0.0016256
0.00171675
0.00123963
0.000413662
-5.61121e-05
3.86064e-05
0.000131227
-0.00028939
-0.0010536
-0.00166917
-0.00193428
-0.00201488
-0.00215756
-0.00238378
-0.00251722
0.0014965
0.00135665
0.00164997
0.00181544
0.00152571
0.00152934
0.00166453
0.00126744
0.000433016
-0.000111156
-6.82111e-05
7.16091e-05
-0.000235145
-0.000931688
-0.00156332
-0.0018791
-0.00196821
-0.00206871
-0.00224987
-0.00234462
0.00152617
0.00137453
0.00157426
0.00174114
0.00147629
0.00142835
0.00159037
0.00128627
0.000473309
-0.000140658
-0.000168582
-1.91509e-06
-0.000196078
-0.000809185
-0.00144277
-0.00180426
-0.00191822
-0.00198628
-0.00212505
-0.00219378
0.00154986
0.00139145
0.00150844
0.00166945
0.00143001
0.00132636
0.00149346
0.00129057
0.000528932
-0.000141621
-0.000251703
-8.85129e-05
-0.00018387
-0.000691996
-0.00130305
-0.00170095
-0.00185751
-0.00191993
-0.00201697
-0.00205855
0.00156778
0.00140693
0.00145017
0.00159922
0.00138873
0.00122941
0.00137606
0.00127356
0.000593918
-0.000114021
-0.000311244
-0.00017889
-0.000198403
-0.000590747
-0.00115278
-0.00157635
-0.00177928
-0.00185731
-0.00191895
-0.00193113
0.00157998
0.00142043
0.001399
0.00152847
0.00135232
0.00114374
0.00124413
0.00122906
0.000660185
-5.84247e-05
-0.000343269
-0.000261297
-0.000234988
-0.000519243
-0.0010063
-0.00143312
-0.00167368
-0.00178112
-0.00183081
-0.00181714
0.00158669
0.00143108
0.00135493
0.00145686
0.00131745
0.00107484
0.00110978
0.00115611
0.000714533
2.00814e-05
-0.000344449
-0.000328913
-0.000283629
-0.000476171
-0.000876679
-0.00128119
-0.00154595
-0.00168469
-0.00174578
-0.00171322
0.00158803
0.001438
0.00131741
0.00138593
0.00127884
0.00102273
0.000986185
0.00105789
0.000744865
0.000110939
-0.000313898
-0.000373824
-0.000334021
-0.000457271
-0.000771321
-0.00113574
-0.00140726
-0.00156625
-0.00164881
-0.00161339
0.00158399
0.00144064
0.00128541
0.00131707
0.00123449
0.000984246
0.000882555
0.000945122
0.000744403
0.00020143
-0.000255389
-0.000391059
-0.000376816
-0.000455122
-0.000689939
-0.00100365
-0.00127003
-0.00143326
-0.00153273
-0.00151303
0.00157498
0.00143836
0.00125756
0.00125199
0.00118489
0.000952589
0.000801763
0.000832419
0.000713333
0.000278881
-0.000176029
-0.000381496
-0.000404118
-0.000459592
-0.000631516
-0.00088659
-0.00114107
-0.00130146
-0.00140017
-0.00140211
0.00156137
0.00143081
0.00123252
0.00119201
0.00113144
0.000921926
0.000741268
0.000731883
0.000658098
0.000331632
-8.52645e-05
-0.000345364
-0.000413951
-0.000460963
-0.00059016
-0.000787896
-0.00101978
-0.00118065
-0.00126215
-0.00127397
0.00154352
0.00141788
0.00120881
0.00113776
0.00107567
0.000889224
0.000696951
0.000649334
0.00059211
0.000356423
2.28704e-06
-0.000284566
-0.000403783
-0.000455764
-0.000556471
-0.000708371
-0.000905509
-0.00106832
-0.0011342
-0.00113535
0.00152176
0.00139957
0.00118493
0.00108937
0.00101952
0.000853212
0.000662915
0.000585026
0.000527823
0.00035883
7.27634e-05
-0.00020989
-0.000369826
-0.00044047
-0.000525047
-0.000644684
-0.000802073
-0.000957577
-0.00102067
-0.00100004
0.00149625
0.00137616
0.00115948
0.00104605
0.000965027
0.000813994
0.000634026
0.000536717
0.000471068
0.000347615
0.000125258
-0.000136431
-0.000316218
-0.000408376
-0.000491405
-0.000591095
-0.00071349
-0.000849282
-0.000915205
-0.000877742
0.00146724
0.00134856
0.00113133
0.00100655
0.000913759
0.000772388
0.000606794
0.000501713
0.000425414
0.000328841
0.000161868
-6.94555e-05
-0.0002542
-0.000359757
-0.000448564
-0.000541092
-0.000638003
-0.000748085
-0.000812053
-0.000769081
0.00143443
0.00131662
0.00110007
0.000969298
0.00086631
0.000729911
0.000578705
0.000474424
0.000393011
0.000310201
0.000184001
-9.46046e-06
-0.000190058
-0.000301511
-0.000393525
-0.00048873
-0.000571021
-0.00065651
-0.000710588
-0.000668925
0.00139802
0.00128157
0.00106575
0.000932434
0.000822128
0.000688217
0.000549775
0.000449859
0.000369933
0.000296719
0.00019539
4.09081e-05
-0.000122616
-0.000236301
-0.000326606
-0.000427031
-0.000504455
-0.000570149
-0.000610662
-0.000569185
0.0013575
0.00124243
0.00102819
0.000895036
0.000780417
0.000647366
0.000520093
0.000427319
0.000353574
0.000290193
0.00020335
7.82601e-05
-6.01216e-05
-0.000168722
-0.000254494
-0.000357632
-0.0004394
-0.000491516
-0.000514984
-0.000466688
0.00131315
0.00119988
0.000987604
0.000855727
0.000740667
0.000608397
0.000487643
0.000403002
0.000338993
0.000287341
0.000218017
0.000116024
2.48891e-06
-9.23536e-05
-0.000171284
-0.000275227
-0.000371368
-0.000428676
-0.000445298
-0.00039198
0.00126422
0.0011532
0.000944436
0.000814134
0.000700545
0.000572949
0.000456246
0.000376642
0.000321356
0.000274877
0.000222881
0.000150106
6.32125e-05
-5.45701e-06
-5.88715e-05
-0.000141337
-0.000239418
-0.000315383
-0.000360459
-0.000342363
0.00121054
0.00110065
0.000896833
0.000770746
0.000659841
0.000537485
0.000424725
0.000350131
0.000308641
0.000267207
0.000215772
0.00016317
9.43151e-05
3.31215e-05
-1.39041e-06
-4.50233e-05
-8.86888e-05
-9.98739e-05
-7.72348e-05
-1.21304e-05
0.00115233
0.00104446
0.000844751
0.000723272
0.000619794
0.000503663
0.00038696
0.000309541
0.000283249
0.000281388
0.000269628
0.000256504
0.000237861
0.000189814
0.000131468
3.17099e-05
-0.000121842
-0.000263025
-0.000342839
-0.00033393
0.00108681
0.000983315
0.000790011
0.000674828
0.000582161
0.000475316
0.000341504
0.000224598
0.000142107
0.00010365
0.000127701
0.000181145
0.000258165
0.000317409
0.000395261
0.000520342
0.000649779
0.000802306
0.000971016
0.00111469
0.00100766
0.000914416
0.000734961
0.000641221
0.000567774
0.000476179
0.00035575
0.000274419
0.00026485
0.000270693
0.000288824
0.000290716
0.0002815
0.000270525
0.000201311
0.000109878
-6.0357e-06
-0.000136066
-0.000233194
-0.00025492
0.000900499
0.000796646
0.000664701
0.000625071
0.000588831
0.000507773
0.000374739
0.000272267
0.000230504
0.000186427
0.000163222
0.000183352
0.000215123
0.000298122
0.000440826
0.000628696
0.000828707
0.000997743
0.00113219
0.00120872
0.000832055
0.000725803
0.000602183
0.000581473
0.000561789
0.000490967
0.000348676
0.00022525
0.000192905
0.000176912
0.000170338
0.000193956
0.000211156
0.000225969
0.000252313
0.000312424
0.000395565
0.000477289
0.000555512
0.000614423
-0.00670616
-0.00471326
-0.00866584
-0.0150382
-0.0161164
-0.0131291
-0.00989894
-0.0075569
-0.00593103
-0.00485463
-0.00419211
-0.00358524
-0.0026795
-0.00164637
-0.000867489
-0.000123937
0.000959498
0.00167426
0.00038789
-0.00301129
-0.00547577
-0.00433969
-0.00110663
0.00147077
0.00274229
0.00335589
0.00368644
0.00367358
0.00326179
0.0025485
0.00213649
0.00292339
0.0046229
0.00594141
0.00637443
0.00631135
0.00611626
0.00605692
0.00637152
0.00705908
0.00790338
0.00874064
0.00952048
0.0101123
0.0104947
0.0108852
0.0114422
0.0120639
0.0126639
0.0132145
0.0137356
0.0142627
0.0148152
0.0153698
0.0159068
0.0164651
0.0170936
0.017726
0.0183521
0.0190396
0.0197396
0.0204173
0.0210835
0.0218013
0.0225294
0.0232477
0.0239705
0.0247258
0.0254911
0.0263127
0.0272034
0.0280558
0.0288123
0.0295587
0.0304215
0.03134
0.0322797
0.0332117
0.0341082
0.0350663
0.0360193
0.036992
0.0379865
0.0390246
0.0400401
0.041072
0.0421585
0.0432521
0.0443692
0.0454948
0.046693
0.0478391
0.0490874
0.0502897
0.0516224
0.0529009
0.0542302
0.0557288
0.0570303
0.0586022
-0.00680552
-0.00486124
-0.00859721
-0.0148693
-0.016019
-0.0130878
-0.00987795
-0.0075441
-0.0059204
-0.00484403
-0.00418239
-0.00357724
-0.00267218
-0.00163864
-0.000860369
-0.000118198
0.000965656
0.00168378
0.000399019
-0.00300582
-0.00547684
-0.00434072
-0.00110354
0.00147529
0.00274589
0.00335875
0.00368925
0.0036765
0.0032647
0.00255061
0.00213694
0.00292324
0.00462389
0.00594335
0.00637625
0.00631275
0.00611735
0.00605769
0.00637206
0.00705961
0.00790399
0.00874128
0.00952118
0.0101131
0.0104954
0.0108857
0.0114427
0.0120644
0.0126644
0.0132149
0.013736
0.0142632
0.0148156
0.0153702
0.0159072
0.0164655
0.017094
0.0177264
0.0183524
0.0190399
0.0197399
0.0204177
0.0210838
0.0218016
0.0225296
0.0232479
0.0239708
0.024726
0.0254914
0.0263129
0.0272036
0.028056
0.0288126
0.0295589
0.0304216
0.0313402
0.0322799
0.0332119
0.0341083
0.0350664
0.0360195
0.0369922
0.0379866
0.0390247
0.0400402
0.0410721
0.0421586
0.0432522
0.0443693
0.0454949
0.0466931
0.0478392
0.0490875
0.0502898
0.0516225
0.052901
0.0542303
0.0557289
0.0570305
0.0586024
-0.00708961
-0.00518344
-0.00848763
-0.0145304
-0.0158173
-0.0130043
-0.00983901
-0.00752508
-0.00591141
-0.00483823
-0.00417581
-0.00356995
-0.00266574
-0.00163379
-0.000856331
-0.000113758
0.000971941
0.00169338
0.000409567
-0.00300306
-0.00548241
-0.0043438
-0.00109935
0.00148129
0.00275007
0.00336171
0.00369206
0.00367923
0.00326726
0.00255199
0.00213615
0.00292231
0.00462526
0.00594595
0.00637832
0.00631404
0.00611802
0.00605793
0.00637221
0.00705993
0.00790453
0.00874191
0.00952195
0.0101139
0.0104959
0.0108859
0.011443
0.0120649
0.0126649
0.0132154
0.0137364
0.0142635
0.014816
0.0153706
0.0159075
0.0164658
0.0170943
0.0177267
0.0183526
0.0190402
0.0197402
0.0204179
0.0210841
0.0218018
0.0225299
0.0232482
0.023971
0.0247262
0.0254915
0.026313
0.0272038
0.0280563
0.0288127
0.029559
0.0304217
0.0313403
0.03228
0.033212
0.0341084
0.0350665
0.0360196
0.0369923
0.0379867
0.0390248
0.0400404
0.0410722
0.0421587
0.0432523
0.0443694
0.045495
0.0466932
0.0478393
0.0490875
0.0502899
0.0516226
0.0529011
0.0542303
0.055729
0.0570307
0.0586027
-0.00739409
-0.00550513
-0.0083074
-0.0140602
-0.015506
-0.0128651
-0.00977009
-0.00748987
-0.00589629
-0.00483194
-0.0041691
-0.00356033
-0.00265728
-0.00163043
-0.000856484
-0.000112806
0.00097662
0.00170288
0.000421239
-0.00300032
-0.00548942
-0.00434727
-0.00109368
0.00148899
0.00275552
0.00336564
0.00369553
0.00368233
0.00327014
0.00255354
0.00213503
0.00292124
0.00462729
0.00594944
0.00638101
0.00631555
0.0061186
0.006058
0.00637226
0.00706027
0.00790515
0.0087427
0.00952292
0.0101149
0.0104965
0.0108862
0.0114434
0.0120654
0.0126654
0.0132158
0.0137368
0.0142639
0.0148163
0.0153709
0.0159079
0.016466
0.0170946
0.017727
0.0183529
0.0190405
0.0197405
0.0204182
0.0210843
0.021802
0.0225301
0.0232484
0.0239712
0.0247264
0.0254917
0.0263132
0.027204
0.0280565
0.0288129
0.0295591
0.0304218
0.0313405
0.0322802
0.0332122
0.0341086
0.0350666
0.0360197
0.0369924
0.0379868
0.0390249
0.0400405
0.0410723
0.0421588
0.0432524
0.0443695
0.0454951
0.0466933
0.0478394
0.0490876
0.05029
0.0516226
0.0529011
0.0542304
0.0557292
0.0570308
0.0586032
-0.00766687
-0.00579613
-0.00810245
-0.0135499
-0.0151465
-0.0126953
-0.00968061
-0.00744067
-0.00587425
-0.00482331
-0.0041608
-0.00354805
-0.00264697
-0.00162806
-0.000859347
-0.000115392
0.000975684
0.00170676
0.00043115
-0.00299552
-0.00549383
-0.00434881
-0.00108698
0.00149713
0.00276161
0.00337074
0.00370015
0.0036861
0.00327362
0.00255574
0.00213429
0.00292054
0.00463013
0.0059539
0.0063845
0.00631751
0.00611928
0.00605815
0.00637244
0.00706072
0.00790592
0.0087437
0.00952412
0.010116
0.0104972
0.0108865
0.0114438
0.012066
0.012666
0.0132164
0.0137373
0.0142643
0.0148167
0.0153713
0.0159082
0.0164664
0.0170949
0.0177273
0.0183532
0.0190408
0.0197408
0.0204185
0.0210846
0.0218023
0.0225304
0.0232487
0.0239714
0.0247266
0.0254919
0.0263133
0.0272043
0.0280569
0.0288132
0.0295592
0.030422
0.0313406
0.0322803
0.0332124
0.0341087
0.0350667
0.0360198
0.0369925
0.0379869
0.039025
0.0400406
0.0410724
0.0421589
0.0432525
0.0443696
0.0454952
0.0466934
0.0478395
0.0490877
0.05029
0.0516227
0.0529012
0.0542304
0.0557293
0.057031
0.0586039
-0.0079029
-0.00609856
-0.00792148
-0.01303
-0.0147602
-0.0125107
-0.00958211
-0.00738414
-0.00584746
-0.00481177
-0.00415045
-0.00353454
-0.00263654
-0.00162676
-0.000863633
-0.00012034
0.000967964
0.00170081
0.000434735
-0.002991
-0.00549419
-0.00434574
-0.00107785
0.00150533
0.00276714
0.00337597
0.00370543
0.00369074
0.00327842
0.00255957
0.00213465
0.00292031
0.00463344
0.00595923
0.00638911
0.0063203
0.00612041
0.00605873
0.00637303
0.00706141
0.00790688
0.00874498
0.00952559
0.0101173
0.0104979
0.0108869
0.0114443
0.0120667
0.0126667
0.013217
0.0137379
0.0142649
0.0148172
0.0153717
0.0159087
0.0164668
0.0170952
0.0177276
0.0183535
0.0190411
0.0197412
0.0204188
0.0210848
0.0218026
0.0225307
0.0232489
0.0239717
0.0247269
0.0254921
0.0263134
0.0272045
0.0280572
0.0288134
0.0295593
0.0304221
0.0313408
0.0322805
0.0332126
0.0341088
0.0350669
0.03602
0.0369926
0.037987
0.0390252
0.0400407
0.0410725
0.042159
0.0432526
0.0443697
0.0454953
0.0466935
0.0478395
0.0490878
0.0502901
0.0516228
0.0529013
0.0542303
0.0557294
0.0570311
0.0586049
-0.0081288
-0.00643465
-0.00776624
-0.012495
-0.0143515
-0.0123199
-0.00948285
-0.00732512
-0.00581772
-0.00479781
-0.00413853
-0.00352079
-0.00262708
-0.00162678
-0.000869015
-0.000127029
0.000953857
0.00168324
0.000427918
-0.00299246
-0.00549425
-0.00433729
-0.00106371
0.00151542
0.00277237
0.00338037
0.00370983
0.00369504
0.00328448
0.00256615
0.0021375
0.00292089
0.00463649
0.0059646
0.0063946
0.00632418
0.00612255
0.00606042
0.00637448
0.00706249
0.00790807
0.00874654
0.00952732
0.0101187
0.0104987
0.0108874
0.011445
0.0120675
0.0126674
0.0132177
0.0137386
0.0142655
0.0148178
0.0153723
0.0159092
0.0164673
0.0170957
0.017728
0.0183539
0.0190416
0.0197415
0.0204191
0.0210852
0.0218029
0.022531
0.0232492
0.0239719
0.0247271
0.0254924
0.0263136
0.0272048
0.0280576
0.0288137
0.0295594
0.0304222
0.031341
0.0322807
0.0332128
0.034109
0.0350671
0.0360202
0.0369928
0.0379872
0.0390253
0.0400409
0.0410726
0.0421591
0.0432527
0.0443698
0.0454953
0.0466936
0.0478396
0.0490879
0.0502902
0.0516228
0.0529014
0.0542303
0.0557294
0.0570313
0.0586061
-0.00834949
-0.00678433
-0.00762353
-0.0119495
-0.0139288
-0.012129
-0.00938638
-0.00726514
-0.00578546
-0.00478167
-0.00412558
-0.00350729
-0.00261856
-0.0016277
-0.000875727
-0.000137016
0.000932416
0.00165392
0.000408917
-0.00300543
-0.00550184
-0.00432693
-0.00104307
0.00153013
0.0027791
0.00338422
0.00371224
0.00369701
0.00329006
0.00257511
0.00214385
0.00292347
0.00463932
0.00596907
0.00639985
0.0063285
0.00612579
0.00606394
0.00637757
0.00706441
0.00790962
0.00874841
0.00952926
0.0101202
0.0104997
0.0108882
0.011446
0.0120685
0.0126683
0.0132186
0.0137395
0.0142665
0.0148186
0.0153729
0.0159099
0.0164679
0.0170962
0.0177284
0.0183544
0.0190421
0.019742
0.0204195
0.0210856
0.0218033
0.0225314
0.0232496
0.0239722
0.0247274
0.0254927
0.0263138
0.0272052
0.0280581
0.028814
0.0295595
0.0304224
0.0313412
0.032281
0.0332131
0.0341092
0.0350673
0.0360204
0.0369929
0.0379873
0.0390255
0.040041
0.0410727
0.0421593
0.0432528
0.0443699
0.0454954
0.0466937
0.0478397
0.049088
0.0502903
0.0516229
0.0529015
0.0542301
0.0557294
0.0570314
0.0586076
-0.00854619
-0.00712996
-0.00750447
-0.0114104
-0.0134972
-0.0119367
-0.00929175
-0.00720426
-0.00575099
-0.00476354
-0.00411161
-0.00349386
-0.0026106
-0.00162923
-0.000883998
-0.000152136
0.000901555
0.00160979
0.000376815
-0.00303185
-0.00552438
-0.00432137
-0.00101777
0.00155057
0.00278896
0.00338887
0.00371315
0.00369565
0.00329285
0.00258394
0.00215268
0.00292904
0.00464322
0.00597259
0.00640357
0.00633165
0.00612911
0.00606923
0.00638291
0.00706784
0.00791194
0.00875068
0.00953133
0.0101216
0.0105007
0.0108892
0.0114472
0.0120698
0.0126692
0.0132194
0.0137405
0.0142676
0.0148195
0.0153738
0.0159109
0.0164689
0.0170968
0.0177289
0.018355
0.0190428
0.0197425
0.02042
0.0210861
0.0218037
0.0225318
0.02325
0.0239725
0.0247277
0.025493
0.026314
0.0272056
0.0280587
0.0288143
0.0295597
0.0304227
0.0313415
0.0322813
0.0332134
0.0341095
0.0350675
0.0360206
0.0369931
0.0379875
0.0390257
0.0400412
0.0410728
0.0421594
0.043253
0.0443701
0.0454956
0.0466938
0.0478398
0.0490881
0.0502903
0.0516229
0.0529016
0.05423
0.0557292
0.0570316
0.0586094
-0.00870699
-0.00747161
-0.00742355
-0.0108857
-0.0130538
-0.0117398
-0.00919856
-0.00714326
-0.00571496
-0.00474359
-0.00409623
-0.00347984
-0.00260288
-0.00163138
-0.000893637
-0.000173124
0.000858757
0.0015496
0.000330426
-0.00307024
-0.00556525
-0.00432786
-0.000992375
0.00157521
0.00280178
0.00339476
0.00371359
0.00369196
0.00329247
0.00258996
0.00216082
0.00293691
0.00464963
0.00597624
0.0064053
0.00633212
0.00613073
0.00607505
0.00639028
0.0070733
0.00791564
0.00875369
0.00953354
0.0101229
0.0105016
0.0108904
0.0114487
0.0120713
0.0126703
0.0132204
0.0137417
0.0142688
0.0148206
0.0153749
0.0159123
0.0164703
0.0170976
0.0177294
0.0183558
0.0190436
0.019743
0.0204206
0.0210868
0.0218044
0.0225323
0.0232504
0.0239729
0.024728
0.0254933
0.0263142
0.0272061
0.0280594
0.0288147
0.0295599
0.0304229
0.0313418
0.0322816
0.0332137
0.0341097
0.0350678
0.0360209
0.0369934
0.0379878
0.039026
0.0400415
0.041073
0.0421596
0.0432532
0.0443702
0.0454957
0.046694
0.0478399
0.0490882
0.0502904
0.051623
0.0529018
0.0542297
0.0557289
0.0570318
0.0586116
-0.00883308