/*--------------------------------*- C++ -*----------------------------------*\
| =========                 |                                                 |
| \\      /  F ield         | OpenFOAM: The Open Source CFD Toolbox           |
|  \\    /   O peration     | Version:  v1912                                 |
|   \\  /    A nd           | Website:  www.openfoam.com                      |
|    \\/     M anipulation  |                                                 |
\*---------------------------------------------------------------------------*/
FoamFile
{
    version     2.0;
    format      ascii;
    class       volVectorField;
    location    "3.8";
    object      U;
}
// * * * * * * * * * * * * * * * * * * * * * * * * * * * * * * * * * * * * * //

dimensions      [0 1 -1 0 0 0 0];


internalField   nonuniform List<vector> 
9600
(
(0.902726 0.00557036 0)
(1.15872 -0.00185152 0)
(0.822824 0.00232784 0)
(1.08584 0.012593 0)
(0.999589 0.0054439 0)
(1.0645 -0.032479 0)
(0.710264 0.0216619 0)
(1.27354 0.0129849 0)
(0.666203 0.00326012 0)
(1.29492 0.026946 0)
(0.763536 0.00142994 0)
(1.13231 0.023664 0)
(0.878453 0.00484312 0)
(1.07407 0.0205267 0)
(0.895646 0.0195288 0)
(1.0558 0.0128387 0)
(0.905013 0.0216396 0)
(1.06787 -0.00564701 0)
(0.883866 0.0140098 0)
(1.08705 -0.0192317 0)
(0.906577 0.00508456 0)
(1.15077 -0.000985585 0)
(0.829971 0.00282612 0)
(1.0787 0.0113016 0)
(1.00237 0.00558688 0)
(1.06477 -0.0288564 0)
(0.713811 0.0198005 0)
(1.26558 0.0140712 0)
(0.676056 0.00253784 0)
(1.28407 0.0258725 0)
(0.800043 0.00402527 0)
(1.11885 0.0226566 0)
(0.916045 0.00578039 0)
(1.05547 0.0206723 0)
(0.941101 0.0201062 0)
(1.0147 0.0128963 0)
(0.969068 0.0212414 0)
(1.00006 -0.00526148 0)
(0.975325 0.0140602 0)
(0.984431 -0.0194382 0)
(0.914737 0.0046341 0)
(1.13593 -0.000325445 0)
(0.846968 0.00317899 0)
(1.06268 0.00990292 0)
(1.00647 0.00565641 0)
(1.06038 -0.0261621 0)
(0.726122 0.0169482 0)
(1.24551 0.0149083 0)
(0.7105 0.00155144 0)
(1.24997 0.0247702 0)
(0.866669 0.00596986 0)
(1.08598 0.0207663 0)
(0.961195 0.00680943 0)
(1.02981 0.0202159 0)
(0.980626 0.0208796 0)
(0.993147 0.0124534 0)
(0.993332 0.0209614 0)
(0.992105 -0.00448521 0)
(0.988909 0.012604 0)
(0.990476 -0.0135284 0)
(0.926497 0.004269 0)
(1.11563 0.000239372 0)
(0.873116 0.00356918 0)
(1.04049 0.00874109 0)
(1.01134 0.00558194 0)
(1.05153 -0.0233702 0)
(0.752875 0.0145355 0)
(1.20992 0.0152848 0)
(0.771847 0.00112107 0)
(1.19075 0.0230295 0)
(0.937421 0.00813383 0)
(1.0476 0.0194668 0)
(0.983986 0.00757655 0)
(1.00912 0.0196948 0)
(0.993293 0.0214334 0)
(0.986159 0.0122475 0)
(0.992709 0.0209937 0)
(0.988554 -0.00450867 0)
(0.986294 0.0130977 0)
(0.986244 -0.0127766 0)
(0.940346 0.00396464 0)
(1.09208 0.000688358 0)
(0.904704 0.00406699 0)
(1.01732 0.00773372 0)
(1.01562 0.00541036 0)
(1.03937 -0.0208663 0)
(0.795297 0.0127104 0)
(1.1619 0.0152019 0)
(0.844505 0.00127466 0)
(1.1207 0.0209011 0)
(0.988304 0.00995981 0)
(1.01887 0.0190772 0)
(0.986417 0.0080971 0)
(0.992512 0.0194749 0)
(0.989921 0.0218622 0)
(0.981239 0.0124747 0)
(0.986093 0.0206175 0)
(0.986112 -0.00385442 0)
(0.983333 0.0124623 0)
(0.986404 -0.0110794 0)
(0.954375 0.00372702 0)
(1.06824 0.000984045 0)
(0.936521 0.0046086 0)
(0.998703 0.00690334 0)
(1.01736 0.00515905 0)
(1.0268 -0.0187463 0)
(0.846267 0.0113845 0)
(1.11026 0.0146701 0)
(0.907771 0.00177836 0)
(1.0601 0.0190281 0)
(1.01337 0.0111963 0)
(1.00368 0.0194124 0)
(0.982876 0.00864739 0)
(0.979192 0.0194358 0)
(0.982062 0.0221476 0)
(0.978156 0.012612 0)
(0.982005 0.0202136 0)
(0.98708 -0.0034824 0)
(0.984325 0.0117696 0)
(0.989882 -0.00940916 0)
(0.966842 0.00356244 0)
(1.04707 0.00112215 0)
(0.963898 0.00513317 0)
(0.988068 0.00630539 0)
(1.01565 0.00487767 0)
(1.01674 -0.0171271 0)
(0.893862 0.0105231 0)
(1.06471 0.0139184 0)
(0.950779 0.0024012 0)
(1.02039 0.017676 0)
(1.01948 0.0118567 0)
(0.997797 0.0200847 0)
(0.981699 0.00932939 0)
(0.971219 0.0194213 0)
(0.976206 0.022186 0)
(0.978185 0.0125541 0)
(0.982751 0.0196577 0)
(0.991228 -0.00315425 0)
(0.988643 0.0109865 0)
(0.994773 -0.00784772 0)
(0.976714 0.00346213 0)
(1.0305 0.00112925 0)
(0.984292 0.00559268 0)
(0.985462 0.00595264 0)
(1.0114 0.00459971 0)
(1.01024 -0.0159965 0)
(0.929198 0.010113 0)
(1.03147 0.0131853 0)
(0.974682 0.00294984 0)
(1.00021 0.0167898 0)
(1.01596 0.0121321 0)
(0.995714 0.0207495 0)
(0.983263 0.0100882 0)
(0.969152 0.0194232 0)
(0.974952 0.0220547 0)
(0.981209 0.0123026 0)
(0.987104 0.0189451 0)
(0.997099 -0.00286978 0)
(0.994706 0.0101235 0)
(0.999876 -0.0063021 0)
(0.983879 0.00340984 0)
(1.01883 0.00104502 0)
(0.997541 0.00594933 0)
(0.98836 0.00581253 0)
(1.00665 0.00436765 0)
(1.00628 -0.0152394 0)
(0.95053 0.0100395 0)
(1.01194 0.0125512 0)
(0.986375 0.0033513 0)
(0.99201 0.0162544 0)
(1.00944 0.0122233 0)
(0.994108 0.0212388 0)
(0.985321 0.0108359 0)
(0.971168 0.0194285 0)
(0.977878 0.0218226 0)
(0.986462 0.01192 0)
(0.993174 0.0181189 0)
(1.00319 -0.00258358 0)
(1.00101 0.00926575 0)
(1.00462 -0.00473372 0)
(0.988895 0.0033893 0)
(1.01112 0.000907454 0)
(1.00502 0.00618755 0)
(0.993656 0.00582818 0)
(1.00322 0.00421619 0)
(1.00328 -0.0147146 0)
(0.961442 0.0101333 0)
(1.00371 0.0119848 0)
(0.992438 0.00364664 0)
(0.989283 0.0159726 0)
(1.00334 0.0122587 0)
(0.992039 0.0215357 0)
(0.986629 0.0115067 0)
(0.975041 0.019351 0)
(0.983146 0.0215082 0)
(0.992796 0.011467 0)
(0.999589 0.0172364 0)
(1.00855 -0.00223488 0)
(1.00646 0.00843796 0)
(1.00855 -0.00317836 0)
(0.992518 0.00338776 0)
(1.00601 0.000747946 0)
(1.0085 0.00631236 0)
(0.999098 0.00593711 0)
(1.00186 0.00416013 0)
(1.00033 -0.014308 0)
(0.966807 0.0102505 0)
(1.00269 0.0114295 0)
(0.996665 0.00391085 0)
(0.988831 0.0158763 0)
(0.999031 0.0123073 0)
(0.989936 0.0216799 0)
(0.987345 0.012056 0)
(0.979432 0.019121 0)
(0.989073 0.0211187 0)
(0.999055 0.0109837 0)
(1.00541 0.0163513 0)
(1.01267 -0.00179234 0)
(1.01046 0.00765546 0)
(1.01134 -0.00166269 0)
(0.995329 0.00339698 0)
(1.00246 0.0005905 0)
(1.00947 0.00633787 0)
(1.00358 0.00608351 0)
(1.0024 0.00420468 0)
(0.997433 -0.0139452 0)
(0.970115 0.0103002 0)
(1.00496 0.0108467 0)
(1.00036 0.00419404 0)
(0.989581 0.0159259 0)
(0.996828 0.0124028 0)
(0.988593 0.021714 0)
(0.988208 0.0124693 0)
(0.983874 0.0187328 0)
(0.994727 0.0206552 0)
(1.00449 0.0105051 0)
(1.01007 0.015506 0)
(1.01539 -0.00124621 0)
(1.01285 0.00693168 0)
(1.01282 -0.000206915 0)
(0.997604 0.00341169 0)
(0.999908 0.00045282 0)
(1.00891 0.00628116 0)
(1.00673 0.00622411 0)
(1.00418 0.00434088 0)
(0.995007 -0.0135861 0)
(0.972981 0.0102468 0)
(1.00788 0.0102296 0)
(1.00349 0.00450712 0)
(0.991059 0.0160928 0)
(0.996495 0.0125438 0)
(0.98858 0.0216724 0)
(0.98985 0.0127713 0)
(0.988321 0.0182 0)
(0.999789 0.0201352 0)
(1.00885 0.0100777 0)
(1.01335 0.0147234 0)
(1.01681 -0.000589914 0)
(1.01378 0.00627792 0)
(1.01309 0.00114752 0)
(0.999374 0.00342783 0)
(0.998192 0.000346941 0)
(1.00751 0.00616106 0)
(1.00853 0.00632923 0)
(1.00652 0.00454754 0)
(0.993407 -0.013213 0)
(0.975833 0.0100945 0)
(1.01011 0.0095934 0)
(1.00567 0.00483856 0)
(0.992746 0.0163361 0)
(0.997498 0.012712 0)
(0.989998 0.021574 0)
(0.992475 0.0129848 0)
(0.992759 0.0175646 0)
(1.00421 0.0195997 0)
(1.01218 0.00973358 0)
(1.01535 0.014019 0)
(1.01722 0.000176087 0)
(1.01365 0.00572356 0)
(1.01244 0.00239395 0)
(1.00057 0.00344188 0)
(0.99728 0.000278359 0)
(1.00576 0.00599777 0)
(1.00906 0.00638307 0)
(1.00888 0.00479564 0)
(0.9927 -0.0128199 0)
(0.978682 0.00987105 0)
(1.01121 0.00896313 0)
(1.00658 0.00516761 0)
(0.994121 0.0166103 0)
(0.999202 0.0128761 0)
(0.992497 0.021421 0)
(0.995813 0.0131334 0)
(0.997002 0.0168879 0)
(1.00792 0.0190809 0)
(1.01461 0.00948795 0)
(1.01634 0.0134039 0)
(1.01696 0.00103401 0)
(1.01295 0.00529378 0)
(1.01127 0.00349677 0)
(1.00116 0.00345089 0)
(0.9971 0.000245621 0)
(1.00411 0.00581389 0)
(1.0085 0.00638069 0)
(1.01091 0.00505485 0)
(0.992721 -0.0124086 0)
(0.981498 0.0096074 0)
(1.01118 0.00837344 0)
(1.00618 0.00547792 0)
(0.99486 0.0168673 0)
(1.00104 0.0130027 0)
(0.995458 0.0212067 0)
(0.999299 0.0132533 0)
(1.0007 0.0162051 0)
(1.01079 0.0185963 0)
(1.01624 0.00936447 0)
(1.0166 0.0128878 0)
(1.01635 0.001959 0)
(1.0121 0.00498834 0)
(1.00997 0.00442315 0)
(1.00121 0.00345282 0)
(0.997463 0.000241944 0)
(1.00284 0.00563163 0)
(1.00715 0.00632735 0)
(1.0124 0.00529676 0)
(0.993232 -0.011985 0)
(0.984222 0.00933357 0)
(1.01029 0.00786004 0)
(1.00473 0.00575906 0)
(0.994917 0.0170737 0)
(1.00262 0.0130618 0)
(0.998246 0.0209324 0)
(1.00236 0.01336 0)
(1.00351 0.015551 0)
(1.01268 0.0181516 0)
(1.01712 0.0093538 0)
(1.01638 0.0124584 0)
(1.01559 0.00290847 0)
(1.01138 0.00480894 0)
(1.00883 0.00519798 0)
(1.00091 0.00344691 0)
(0.998103 0.000258072 0)
(1.00207 0.00546724 0)
(1.00539 0.00623653 0)
(1.01324 0.00549959 0)
(0.994043 -0.0115564 0)
(0.986689 0.00907412 0)
(1.00889 0.00745033 0)
(1.00268 0.00600234 0)
(0.994432 0.0172123 0)
(1.00376 0.0130434 0)
(1.00041 0.0205989 0)
(1.00465 0.0134729 0)
(1.00533 0.0149427 0)
(1.01359 0.0177375 0)
(1.01734 0.00942314 0)
(1.01584 0.0120984 0)
(1.01477 0.00385604 0)
(1.01088 0.00474049 0)
(1.00798 0.0058252 0)
(1.00045 0.0034337 0)
(0.998775 0.000284668 0)
(1.00175 0.00532903 0)
(1.00364 0.00612449 0)
(1.01349 0.00565174 0)
(0.995001 -0.0111275 0)
(0.988692 0.00884207 0)
(1.00738 0.00715681 0)
(1.00059 0.00620449 0)
(0.99361 0.0172758 0)
(1.00442 0.0129573 0)
(1.00178 0.0202143 0)
(1.00607 0.0136 0)
(1.0063 0.0143842 0)
(1.01366 0.0173525 0)
(1.01703 0.00954738 0)
(1.01513 0.0117856 0)
(1.01392 0.00477528 0)
(1.01058 0.00476132 0)
(1.00746 0.00631229 0)
(1.00002 0.00341406 0)
(0.999326 0.000315813 0)
(1.00173 0.00521556 0)
(1.00216 0.0060083 0)
(1.01327 0.00574842 0)
(0.995954 -0.0106974 0)
(0.990128 0.00863916 0)
(1.00605 0.00697266 0)
(0.998867 0.00636953 0)
(0.992658 0.0172758 0)
(1.00469 0.0128125 0)
(1.00243 0.019789 0)
(1.00673 0.0137434 0)
(1.00669 0.0138691 0)
(1.01317 0.0169867 0)
(1.01634 0.00971411 0)
(1.01436 0.011487 0)
(1.01307 0.00563518 0)
(1.01041 0.00485494 0)
(1.00723 0.0066684 0)
(0.999692 0.00338895 0)
(0.99971 0.000349119 0)
(1.00187 0.00511989 0)
(1.0011 0.00589991 0)
(1.01281 0.00579298 0)
(0.996768 -0.0102623 0)
(0.991057 0.00846029 0)
(1.00505 0.00687323 0)
(0.997739 0.00651175 0)
(0.991775 0.0172303 0)
(1.00468 0.0126267 0)
(1.0026 0.0193248 0)
(1.00684 0.0138964 0)
(1.00679 0.0133952 0)
(1.01236 0.0166371 0)
(1.01545 0.00989606 0)
(1.0136 0.0111828 0)
(1.01224 0.00643709 0)
(1.01031 0.00501483 0)
(1.00721 0.00688303 0)
(0.999491 0.00335858 0)
(0.999953 0.000385596 0)
(1.00203 0.00503285 0)
(1.00042 0.00580539 0)
(1.01226 0.00579512 0)
(0.997373 -0.00981618 0)
(0.991634 0.00828985 0)
(1.0044 0.00683916 0)
(0.997192 0.00663845 0)
(0.991126 0.0171588 0)
(1.00454 0.0124198 0)
(1.00253 0.0188259 0)
(1.0066 0.0140499 0)
(1.00679 0.0129585 0)
(1.01143 0.0162974 0)
(1.01451 0.0100905 0)
(1.01292 0.0108656 0)
(1.01147 0.00718154 0)
(1.01023 0.00524031 0)
(1.00735 0.00696074 0)
(0.999395 0.0033228 0)
(1.00011 0.000427183 0)
(1.00215 0.00494678 0)
(1.00005 0.00572784 0)
(1.01172 0.00576238 0)
(0.99779 -0.00935114 0)
(0.992006 0.00811194 0)
(1.00402 0.00685405 0)
(0.997079 0.00674883 0)
(0.990806 0.0170756 0)
(1.0044 0.0122099 0)
(1.00242 0.0182958 0)
(1.00617 0.0142061 0)
(1.0068 0.0125428 0)
(1.01052 0.0159597 0)
(1.01358 0.0103111 0)
(1.01234 0.0105204 0)
(1.01077 0.00784084 0)
(1.01015 0.00553709 0)
(1.00759 0.00691087 0)
(0.99937 0.00328078 0)
(1.00023 0.000476431 0)
(1.0022 0.00485636 0)
(0.99989 0.00566545 0)
(1.01123 0.00570519 0)
(0.998098 -0.00886719 0)
(0.99226 0.00792162 0)
(1.0038 0.00689957 0)
(0.997222 0.00684524 0)
(0.990832 0.0169886 0)
(1.00429 0.0120091 0)
(1.00242 0.0177415 0)
(1.00565 0.0143596 0)
(1.00682 0.0121552 0)
(1.00967 0.0156206 0)
(1.0127 0.0105582 0)
(1.01184 0.0101534 0)
(1.01015 0.00839329 0)
(1.01003 0.00591342 0)
(1.00789 0.00675236 0)
(0.999384 0.00323147 0)
(1.00035 0.000536438 0)
(1.00219 0.00475711 0)
(0.999861 0.00561635 0)
(1.01078 0.00562764 0)
(0.998386 -0.00836001 0)
(0.992429 0.00771206 0)
(1.00364 0.00696782 0)
(0.997473 0.00692634 0)
(0.991155 0.0168913 0)
(1.00426 0.0118338 0)
(1.00256 0.017167 0)
(1.00509 0.0145057 0)
(1.00684 0.0118031 0)
(1.00893 0.0152726 0)
(1.01185 0.0108244 0)
(1.01142 0.00978364 0)
(1.00962 0.00881375 0)
(1.00986 0.0063733 0)
(1.0082 0.00653685 0)
(0.999417 0.00317423 0)
(1.00049 0.000608797 0)
(1.00212 0.00464829 0)
(0.999916 0.00557952 0)
(1.01033 0.00552989 0)
(0.998711 -0.00782893 0)
(0.992522 0.00748742 0)
(1.00344 0.00705427 0)
(0.997745 0.00697746 0)
(0.991688 0.0167848 0)
(1.00426 0.0116934 0)
(1.00284 0.0165708 0)
(1.00453 0.0146553 0)
(1.00684 0.0114949 0)
(1.00833 0.0148949 0)
(1.01104 0.0111045 0)
(1.01106 0.00943522 0)
(1.00919 0.009074 0)
(1.00963 0.00690133 0)
(1.00851 0.00633863 0)
(0.999456 0.00310713 0)
(1.00063 0.000695824 0)
(1.00202 0.0045281 0)
(1.00003 0.00555343 0)
(1.00988 0.00541404 0)
(0.999087 -0.0072736 0)
(0.992554 0.0072554 0)
(1.00317 0.00715037 0)
(0.998002 0.00699928 0)
(0.992337 0.0166608 0)
(1.00429 0.0115936 0)
(1.00323 0.0159628 0)
(1.00402 0.01481 0)
(1.00679 0.0112337 0)
(1.00789 0.0144782 0)
(1.01028 0.0114041 0)
(1.01074 0.00913492 0)
(1.00886 0.00916953 0)
(1.00936 0.00746841 0)
(1.00877 0.0062303 0)
(0.999496 0.00303045 0)
(1.00076 0.00079689 0)
(1.00194 0.00439688 0)
(1.00018 0.0055362 0)
(1.00944 0.00527862 0)
(0.999491 -0.00669115 0)
(0.992553 0.00702045 0)
(1.00281 0.00725116 0)
(0.998239 0.00699008 0)
(0.993007 0.0165066 0)
(1.00432 0.0115344 0)
(1.00368 0.0153475 0)
(1.00359 0.0149624 0)
(1.00672 0.0110329 0)
(1.00763 0.0140157 0)
(1.00961 0.0117053 0)
(1.01046 0.00890742 0)
(1.00866 0.00909872 0)
(1.00907 0.00800853 0)
(1.00895 0.00626292 0)
(0.999537 0.00294401 0)
(1.00086 0.000913115 0)
(1.00188 0.00425194 0)
(1.00036 0.00552851 0)
(1.00899 0.00512898 0)
(0.999883 -0.00609061 0)
(0.992562 0.00679501 0)
(1.0024 0.00735212 0)
(0.998462 0.00694487 0)
(0.993626 0.0163234 0)
(1.00434 0.0115146 0)
(1.00415 0.0147266 0)
(1.00327 0.0150954 0)
(1.00664 0.010911 0)
(1.00756 0.0134893 0)
(1.00905 0.0119976 0)
(1.01022 0.00879166 0)
(1.00859 0.00888718 0)
(1.00879 0.00845644 0)
(1.00903 0.00647037 0)
(0.999578 0.00284791 0)
(1.00091 0.00104344 0)
(1.00187 0.00409309 0)
(1.00056 0.00552979 0)
(1.00855 0.00496604 0)
(1.00023 -0.00546949 0)
(0.992624 0.00658462 0)
(1.00197 0.00744598 0)
(0.998679 0.0068719 0)
(0.994147 0.0161049 0)
(1.00433 0.0115379 0)
(1.00461 0.0141001 0)
(1.00306 0.0151943 0)
(1.00656 0.0108732 0)
(1.00767 0.0129166 0)
(1.00864 0.0122422 0)
(1.00999 0.00880241 0)
(1.00863 0.00859623 0)
(1.00858 0.00877487 0)
(1.00902 0.00682619 0)
(0.999619 0.00274373 0)
(1.00092 0.00118502 0)
(1.00191 0.00392126 0)
(1.00076 0.00553814 0)
(1.00813 0.00479704 0)
(1.0005 -0.00483756 0)
(0.992765 0.00639316 0)
(1.00156 0.00752658 0)
(0.998895 0.00677826 0)
(0.994553 0.0158409 0)
(1.0043 0.011601 0)
(1.00504 0.0134742 0)
(1.00297 0.0152402 0)
(1.00649 0.0109271 0)
(1.0079 0.0123136 0)
(1.00837 0.0124131 0)
(1.00976 0.00893997 0)
(1.00875 0.00826642 0)
(1.00846 0.00892756 0)
(1.00893 0.00726582 0)
(0.999663 0.00263166 0)
(1.00088 0.00133717 0)
(1.002 0.00373603 0)
(1.00095 0.0055529 0)
(1.00772 0.00462701 0)
(1.0007 -0.00420383 0)
(0.992993 0.00623138 0)
(1.00122 0.0075923 0)
(0.999118 0.00667441 0)
(0.994858 0.0155374 0)
(1.00423 0.0116877 0)
(1.00543 0.0128656 0)
(1.00296 0.0152148 0)
(1.00641 0.0110622 0)
(1.00822 0.011695 0)
(1.00823 0.0124885 0)
(1.00951 0.00919184 0)
(1.0089 0.00796805 0)
(1.00845 0.00889683 0)
(1.00881 0.00771771 0)
(0.999709 0.0025139 0)
(1.00081 0.00149672 0)
(1.00211 0.00353876 0)
(1.00112 0.00557145 0)
(1.00732 0.00446419 0)
(1.00083 -0.00357554 0)
(0.993298 0.00609827 0)
(1.00096 0.00763997 0)
(0.999357 0.00656756 0)
(0.995094 0.0151917 0)
(1.00412 0.0117893 0)
(1.00577 0.0122744 0)
(1.003 0.0151051 0)
(1.00629 0.0112726 0)
(1.00856 0.0111089 0)
(1.00822 0.0124366 0)
(1.00923 0.00953209 0)
(1.00903 0.00777724 0)
(1.00854 0.00870132 0)
(1.0087 0.00808873 0)
(0.99976 0.00239063 0)
(1.00072 0.00166276 0)
(1.00223 0.00333176 0)
(1.00125 0.00558986 0)
(1.00692 0.00431391 0)
(1.00092 -0.00296458 0)
(0.993659 0.00599645 0)
(1.00079 0.00767056 0)
(0.999623 0.00645759 0)
(0.995302 0.0148009 0)
(1.00396 0.0119041 0)
(1.00607 0.0117102 0)
(1.00307 0.0148935 0)
(1.00611 0.0115319 0)
(1.00887 0.0105824 0)
(1.0083 0.0122486 0)
(1.00893 0.00991693 0)
(1.00908 0.00772609 0)
(1.0087 0.00841633 0)
(1.00865 0.00832617 0)
(0.999815 0.00226187 0)
(1.00063 0.0018336 0)
(1.00234 0.00311948 0)
(1.00136 0.0056066 0)
(1.00654 0.00417984 0)
(1.00099 -0.00238511 0)
(0.994058 0.00592618 0)
(1.00068 0.00769671 0)
(0.999917 0.00635667 0)
(0.995519 0.0143792 0)
(1.00376 0.0120159 0)
(1.00632 0.0111937 0)
(1.00316 0.0145844 0)
(1.00587 0.0118131 0)
(1.0091 0.0101438 0)
(1.00844 0.0119331 0)
(1.00863 0.0102904 0)
(1.00903 0.00782223 0)
(1.00889 0.00811527 0)
(1.00869 0.00839161 0)
(0.999875 0.00212911 0)
(1.00054 0.00200657 0)
(1.00244 0.00290606 0)
(1.00143 0.00561028 0)
(1.00616 0.00407856 0)
(1.00104 -0.0018428 0)
(0.994481 0.00588511 0)
(1.00063 0.00770605 0)
(1.00023 0.00626873 0)
(0.995771 0.0139288 0)
(1.00353 0.0121135 0)
(1.00652 0.0107309 0)
(1.00328 0.0141867 0)
(1.00557 0.0120938 0)
(1.00924 0.00982527 0)
(1.00864 0.0115099 0)
(1.00833 0.0106052 0)
(1.00887 0.00804918 0)
(1.00906 0.00786748 0)
(1.0088 0.00828936 0)
(0.999937 0.00199279 0)
(1.00045 0.00218122 0)
(1.00251 0.00269872 0)
(1.00147 0.00559651 0)
(1.00578 0.00400836 0)
(1.0011 -0.0013562 0)
(0.994912 0.0058749 0)
(1.00061 0.00771707 0)
(1.00057 0.00617859 0)
(0.99607 0.0134534 0)
(1.00329 0.0122013 0)
(1.00669 0.0103316 0)
(1.00343 0.0137074 0)
(1.00523 0.0123363 0)
(1.00925 0.00962317 0)
(1.00886 0.0110014 0)
(1.00807 0.0108312 0)
(1.00861 0.00836271 0)
(1.00915 0.00771548 0)
(1.00898 0.00810488 0)
(1 0.00185238 0)
(1.00037 0.00235248 0)
(1.00257 0.00250419 0)
(1.0015 0.00555515 0)
(1.0054 0.003987 0)
(1.00115 -0.000919467 0)
(0.995351 0.0058667 0)
(1.0006 0.00773859 0)
(1.0009 0.00610285 0)
(0.996421 0.0129484 0)
(1.00305 0.0122672 0)
(1.00682 0.0100166 0)
(1.00362 0.0131584 0)
(1.00488 0.0125239 0)
(1.00915 0.0095547 0)
(1.0091 0.0104528 0)
(1.00788 0.0109405 0)
(1.00827 0.00873773 0)
(1.00916 0.00765205 0)
(1.00918 0.00790194 0)
(1.00006 0.00171087 0)
(1.00029 0.00251931 0)
(1.00262 0.00233028 0)
(1.00151 0.00547082 0)
(1.00503 0.00401549 0)
(1.00121 -0.000525195 0)
(0.995789 0.00586665 0)
(1.0006 0.00775609 0)
(1.00123 0.00604049 0)
(0.996817 0.0124401 0)
(1.00282 0.0122895 0)
(1.00691 0.00977022 0)
(1.00386 0.0125776 0)
(1.00454 0.0126213 0)
(1.00894 0.00959579 0)
(1.00933 0.00991732 0)
(1.00778 0.0108898 0)
(1.00788 0.00916101 0)
(1.00906 0.00769532 0)
(1.00937 0.00770372 0)
(1.00012 0.00156795 0)
(1.00021 0.00267733 0)
(1.00264 0.00218371 0)
(1.00152 0.00534089 0)
(1.00466 0.00410381 0)
(1.00127 -0.000178381 0)
(0.996228 0.00584099 0)
(1.00059 0.00780734 0)
(1.00155 0.00599395 0)
(0.997253 0.0119058 0)
(1.0026 0.0122958 0)
(1.00695 0.00958701 0)
(1.00414 0.0119779 0)
(1.00424 0.0126289 0)
(1.00863 0.00972771 0)
(1.00954 0.00946406 0)
(1.00778 0.0106704 0)
(1.00749 0.00954603 0)
(1.00884 0.00784645 0)
(1.00953 0.0075212 0)
(1.00018 0.00142584 0)
(1.00012 0.0028218 0)
(1.00265 0.00207249 0)
(1.00154 0.0051531 0)
(1.00429 0.00422226 0)
(1.00132 0.000162483 0)
(0.996668 0.0057935 0)
(1.00058 0.007854 0)
(1.00183 0.0059785 0)
(0.997725 0.0113581 0)
(1.00241 0.0122419 0)
(1.00694 0.00948507 0)
(1.00447 0.0113729 0)
(1.00402 0.0125109 0)
(1.00824 0.00991415 0)
(1.00968 0.00911843 0)
(1.00788 0.0103581 0)
(1.00714 0.00986588 0)
(1.00852 0.00810944 0)
(1.00963 0.00738885 0)
(1.00024 0.00128784 0)
(1.00003 0.00294885 0)
(1.00264 0.00199665 0)
(1.00156 0.00492601 0)
(1.00393 0.00437043 0)
(1.00136 0.000483616 0)
(0.997105 0.00570644 0)
(1.00057 0.00790631 0)
(1.00209 0.00598893 0)
(0.99822 0.0108119 0)
(1.00225 0.0121424 0)
(1.00687 0.00942071 0)
(1.00479 0.0108091 0)
(1.00388 0.012299 0)
(1.00782 0.010083 0)
(1.00975 0.00889348 0)
(1.00807 0.00994072 0)
(1.00688 0.0100996 0)
(1.00811 0.00848126 0)
(1.00961 0.00737891 0)
(1.00029 0.0011525 0)
(0.999941 0.00305625 0)
(1.00261 0.00196107 0)
(1.00159 0.00465253 0)
(1.00359 0.00452492 0)
(1.00139 0.00082948 0)
(0.997547 0.00558002 0)
(1.00056 0.00793925 0)
(1.00231 0.00603344 0)
(0.998737 0.0102617 0)
(1.00212 0.011978 0)
(1.00676 0.00940905 0)
(1.00513 0.0102694 0)
(1.00383 0.0119886 0)
(1.00738 0.0102345 0)
(1.00973 0.0087839 0)
(1.00832 0.00946573 0)
(1.00674 0.0101044 0)
(1.00765 0.00888953 0)
(1.00945 0.00753946 0)
(1.00034 0.00102682 0)
(0.999846 0.00313536 0)
(1.00256 0.00196746 0)
(1.00163 0.00434842 0)
(1.00327 0.00466451 0)
(1.00139 0.00120271 0)
(0.997979 0.00542219 0)
(1.00056 0.00795014 0)
(1.00248 0.00611087 0)
(0.999254 0.00974296 0)
(1.00205 0.0117444 0)
(1.00659 0.00941331 0)
(1.00543 0.00980219 0)
(1.00387 0.0116133 0)
(1.00697 0.0103048 0)
(1.00961 0.00869251 0)
(1.00857 0.00899454 0)
(1.00676 0.00981051 0)
(1.00724 0.00905633 0)
(1.00916 0.00777159 0)
(1.00038 0.000907743 0)
(0.999752 0.00318686 0)
(1.00248 0.00201192 0)
(1.00168 0.0040327 0)
(1.00297 0.00476832 0)
(1.00137 0.0016232 0)
(0.998405 0.00525364 0)
(1.00059 0.00793017 0)
(1.00261 0.00621435 0)
(0.999771 0.00925176 0)
(1.00202 0.0114534 0)
(1.0064 0.00943228 0)
(1.00571 0.00937537 0)
(1.00396 0.0111863 0)
(1.00656 0.0103417 0)
(1.0094 0.00861896 0)
(1.00877 0.00855364 0)
(1.00684 0.00942122 0)
(1.00694 0.00898772 0)
(1.00886 0.00795061 0)
(1.00042 0.000803498 0)
(0.999661 0.00320413 0)
(1.00237 0.00208735 0)
(1.00172 0.00371985 0)
(1.00271 0.00481811 0)
(1.00133 0.0020758 0)
(0.998804 0.00510013 0)
(1.00063 0.00783934 0)
(1.00271 0.00635676 0)
(1.00026 0.00879825 0)
(1.00204 0.011093 0)
(1.00617 0.00944071 0)
(1.00592 0.00902114 0)
(1.00414 0.0107172 0)
(1.00621 0.0102968 0)
(1.0091 0.00863574 0)
(1.00893 0.00820348 0)
(1.00699 0.00913789 0)
(1.00671 0.00906792 0)
(1.00859 0.00821325 0)
(1.00046 0.000709383 0)
(0.999575 0.00318796 0)
(1.00224 0.00219193 0)
(1.00177 0.00343348 0)
(1.00248 0.00480715 0)
(1.00126 0.00252311 0)
(0.999178 0.00497113 0)
(1.00071 0.00771392 0)
(1.00277 0.00648278 0)
(1.00073 0.00841042 0)
(1.00211 0.0107018 0)
(1.00594 0.00939835 0)
(1.0061 0.00874187 0)
(1.00434 0.0102438 0)
(1.00592 0.0101781 0)
(1.00876 0.00874984 0)
(1.00904 0.00798843 0)
(1.00726 0.00886338 0)
(1.00661 0.0091329 0)
(1.00828 0.00848538 0)
(1.0005 0.000631699 0)
(0.999499 0.00313546 0)
(1.00209 0.00231694 0)
(1.00181 0.00316941 0)
(1.00231 0.00471971 0)
(1.00119 0.00298367 0)
(0.999515 0.00489402 0)
(1.00079 0.00752732 0)
(1.0028 0.00659962 0)
(1.00115 0.00808989 0)
(1.00221 0.0102657 0)
(1.00571 0.00933211 0)
(1.0062 0.008488 0)
(1.0046 0.00979203 0)
(1.00573 0.0100188 0)
(1.00838 0.00886401 0)
(1.00906 0.00789312 0)
(1.00755 0.00850339 0)
(1.0066 0.00901198 0)
(1.00799 0.00865393 0)
(1.00052 0.000571717 0)
(0.999432 0.00304192 0)
(1.00193 0.00245615 0)
(1.00184 0.00295696 0)
(1.00217 0.00458769 0)
(1.00111 0.00338138 0)
(0.999807 0.00486822 0)
(1.00091 0.00732658 0)
(1.00283 0.00669731 0)
(1.00153 0.007816 0)
(1.00235 0.00984945 0)
(1.00549 0.0092305 0)
(1.00627 0.00829408 0)
(1.00485 0.00938296 0)
(1.0056 0.00978688 0)
(1.00801 0.0089372 0)
(1.00897 0.00786873 0)
(1.00783 0.00818214 0)
(1.00674 0.00883511 0)
(1.00774 0.00876659 0)
(1.00055 0.000524979 0)
(0.999382 0.00292196 0)
(1.00175 0.00259755 0)
(1.00184 0.0027949 0)
(1.00207 0.0043974 0)
(1.00104 0.00373277 0)
(1.00006 0.00491265 0)
(1.00103 0.00711257 0)
(1.00284 0.00674603 0)
(1.00187 0.00761473 0)
(1.0025 0.00943622 0)
(1.00528 0.00909685 0)
(1.00628 0.00813875 0)
(1.00512 0.00900296 0)
(1.00556 0.00954244 0)
(1.00767 0.00893827 0)
(1.0088 0.00788646 0)
(1.00807 0.00798113 0)
(1.00696 0.00857091 0)
(1.00754 0.0087393 0)
(1.00057 0.000497934 0)
(0.999346 0.00277104 0)
(1.00156 0.00272983 0)
(1.00183 0.0026954 0)
(1.00202 0.00418994 0)
(1.00099 0.00400737 0)
(1.00027 0.00497097 0)
(1.00116 0.00690745 0)
(1.00286 0.00677695 0)
(1.00217 0.00745552 0)
(1.00267 0.00903747 0)
(1.0051 0.00894157 0)
(1.00626 0.00803653 0)
(1.00537 0.00868345 0)
(1.00557 0.00923349 0)
(1.00736 0.00885612 0)
(1.0086 0.00792372 0)
(1.00823 0.0078619 0)
(1.0072 0.00825918 0)
(1.00746 0.00857013 0)
(1.00058 0.00048304 0)
(0.999328 0.00260806 0)
(1.00139 0.00284169 0)
(1.00179 0.00265582 0)
(1.00199 0.00396358 0)
(1.00097 0.00418857 0)
(1.00046 0.00506509 0)
(1.00128 0.00673776 0)
(1.00287 0.00676043 0)
(1.00242 0.00732159 0)
(1.00285 0.00867956 0)
(1.00496 0.00876035 0)
(1.00621 0.00793895 0)
(1.00558 0.00838627 0)
(1.00563 0.00891404 0)
(1.00713 0.00875661 0)
(1.00839 0.00794084 0)
(1.0083 0.0077599 0)
(1.00741 0.00797281 0)
(1.00747 0.00831928 0)
(1.00059 0.000482132 0)
(0.999325 0.00243798 0)
(1.00122 0.00291989 0)
(1.00173 0.0026677 0)
(1.00198 0.00374898 0)
(1.00098 0.00429301 0)
(1.00061 0.00514864 0)
(1.0014 0.00657487 0)
(1.00289 0.00671794 0)
(1.00265 0.0072145 0)
(1.00302 0.00834851 0)
(1.00484 0.00856098 0)
(1.00613 0.00784408 0)
(1.00576 0.00813138 0)
(1.00572 0.00860172 0)
(1.00694 0.00860413 0)
(1.00815 0.0078879 0)
(1.00831 0.00764434 0)
(1.00758 0.00774054 0)
(1.00755 0.0080746 0)
(1.0006 0.000488953 0)
(0.999339 0.00227067 0)
(1.00107 0.00296393 0)
(1.00164 0.00271304 0)
(1.00198 0.00355804 0)
(1.00102 0.00431827 0)
(1.00075 0.00520908 0)
(1.00151 0.00645315 0)
(1.00292 0.00665901 0)
(1.00284 0.0071014 0)
(1.00319 0.00804973 0)
(1.00476 0.00834899 0)
(1.00604 0.00772985 0)
(1.0059 0.00789707 0)
(1.00583 0.00828761 0)
(1.00681 0.008413 0)
(1.00793 0.00781609 0)
(1.00828 0.0075514 0)
(1.00773 0.00755311 0)
(1.00765 0.00784866 0)
(1.0006 0.000503301 0)
(0.999365 0.0021128 0)
(1.00094 0.00296391 0)
(1.00154 0.00277711 0)
(1.00199 0.00340642 0)
(1.00109 0.00429612 0)
(1.0009 0.00524089 0)
(1.00162 0.00633401 0)
(1.00295 0.00657172 0)
(1.00301 0.00699176 0)
(1.00335 0.00778205 0)
(1.0047 0.00812406 0)
(1.00594 0.00760581 0)
(1.006 0.00769557 0)
(1.00595 0.00798327 0)
(1.00672 0.00818577 0)
(1.00772 0.00771307 0)
(1.0082 0.00746522 0)
(1.00782 0.00737181 0)
(1.00775 0.0076123 0)
(1.0006 0.000519766 0)
(0.999401 0.00196956 0)
(1.00083 0.00292832 0)
(1.00143 0.00284538 0)
(1.00199 0.0033079 0)
(1.00119 0.00423206 0)
(1.00104 0.00522667 0)
(1.00171 0.0062211 0)
(1.00299 0.00647718 0)
(1.00315 0.00687734 0)
(1.0035 0.00753046 0)
(1.00465 0.00789859 0)
(1.00584 0.00746659 0)
(1.00607 0.0075019 0)
(1.00606 0.00768464 0)
(1.00668 0.00793497 0)
(1.00755 0.00758473 0)
(1.00811 0.00738453 0)
(1.00788 0.00721896 0)
(1.00784 0.00738608 0)
(1.00059 0.000537041 0)
(0.999444 0.0018456 0)
(1.00075 0.00286075 0)
(1.00133 0.00290456 0)
(1.00198 0.00325474 0)
(1.00129 0.00414952 0)
(1.00118 0.00517853 0)
(1.00181 0.00611147 0)
(1.00302 0.00636077 0)
(1.00328 0.00674326 0)
(1.00364 0.00729098 0)
(1.00463 0.00767801 0)
(1.00575 0.00731509 0)
(1.00611 0.00731467 0)
(1.00616 0.00741918 0)
(1.00667 0.00769342 0)
(1.00742 0.00742348 0)
(1.008 0.00726975 0)
(1.00788 0.00707038 0)
(1.00789 0.0071837 0)
(1.00058 0.000552691 0)
(0.999491 0.00174178 0)
(1.00069 0.00276902 0)
(1.00122 0.0029508 0)
(1.00196 0.00323051 0)
(1.00141 0.00407023 0)
(1.00134 0.00509354 0)
(1.0019 0.00598601 0)
(1.00306 0.00623377 0)
(1.0034 0.00659882 0)
(1.00377 0.00705948 0)
(1.00462 0.0074518 0)
(1.00565 0.00715547 0)
(1.00612 0.00713691 0)
(1.00626 0.00716317 0)
(1.00668 0.00744204 0)
(1.0073 0.007227 0)
(1.0079 0.0071175 0)
(1.00786 0.00692243 0)
(1.00789 0.00703231 0)
(1.00058 0.000565643 0)
(0.999538 0.00165629 0)
(1.00065 0.00266323 0)
(1.00113 0.00297773 0)
(1.00194 0.00322329 0)
(1.00152 0.00400041 0)
(1.0015 0.00498577 0)
(1.00199 0.00585018 0)
(1.00309 0.00609639 0)
(1.00351 0.00643322 0)
(1.00389 0.00682266 0)
(1.00462 0.00721769 0)
(1.00557 0.00698293 0)
(1.0061 0.00696839 0)
(1.00633 0.00691288 0)
(1.00671 0.0071871 0)
(1.00722 0.007036 0)
(1.00781 0.00695898 0)
(1.00785 0.00675615 0)
(1.00786 0.00688826 0)
(1.00057 0.000575112 0)
(0.999583 0.00158836 0)
(1.00063 0.00254996 0)
(1.00105 0.00298276 0)
(1.00191 0.00322355 0)
(1.00163 0.00393996 0)
(1.00165 0.00486651 0)
(1.00209 0.00570162 0)
(1.00312 0.0059473 0)
(1.0036 0.00625011 0)
(1.00401 0.006581 0)
(1.00464 0.00698126 0)
(1.00549 0.00679455 0)
(1.00606 0.00680167 0)
(1.00637 0.00668466 0)
(1.00675 0.00691896 0)
(1.00716 0.00683175 0)
(1.00771 0.00679678 0)
(1.00785 0.00655365 0)
(1.00782 0.00671769 0)
(1.00056 0.000580577 0)
(0.999627 0.00153395 0)
(1.00063 0.00243685 0)
(1.00099 0.00296343 0)
(1.00188 0.00322345 0)
(1.00172 0.00388744 0)
(1.00181 0.00473467 0)
(1.00219 0.00553609 0)
(1.00315 0.00579453 0)
(1.00367 0.00606594 0)
(1.00412 0.00632794 0)
(1.00467 0.006734 0)
(1.00543 0.00659442 0)
(1.00602 0.00662255 0)
(1.00639 0.00647831 0)
(1.0068 0.0066493 0)
(1.00714 0.00658662 0)
(1.00761 0.0066413 0)
(1.00783 0.00635087 0)
(1.00782 0.00652249 0)
(1.00055 0.000582448 0)
(0.999667 0.00149137 0)
(1.00063 0.00232662 0)
(1.00095 0.00292416 0)
(1.00185 0.00321188 0)
(1.00181 0.00383421 0)
(1.00195 0.00459845 0)
(1.00229 0.00536051 0)
(1.00318 0.00562678 0)
(1.00373 0.00588085 0)
(1.00422 0.00607524 0)
(1.00471 0.00646922 0)
(1.00538 0.00638155 0)
(1.00597 0.0064291 0)
(1.00637 0.00628078 0)
(1.00682 0.00641711 0)
(1.00716 0.00631035 0)
(1.00752 0.00646331 0)
(1.00778 0.00617196 0)
(1.00783 0.00629226 0)
(1.00054 0.000579745 0)
(0.999703 0.00145768 0)
(1.00065 0.00222046 0)
(1.00092 0.00286887 0)
(1.00182 0.00318895 0)
(1.00188 0.00377425 0)
(1.00209 0.00445771 0)
(1.00239 0.00517684 0)
(1.00322 0.00544555 0)
(1.00377 0.00569078 0)
(1.00431 0.00583417 0)
(1.00475 0.00619683 0)
(1.00535 0.00615046 0)
(1.00591 0.00622694 0)
(1.00635 0.00606657 0)
(1.0068 0.00620986 0)
(1.00718 0.0060365 0)
(1.00748 0.00622497 0)
(1.0077 0.00600942 0)
(1.00784 0.00605113 0)
(1.00053 0.00057397 0)
(0.999736 0.00142938 0)
(1.00067 0.00211945 0)
(1.0009 0.00279787 0)
(1.00179 0.00315091 0)
(1.00194 0.00370877 0)
(1.00221 0.00431055 0)
(1.00249 0.00498467 0)
(1.00325 0.00525784 0)
(1.00381 0.00549512 0)
(1.00438 0.00559654 0)
(1.0048 0.00592528 0)
(1.00533 0.00590471 0)
(1.00586 0.00601755 0)
(1.00633 0.00583904 0)
(1.00676 0.0059936 0)