/*--------------------------------*- C++ -*----------------------------------*\
| =========                 |                                                 |
| \\      /  F ield         | OpenFOAM: The Open Source CFD Toolbox           |
|  \\    /   O peration     | Version:  v1912                                 |
|   \\  /    A nd           | Website:  www.openfoam.com                      |
|    \\/     M anipulation  |                                                 |
\*---------------------------------------------------------------------------*/
FoamFile
{
    version     2.0;
    format      ascii;
    class       surfaceScalarField;
    location    "8.5";
    object      phi;
}
// * * * * * * * * * * * * * * * * * * * * * * * * * * * * * * * * * * * * * //

dimensions      [0 3 -1 0 0 0 0];
oriented        oriented;


internalField   nonuniform List<scalar> 
19000
(
1.15187e-06
5.23243e-08
1.18083e-06
-1.08811e-06
1.27122e-06
-2.78651e-07
1.14545e-06
1.75051e-06
1.10234e-06
-5.18008e-07
1.22963e-06
-1.01032e-06
1.21958e-06
-7.65331e-07
1.20369e-06
-1.62137e-07
1.23042e-06
3.33555e-07
1.1756e-06
1.7566e-07
1.20852e-06
7.20993e-07
1.14939e-06
2.86887e-07
1.16125e-06
-3.33619e-07
1.18963e-06
-2.50335e-07
1.18658e-06
-3.7564e-07
1.18849e-06
-6.01575e-08
1.19207e-06
-3.62344e-08
1.18071e-06
1.56902e-07
1.17111e-06
2.18743e-07
2.16428e-07
1.1405e-06
1.20576e-06
7.08295e-08
1.23238e-06
-1.11473e-06
1.32729e-06
-3.73569e-07
1.23257e-06
1.84523e-06
1.1811e-06
-4.66532e-07
1.28664e-06
-1.11586e-06
1.28256e-06
-7.61257e-07
1.26783e-06
-1.47404e-07
1.28975e-06
3.11636e-07
1.23929e-06
2.26118e-07
1.26181e-06
6.98469e-07
1.2218e-06
3.26901e-07
1.21987e-06
-3.31693e-07
1.25286e-06
-2.83322e-07
1.24352e-06
-3.66304e-07
1.25757e-06
-7.42086e-08
1.24379e-06
-2.24492e-08
1.25482e-06
1.45868e-07
1.2164e-06
2.57162e-07
2.06795e-07
1.22604e-06
1.26232e-06
9.1293e-08
1.28501e-06
-1.13742e-06
1.37949e-06
-4.68054e-07
1.32564e-06
1.89908e-06
1.26213e-06
-4.03022e-07
1.34162e-06
-1.19536e-06
1.34681e-06
-7.66444e-07
1.3371e-06
-1.37691e-07
1.35141e-06
2.97326e-07
1.31427e-06
2.6325e-07
1.32314e-06
6.89603e-07
1.30335e-06
3.4669e-07
1.28039e-06
-3.08733e-07
1.31324e-06
-3.16172e-07
1.30036e-06
-3.53421e-07
1.317e-06
-9.08511e-08
1.30259e-06
-8.03486e-09
1.30892e-06
1.39534e-07
1.28586e-06
2.80227e-07
2.20936e-07
1.27172e-06
1.32217e-06
1.13228e-07
1.34002e-06
-1.15526e-06
1.43004e-06
-5.58076e-07
1.41442e-06
1.9147e-06
1.34184e-06
-3.30443e-07
1.39426e-06
-1.24778e-06
1.40853e-06
-7.80711e-07
1.40746e-06
-1.36621e-07
1.41529e-06
2.895e-07
1.39368e-06
2.84853e-07
1.39343e-06
6.89858e-07
1.38242e-06
3.57698e-07
1.34452e-06
-2.70833e-07
1.36507e-06
-3.36723e-07
1.35813e-06
-3.4648e-07
1.37007e-06
-1.02787e-07
1.36436e-06
-2.32865e-09
1.3648e-06
1.39095e-07
1.35354e-06
2.91484e-07
2.38378e-07
1.3361e-06
1.38658e-06
1.34998e-07
1.3986e-06
-1.16728e-06
1.48038e-06
-6.39862e-07
1.49401e-06
1.90108e-06
1.41961e-06
-2.56043e-07
1.44644e-06
-1.27462e-06
1.46747e-06
-8.0174e-07
1.47573e-06
-1.44883e-07
1.48086e-06
2.84369e-07
1.47158e-06
2.94133e-07
1.46795e-06
6.93487e-07
1.45685e-06
3.68805e-07
1.41283e-06
-2.26816e-07
1.41674e-06
-3.40628e-07
1.41499e-06
-3.44734e-07
1.42562e-06
-1.1342e-07
1.4258e-06
-2.50974e-09
1.42737e-06
1.37533e-07
1.42236e-06
2.96491e-07
2.52428e-07
1.40831e-06
1.45685e-06
1.53824e-07
1.46157e-06
-1.172e-06
1.53177e-06
-7.10067e-07
1.56446e-06
1.86839e-06
1.4965e-06
-1.88084e-07
1.50144e-06
-1.27955e-06
1.52532e-06
-8.25624e-07
1.54159e-06
-1.61151e-07
1.54765e-06
2.78305e-07
1.54554e-06
2.9625e-07
1.54143e-06
6.97595e-07
1.5288e-06
3.81433e-07
1.48438e-06
-1.82395e-07
1.47475e-06
-3.30997e-07
1.47205e-06
-3.42033e-07
1.48359e-06
-1.24964e-07
1.4875e-06
-6.41608e-09
1.49221e-06
1.32817e-07
1.49345e-06
2.95249e-07
2.62418e-07
1.48346e-06
1.53333e-06
1.6671e-07
1.52926e-06
-1.16792e-06
1.58506e-06
-7.65867e-07
1.629e-06
1.82445e-06
1.57342e-06
-1.32504e-07
1.56232e-06
-1.26845e-06
1.58484e-06
-8.48145e-07
1.60643e-06
-1.82739e-07
1.61484e-06
2.6989e-07
1.61545e-06
2.95643e-07
1.6114e-06
7.01645e-07
1.59991e-06
3.92926e-07
1.55821e-06
-1.40698e-07
1.5406e-06
-3.13388e-07
1.53313e-06
-3.34566e-07
1.54345e-06
-1.35284e-07
1.54996e-06
-1.29209e-08
1.5573e-06
1.25479e-07
1.56426e-06
2.88286e-07
2.67991e-07
1.55869e-06
1.61514e-06
1.71696e-07
1.60173e-06
-1.15451e-06
1.64104e-06
-8.05169e-07
1.6912e-06
1.77428e-06
1.65034e-06
-9.16437e-08
1.63051e-06
-1.24862e-06
1.64887e-06
-8.66507e-07
1.67211e-06
-2.05976e-07
1.68174e-06
2.60256e-07
1.68229e-06
2.95092e-07
1.67852e-06
7.05416e-07
1.67104e-06
4.00406e-07
1.63422e-06
-1.03877e-07
1.61348e-06
-2.92654e-07
1.60112e-06
-3.22206e-07
1.60722e-06
-1.41379e-07
1.61424e-06
-1.99462e-08
1.62293e-06
1.16798e-07
1.6341e-06
2.77112e-07
2.69477e-07
1.63261e-06
1.70065e-06
1.68624e-07
1.67912e-06
-1.13299e-06
1.70099e-06
-8.27036e-07
1.75378e-06
1.72149e-06
1.72718e-06
-6.50385e-08
1.70563e-06
-1.22707e-06
1.71915e-06
-8.8003e-07
1.74021e-06
-2.27036e-07
1.74838e-06
2.52087e-07
1.74762e-06
2.95853e-07
1.74493e-06
7.08109e-07
1.74308e-06
4.02255e-07
1.71269e-06
-7.34863e-08
1.6921e-06
-2.72067e-07
1.67665e-06
-3.0675e-07
1.67714e-06
-1.41873e-07
1.68236e-06
-2.5168e-08
1.69055e-06
1.08608e-07
1.70413e-06
2.63531e-07
2.67844e-07
1.70577e-06
1.78836e-06
1.58989e-07
1.7616e-06
-1.10623e-06
1.7666e-06
-8.32037e-07
1.8188e-06
1.66929e-06
1.80459e-06
-5.08365e-08
1.78634e-06
-1.20882e-06
1.79571e-06
-8.89392e-07
1.81172e-06
-2.43049e-07
1.81576e-06
2.48047e-07
1.81343e-06
2.98179e-07
1.81291e-06
7.08628e-07
1.81704e-06
3.98125e-07
1.79389e-06
-5.03327e-08
1.77528e-06
-2.53459e-07
1.75891e-06
-2.90374e-07
1.75416e-06
-1.37128e-07
1.75616e-06
-2.71708e-08
1.76201e-06
1.02764e-07
1.77598e-06
2.49555e-07
2.643e-07
1.77953e-06
1.87759e-06
1.45146e-07
1.84918e-06
-1.07782e-06
1.83935e-06
-8.22205e-07
1.88811e-06
1.62054e-06
1.88403e-06
-4.67601e-08
1.87127e-06
-1.19606e-06
1.87726e-06
-8.95381e-07
1.88694e-06
-2.52727e-07
1.88549e-06
2.49492e-07
1.88188e-06
3.01793e-07
1.88438e-06
7.06128e-07
1.89397e-06
3.88537e-07
1.87805e-06
-3.44096e-08
1.86219e-06
-2.37605e-07
1.84669e-06
-2.74867e-07
1.838e-06
-1.28447e-07
1.83653e-06
-2.56952e-08
1.83881e-06
1.00479e-07
1.85118e-06
2.37193e-07
2.6003e-07
1.85545e-06
1.96851e-06
1.29472e-07
1.9415e-06
-1.0508e-06
1.91989e-06
-8.00598e-07
1.96346e-06
1.57696e-06
1.96718e-06
-5.04739e-08
1.9596e-06
-1.18848e-06
1.9624e-06
-8.98182e-07
1.96591e-06
-2.56239e-07
1.95938e-06
2.56022e-07
1.95504e-06
3.06129e-07
1.9609e-06
7.00274e-07
1.97494e-06
3.74493e-07
1.96555e-06
-2.50152e-08
1.95247e-06
-2.24525e-07
1.93892e-06
-2.6132e-07
1.92783e-06
-1.1736e-07
1.92344e-06
-2.12983e-08
1.92191e-06
1.02004e-07
1.9311e-06
2.28e-07
2.55965e-07
1.93517e-06
2.0618e-06
1.1386e-07
2.03787e-06
-1.02688e-06
2.00806e-06
-7.70781e-07
2.04637e-06
1.53865e-06
2.05553e-06
-5.9634e-08
2.0512e-06
-1.18416e-06
2.05044e-06
-8.97419e-07
2.04886e-06
-2.5466e-07
2.03901e-06
2.65871e-07
2.03472e-06
3.10415e-07
2.04382e-06
6.91175e-07
2.06109e-06
3.57221e-07
2.05703e-06
-2.0955e-08
2.04612e-06
-2.13608e-07
2.03491e-06
-2.50115e-07
2.02276e-06
-1.05213e-07
2.01636e-06
-1.4899e-08
2.0117e-06
1.06663e-07
2.017e-06
2.22703e-07
2.52573e-07
2.02039e-06
2.15829e-06
9.95726e-08
2.1377e-06
-1.00629e-06
2.10333e-06
-7.36407e-07
2.1379e-06
1.50408e-06
2.15014e-06
-7.18747e-08
2.14646e-06
-1.18048e-06
2.14162e-06
-8.92582e-07
2.13642e-06
-2.49463e-07
2.12562e-06
2.76675e-07
2.12232e-06
3.13719e-07
2.13432e-06
6.79171e-07
2.15348e-06
3.38059e-07
2.15331e-06
-2.07795e-08
2.14346e-06
-2.03764e-07
2.13438e-06
-2.41029e-07
2.12217e-06
-9.30052e-08
2.11469e-06
-7.41863e-09
2.10822e-06
1.13131e-07
2.1098e-06
2.21121e-07
2.49845e-07
2.11253e-06
2.25878e-06
8.72806e-08
2.24074e-06
-9.88245e-07
2.20521e-06
-7.00874e-07
2.23851e-06
1.47078e-06
2.25154e-06
-8.49089e-08
2.24601e-06
-1.17494e-06
2.23683e-06
-8.83406e-07
2.22956e-06
-2.42188e-07
2.22004e-06
2.86191e-07
2.21868e-06
3.15078e-07
2.2332e-06
6.6465e-07
2.25286e-06
3.18401e-07
2.2551e-06
-2.30157e-08
2.24503e-06
-1.93699e-07
2.2374e-06
-2.33393e-07
2.22579e-06
-8.14019e-08
2.21794e-06
4.37351e-10
2.21124e-06
1.19832e-07
2.20998e-06
2.22377e-07
2.47511e-07
2.21231e-06
2.36397e-06
7.71841e-08
2.34724e-06
-9.71511e-07
2.31329e-06
-6.6693e-07
2.34791e-06
1.43617e-06
2.35978e-06
-9.67856e-08
2.35046e-06
-1.16562e-06
2.33707e-06
-8.70015e-07
2.32912e-06
-2.34232e-07
2.32254e-06
2.92766e-07
2.3239e-06
3.13722e-07
2.34062e-06
6.47927e-07
2.35947e-06
2.99553e-07
2.3628e-06
-2.63473e-08
2.35139e-06
-1.82292e-07
2.34431e-06
-2.26305e-07
2.33372e-06
-7.08161e-08
2.32587e-06
8.28584e-09
2.32035e-06
1.25352e-07
2.31749e-06
2.25241e-07
2.45332e-07
2.31967e-06
2.47444e-06
6.91438e-08
2.4578e-06
-9.54879e-07
2.42721e-06
-6.36337e-07
2.46516e-06
1.39822e-06
2.47455e-06
-1.06175e-07
2.46033e-06
-1.15141e-06
2.44316e-06
-8.5285e-07
2.43559e-06
-2.26663e-07
2.43283e-06
2.95533e-07
2.43726e-06
3.09288e-07
2.45598e-06
6.29212e-07
2.47305e-06
2.82481e-07
2.47652e-06
-2.9817e-08
2.46304e-06
-1.68815e-07
2.4556e-06
-2.18862e-07
2.44625e-06
-6.147e-08
2.43847e-06
1.60691e-08
2.43504e-06
1.28785e-07
2.43185e-06
2.28429e-07
2.43267e-07
2.43391e-06
2.59062e-06
6.28183e-08
2.57319e-06
-9.37449e-07
2.54662e-06
-6.09764e-07
2.58907e-06
1.35577e-06
2.59539e-06
-1.12498e-07
2.57595e-06
-1.13197e-06
2.55563e-06
-8.32526e-07
2.54906e-06
-2.20093e-07
2.55023e-06
2.94365e-07
2.55761e-06
3.01906e-07
2.57819e-06
6.08629e-07
2.59303e-06
2.67642e-07
2.59613e-06
-3.29127e-08
2.58037e-06
-1.53057e-07
2.57182e-06
-2.10312e-07
2.56378e-06
-5.34264e-08
2.55588e-06
2.3962e-08
2.55479e-06
1.29878e-07
2.55242e-06
2.30795e-07
2.41459e-07
2.55423e-06
2.71285e-06
5.77971e-08
2.69412e-06
-9.18718e-07
2.67135e-06
-5.86994e-07
2.71863e-06
1.30849e-06
2.72197e-06
-1.15841e-07
2.69759e-06
-1.10759e-06
2.67477e-06
-8.097e-07
2.66937e-06
-2.14691e-07
2.67405e-06
2.8968e-07
2.68386e-06
2.92094e-07
2.70623e-06
5.86264e-07
2.71887e-06
2.54994e-07
2.72147e-06
-3.55089e-08
2.7037e-06
-1.35284e-07
2.69354e-06
-2.00153e-07
2.68671e-06
-4.65942e-08
2.67844e-06
3.22304e-08
2.67935e-06
1.28971e-07
2.67869e-06
2.31455e-07
2.4012e-07
2.68002e-06
2.84136e-06
5.3707e-08
2.82118e-06
-8.98543e-07
2.80149e-06
-5.67304e-07
2.85326e-06
1.25672e-06
2.85414e-06
-1.16723e-07
2.82548e-06
-1.07893e-06
2.80076e-06
-7.84976e-07
2.79636e-06
-2.10297e-07
2.80387e-06
2.82168e-07
2.81542e-06
2.80549e-07
2.83945e-06
5.62235e-07
2.85025e-06
2.44196e-07
2.85245e-06
-3.77136e-08
2.83329e-06
-1.16123e-07
2.82126e-06
-1.88126e-07
2.81546e-06
-4.07862e-08
2.80659e-06
4.10915e-08
2.80875e-06
1.2681e-07
2.81038e-06
2.29832e-07
2.39372e-07
2.81113e-06
2.97633e-06
5.02722e-08
2.95483e-06
-8.77041e-07
2.93738e-06
-5.49858e-07
2.99285e-06
1.20126e-06
2.99196e-06
-1.15836e-07
2.95985e-06
-1.04682e-06
2.93374e-06
-7.5886e-07
2.93003e-06
-2.06588e-07
2.93965e-06
2.72541e-07
2.95227e-06
2.67929e-07
2.97777e-06
5.36735e-07
2.98712e-06
2.34845e-07
2.98911e-06
-3.97029e-08
2.96936e-06
-9.63757e-08
2.95545e-06
-1.74207e-07
2.95041e-06
-3.57538e-08
2.9409e-06
5.06012e-08
2.94338e-06
1.24334e-07
2.94754e-06
2.25668e-07
2.39159e-07
2.94776e-06
3.11796e-06
4.73217e-08
3.09537e-06
-8.54452e-07
3.07948e-06
-5.33965e-07
3.13767e-06
1.14306e-06
3.13568e-06
-1.13848e-07
3.10098e-06
-1.01211e-06
3.07387e-06
-7.31751e-07
3.07049e-06
-2.03206e-07
3.08163e-06
2.61396e-07
3.09485e-06
2.54718e-07
3.12153e-06
5.10053e-07
3.12972e-06
2.26649e-07
3.13161e-06
-4.15935e-08
3.11211e-06
-7.68689e-08
3.09644e-06
-1.5854e-07
3.09194e-06
-3.1249e-08
3.08192e-06
6.06142e-08
3.0838e-06
1.22455e-07
3.09044e-06
2.19033e-07
2.39196e-07
3.0904e-06
3.26648e-06
4.47564e-08
3.24304e-06
-8.31021e-07
3.22826e-06
-5.19178e-07
3.28825e-06
1.08307e-06
3.28568e-06
-1.11283e-07
3.24914e-06
-9.75572e-07
3.22136e-06
-7.03966e-07
3.21801e-06
-1.99863e-07
3.23022e-06
2.49187e-07
3.24375e-06
2.41189e-07
3.27127e-06
4.82532e-07
3.27843e-06
2.19488e-07
3.28023e-06
-4.33888e-08
3.26168e-06
-5.83184e-08
3.24451e-06
-1.41373e-07
3.24033e-06
-2.70718e-08
3.23014e-06
7.08043e-08
3.23069e-06
1.21903e-07
3.23941e-06
2.10321e-07
2.38985e-07
3.23962e-06
3.42218e-06
4.25035e-08
3.39808e-06
-8.06921e-07
3.38416e-06
-5.05258e-07
3.44517e-06
1.02207e-06
3.44238e-06
-1.0849e-07
3.40462e-06
-9.37822e-07
3.37643e-06
-6.75776e-07
3.37296e-06
-1.96394e-07
3.38589e-06
2.36264e-07
3.3996e-06
2.27473e-07
3.4276e-06
4.54534e-07
3.43371e-06
2.13376e-07
3.43531e-06
-4.49835e-08
3.41824e-06
-4.12477e-08
3.39986e-06
-1.22993e-07
3.39585e-06
-2.30686e-08
3.38596e-06
8.06967e-08
3.38477e-06
1.23094e-07
3.39488e-06
2.00209e-07
2.3789e-07
3.39598e-06
3.58543e-06
4.04821e-08
3.56077e-06
-7.82253e-07
3.54757e-06
-4.92066e-07
3.609e-06
9.60641e-07
3.60619e-06
-1.05676e-07
3.56772e-06
-8.99356e-07
3.53939e-06
-6.4745e-07
3.53574e-06
-1.92744e-07
3.54911e-06
2.22899e-07
3.56295e-06
2.13629e-07
3.59107e-06
4.26414e-07
3.59607e-06
2.08379e-07
3.59727e-06
-4.61804e-08
3.58201e-06
-2.59899e-08
3.5627e-06
-1.03682e-07
3.55874e-06
-1.9112e-08
3.5497e-06
8.97428e-08
3.54669e-06
1.26096e-07
3.55737e-06
1.89532e-07
2.35271e-07
3.55999e-06
3.7566e-06
3.85893e-08
3.73143e-06
-7.57088e-07
3.71882e-06
-4.79457e-07
3.78022e-06
8.99241e-07
3.77751e-06
-1.02966e-07
3.73873e-06
-8.6057e-07
3.71056e-06
-6.19277e-07
3.70672e-06
-1.88912e-07
3.72033e-06
2.09294e-07
3.73424e-06
1.9972e-07
3.76216e-06
3.98489e-07
3.76599e-06
2.04554e-07
3.76654e-06
-4.67375e-08
3.75328e-06
-1.27305e-08
3.73331e-06
-8.3704e-08
3.72928e-06
-1.50849e-08
3.7216e-06
9.74213e-08
3.71705e-06
1.30642e-07
3.72741e-06
1.79181e-07
2.30598e-07
3.73208e-06
3.93607e-06
3.67064e-08
3.9105e-06
-7.31515e-07
3.89825e-06
-4.67207e-07
3.95926e-06
8.38233e-07
3.95676e-06
-1.00469e-07
3.91797e-06
-8.21783e-07
3.89027e-06
-5.9157e-07
3.88627e-06
-1.84919e-07
3.89992e-06
1.95647e-07
3.91381e-06
1.85828e-07
3.94128e-06
3.71024e-07
3.94394e-06
2.01895e-07
3.94359e-06
-4.63956e-08
3.93241e-06
-1.54149e-09
3.91205e-06
-6.33524e-08
3.90781e-06
-1.08396e-08
3.90194e-06
1.03293e-07
3.89635e-06
1.36233e-07
3.90556e-06
1.69971e-07
2.23591e-07
3.91256e-06
4.12424e-06
3.47167e-08
4.0984e-06
-7.05678e-07
4.0862e-06
-4.55006e-07
4.14649e-06
7.77948e-07
4.14433e-06
-9.83082e-08
4.1058e-06
-7.83254e-07
4.07887e-06
-5.64643e-07
4.07474e-06
-1.80794e-07
4.08822e-06
1.82171e-07
4.10199e-06
1.72063e-07
4.1288e-06
3.44209e-07
4.1304e-06
2.003e-07
4.1289e-06
-4.49011e-08
4.1198e-06
7.5641e-09
4.09939e-06
-4.29467e-08
4.09474e-06
-6.19101e-09
4.09097e-06
1.0706e-07
4.08498e-06
1.42231e-07
4.09242e-06
1.6253e-07
2.14356e-07
4.10165e-06
4.32149e-06
3.2529e-08
4.29559e-06
-6.79782e-07
4.28309e-06
-4.42501e-07
4.34232e-06
7.18714e-07
4.34066e-06
-9.6645e-08
4.30258e-06
-7.45169e-07
4.2767e-06
-5.38765e-07
4.27249e-06
-1.76585e-07
4.28555e-06
1.69112e-07
4.29905e-06
1.58564e-07
4.32511e-06
3.18146e-07
4.32585e-06
1.99557e-07
4.32299e-06
-4.20394e-08
4.31594e-06
1.46163e-08
4.2958e-06
-2.28111e-08
4.29053e-06
-9.24063e-10
4.28898e-06
1.08611e-07
4.28329e-06
1.4793e-07
4.2886e-06
1.57215e-07
2.03433e-07
4.29952e-06
4.52821e-06
3.00965e-08
4.50249e-06
-6.54068e-07
4.48937e-06
-4.29376e-07
4.54723e-06
6.60851e-07
4.54624e-06
-9.56529e-08
4.50872e-06
-7.07652e-07
4.48405e-06
-5.14092e-07
4.47987e-06
-1.72402e-07
4.49225e-06
1.56728e-07
4.50532e-06
1.45497e-07
4.5306e-06
2.92863e-07
4.5308e-06
1.99356e-07
4.52642e-06
-3.76544e-08
4.52133e-06
1.96991e-08
4.50182e-06
-3.29803e-09
4.49565e-06
5.24423e-09
4.49624e-06
1.08019e-07
4.49156e-06
1.52609e-07
4.49469e-06
1.5409e-07
1.91724e-07
4.5064e-06
4.74478e-06
2.7427e-08
4.71949e-06
-6.28773e-07
4.70555e-06
-4.15436e-07
4.76174e-06
6.04665e-07
4.76157e-06
-9.54836e-08
4.7247e-06
-6.70784e-07
4.70121e-06
-4.906e-07
4.69724e-06
-1.68437e-07
4.70875e-06
1.4522e-07
4.7212e-06
1.33048e-07
4.74572e-06
2.68341e-07
4.74575e-06
1.99324e-07
4.73976e-06
-3.16653e-08
4.73649e-06
2.29763e-08
4.718e-06
1.51922e-08
4.7106e-06
1.26435e-08
4.71306e-06
1.05562e-07
4.70999e-06
1.55678e-07
4.71123e-06
1.52848e-07
1.80318e-07
4.72263e-06
4.97165e-06
2.45781e-08
4.94696e-06
-6.04085e-07
4.93217e-06
-4.00651e-07
4.98642e-06
5.50414e-07
4.98716e-06
-9.62223e-08
4.95102e-06
-6.34637e-07
4.92848e-06
-4.68061e-07
4.92497e-06
-1.6493e-07
4.93554e-06
1.34654e-07
4.94717e-06
1.21411e-07
4.97096e-06
2.44555e-07
4.97122e-06
1.99065e-07
4.96362e-06
-2.40676e-08
4.96191e-06
2.46908e-08
4.94485e-06
3.2246e-08
4.93598e-06
2.15176e-08
4.9398e-06
1.01742e-07
4.9387e-06
1.56774e-07
4.9387e-06
1.52855e-07
1.70278e-07
4.94874e-06
5.20926e-06
2.16396e-08
5.18528e-06
-5.80108e-07
5.16979e-06
-3.8516e-07
5.22191e-06
4.98294e-07
5.22355e-06
-9.78639e-08
5.18822e-06
-5.99306e-07
5.16629e-06
-4.4613e-07
5.1634e-06
-1.62047e-07
5.17315e-06
1.24906e-07
5.1838e-06
1.10763e-07
5.20685e-06
2.21504e-07
5.20771e-06
1.98199e-07
5.19856e-06
-1.49164e-08
5.19809e-06
2.51587e-08
5.1829e-06
4.74401e-08
5.17253e-06
3.18881e-08
5.17695e-06
9.73245e-08
5.17791e-06
1.55814e-07
5.17738e-06
1.53384e-07
1.6222e-07
5.18544e-06
5.45812e-06
1.87121e-08
5.43487e-06
-5.56857e-07
5.41893e-06
-3.69224e-07
5.4688e-06
4.48427e-07
5.47124e-06
-1.00304e-07
5.43686e-06
-5.64934e-07
5.41532e-06
-4.24587e-07
5.41295e-06
-1.59674e-07
5.42214e-06
1.15717e-07
5.43167e-06
1.01226e-07
5.45396e-06
1.99223e-07
5.45574e-06
1.96413e-07
5.44516e-06
-4.33319e-09
5.44554e-06
2.47733e-08
5.43261e-06
6.03738e-08
5.4209e-06
4.35952e-08
5.42509e-06
9.31414e-08
5.42806e-06
1.52844e-07
5.42757e-06
1.53875e-07
1.56229e-07
5.43356e-06
5.71878e-06
1.58874e-08
5.69621e-06
-5.34284e-07
5.68014e-06
-3.53151e-07
5.7277e-06
4.0086e-07
5.73075e-06
-1.03346e-07
5.69752e-06
-5.31712e-07
5.67627e-06
-4.03333e-07
5.67411e-06
-1.57511e-07
5.68304e-06
1.06783e-07
5.69145e-06
9.282e-08
5.71286e-06
1.77806e-07
5.71581e-06
1.9347e-07
5.704e-06
7.46998e-09
5.70475e-06
2.40296e-08
5.69444e-06
7.068e-08
5.68168e-06
5.63601e-08
5.68491e-06
8.99115e-08
5.68966e-06
1.48086e-07
5.68964e-06
1.53902e-07
1.51957e-07
5.69391e-06
5.99184e-06
1.32406e-08
5.96987e-06
-5.12313e-07
5.95396e-06
-3.37238e-07
5.99925e-06
3.55566e-07
6.00261e-06
-1.06706e-07
5.97076e-06
-4.99861e-07
5.94977e-06
-3.82341e-07
5.94748e-06
-1.55221e-07
5.95642e-06
9.78439e-08
5.96377e-06
8.54666e-08
5.98417e-06
1.57407e-07
5.98842e-06
1.89215e-07
5.9757e-06
2.01941e-08
5.97626e-06
2.34677e-08
5.96882e-06
7.81219e-08
5.95548e-06
6.96998e-08
5.95712e-06
8.82704e-08
5.96332e-06
1.41887e-07
5.96405e-06
1.53168e-07
1.48931e-07
5.96708e-06
6.27791e-06
1.08239e-08
6.25647e-06
-4.90881e-07
6.24095e-06
-3.21711e-07
6.28404e-06
3.12475e-07
6.28739e-06
-1.10063e-07
6.2571e-06
-4.69565e-07
6.23645e-06
-3.61692e-07
6.23373e-06
-1.52502e-07
6.24282e-06
8.87491e-08
6.24927e-06
7.90176e-08
6.2685e-06
1.38178e-07
6.27413e-06
1.83588e-07
6.26084e-06
3.34841e-08
6.26066e-06
2.3647e-08
6.25618e-06
8.26003e-08
6.24293e-06
8.29561e-08
6.24249e-06
8.87109e-08
6.24962e-06
1.34754e-07
6.25146e-06
1.51331e-07
1.46792e-07
6.25359e-06
6.57762e-06
8.67067e-09
6.5567e-06
-4.69953e-07
6.54169e-06
-3.06708e-07
6.58265e-06
2.71511e-07
6.58572e-06
-1.13128e-07
6.557e-06
-4.40851e-07
6.53691e-06
-3.416e-07
6.53363e-06
-1.49219e-07
6.54285e-06
7.95244e-08
6.54859e-06
7.32771e-08
6.56653e-06
1.20246e-07
6.57348e-06
1.76633e-07
6.56008e-06
4.68803e-08
6.55861e-06
2.51179e-08
6.55689e-06
8.43222e-08
6.5446e-06
9.52518e-08
6.54183e-06
9.14774e-08
6.54914e-06
1.27447e-07
6.55244e-06
1.48026e-07
1.45212e-07
6.55402e-06
6.89167e-06
6.79349e-09
6.87125e-06
-4.49534e-07
6.85682e-06
-2.9228e-07
6.89566e-06
2.32677e-07
6.89838e-06
-1.15853e-07
6.87104e-06
-4.13506e-07
6.85171e-06
-3.22279e-07
6.84796e-06
-1.45465e-07
6.85714e-06
7.03438e-08
6.86236e-06
6.80607e-08
6.87889e-06
1.03713e-07
6.88708e-06
1.68442e-07
6.87406e-06
5.99042e-08
6.87096e-06
2.822e-08
6.87144e-06
8.38361e-08
6.86091e-06
1.0578e-07
6.85607e-06
9.63189e-08
6.86257e-06
1.20947e-07
6.86745e-06
1.43145e-07
1.43643e-07
6.86902e-06
7.22074e-06
5.19066e-09
7.20086e-06
-4.29652e-07
7.18703e-06
-2.7845e-07
7.2236e-06
1.961e-07
7.22621e-06
-1.18459e-07
7.19988e-06
-3.87173e-07
7.18148e-06
-3.03885e-07
7.1775e-06
-1.41484e-07
7.18639e-06
6.14599e-08
7.19119e-06
6.32606e-08
7.20629e-06
8.86113e-08
7.21562e-06
1.5911e-07
7.20343e-06
7.20984e-08
7.19864e-06
3.30037e-08
7.20055e-06
8.19277e-08
7.19221e-06
1.14119e-07
7.18587e-06
1.02665e-07
7.19064e-06
1.16175e-07
7.19688e-06
1.369e-07
1.41256e-07
7.19927e-06
7.56557e-06
3.84496e-09
7.54625e-06
-4.10334e-07
7.53305e-06
-2.65242e-07
7.56712e-06
1.62026e-07
7.56997e-06
-1.21312e-07
7.54431e-06
-3.61511e-07
7.52694e-06
-2.8651e-07
7.523e-06
-1.37543e-07
7.53137e-06
5.30815e-08
7.53571e-06
5.89231e-08
7.54939e-06
7.49341e-08
7.55977e-06
1.48727e-07
7.54886e-06
8.3005e-08
7.54268e-06
3.9189e-08
7.54526e-06
7.93432e-08
7.53939e-06
1.19996e-07
7.53169e-06
1.10359e-07
7.53382e-06
1.14047e-07
7.54088e-06
1.29844e-07
1.37137e-07
7.545e-06
7.92693e-06
2.72794e-09
7.90819e-06
-3.91593e-07
7.89569e-06
-2.52741e-07
7.92689e-06
1.30822e-07
7.93045e-06
-1.24876e-07
7.90515e-06
-3.36205e-07
7.88873e-06
-2.7009e-07
7.88506e-06
-1.33877e-07
7.89297e-06
4.5178e-08
7.89665e-06
5.52398e-08
7.90894e-06
6.26399e-08
7.92018e-06
1.37486e-07
7.91113e-06
9.20615e-08
7.90399e-06
4.63269e-08
7.90715e-06
7.61811e-08
7.90368e-06
1.23466e-07
7.89444e-06
1.19598e-07
7.89296e-06
1.15526e-07
7.89891e-06
1.23901e-07
1.29954e-07
7.90609e-06
8.30561e-06
1.80182e-09
8.28741e-06
-3.73396e-07
8.27576e-06
-2.41089e-07
8.30375e-06
1.02825e-07
8.30832e-06
-1.2944e-07
8.28343e-06
-3.11319e-07
8.26755e-06
-2.54203e-07
8.26432e-06
-1.30653e-07
8.27196e-06
3.75419e-08
8.27485e-06
5.23512e-08
8.2857e-06
5.17821e-08
8.29753e-06
1.25661e-07
8.29062e-06
9.89748e-08
8.28302e-06
5.39179e-08
8.28821e-06
7.09991e-08
8.2937e-06
1.17968e-07
8.29312e-06
1.20187e-07
8.29714e-06
1.11498e-07
8.3046e-06
1.16449e-07
1.27517e-07
8.30703e-06
8.70244e-06
1.02127e-09
8.68472e-06
-3.55675e-07
8.6741e-06
-2.30467e-07
8.69863e-06
7.82911e-08
8.70424e-06
-1.3505e-07
8.68024e-06
-2.87321e-07
8.66412e-06
-2.3808e-07
8.66148e-06
-1.28009e-07
8.66918e-06
2.98359e-08
8.67123e-06
5.03069e-08
8.6805e-06
4.25122e-08
8.69285e-06
1.13309e-07
8.68843e-06
1.03395e-07
8.68126e-06
6.10898e-08
8.68661e-06
6.56481e-08
8.69361e-06
1.10967e-07
8.69351e-06
1.20283e-07
8.6938e-06
1.1121e-07
8.69921e-06
1.11041e-07
1.2282e-07
8.70391e-06
9.11831e-06
3.27389e-10
9.10089e-06
-3.38255e-07
9.09153e-06
-2.21106e-07
9.11259e-06
5.72331e-08
9.11877e-06
-1.41233e-07
9.09666e-06
-2.65205e-07
9.07951e-06
-2.20936e-07
9.07728e-06
-1.25777e-07
9.08532e-06
2.18011e-08
9.0869e-06
4.87252e-08
9.09414e-06
3.52732e-08
9.10707e-06
1.00376e-07
9.10523e-06
1.05232e-07
9.0979e-06
6.84235e-08
9.10145e-06
6.20982e-08
9.11015e-06
1.02264e-07
9.11317e-06
1.17269e-07
9.11352e-06
1.10857e-07
9.11779e-06
1.06773e-07
1.19519e-07
9.12109e-06
9.55412e-06
-3.33924e-10
9.53688e-06
-3.21011e-07
9.5289e-06
-2.13131e-07
9.54668e-06
3.94544e-08
9.55268e-06
-1.47234e-07
9.53339e-06
-2.45915e-07
9.51483e-06
-2.02375e-07
9.5126e-06
-1.23544e-07
9.52116e-06
1.32366e-08
9.52262e-06
4.72674e-08
9.52777e-06
3.01257e-08
9.54113e-06
8.70162e-08
9.54277e-06
1.03588e-07
9.53406e-06
7.71372e-08
9.5313e-06
6.48551e-08
9.53326e-06
1.00307e-07
9.52832e-06
1.22206e-07
9.52122e-06
1.17957e-07
9.52125e-06
1.06745e-07
1.08199e-07
9.53257e-06
1.00108e-05
-1.03995e-09
9.99364e-06
-3.03807e-07
9.98716e-06
-2.06656e-07
1.00019e-05
2.47551e-08
1.0007e-05
-1.52329e-07
9.99104e-06
-2.29998e-07
9.97182e-06
-1.83153e-07
9.96798e-06
-1.19704e-07
9.9776e-06
3.61011e-09
9.97936e-06
4.55072e-08
9.98235e-06
2.71427e-08
9.99429e-06
7.50721e-08
9.9976e-06
1.00282e-07
9.99245e-06
8.22885e-08
9.99468e-06
6.26256e-08
1.00054e-05
8.95709e-08
1.00144e-05
1.13222e-07
1.00171e-05
1.15214e-07
1.00176e-05
1.06242e-07
1.10362e-07
1.00155e-05
1.04894e-05
-1.84845e-09
1.04723e-05
-2.86673e-07
1.04672e-05
-2.01509e-07
1.04793e-05
1.26636e-08
1.04827e-05
-1.55734e-07
1.04703e-05
-2.17652e-07
1.04512e-05
-1.64006e-07
1.04451e-05
-1.13653e-07
1.04551e-05
-6.3976e-09
1.04578e-05
4.28408e-08
1.0459e-05
2.59165e-08
1.04701e-05
6.40367e-08
1.04751e-05
9.52381e-08
1.04688e-05
8.85535e-08
1.0463e-05
6.85082e-08
1.04642e-05
8.83083e-08
1.04647e-05
1.12706e-07
1.04617e-05
1.18272e-07
1.04606e-05
1.07307e-07
1.04062e-07
1.04669e-05
1.0991e-05
-2.84468e-09
1.09738e-05
-2.69504e-07
1.097e-05
-1.97617e-07
1.09798e-05
2.78084e-09
1.09811e-05
-1.56985e-07
1.0972e-05
-2.08519e-07
1.09544e-05
-1.46407e-07
1.09454e-05
-1.04677e-07
1.09545e-05
-1.55597e-08
1.09588e-05
3.86292e-08
1.0958e-05
2.66482e-08
1.09664e-05
5.56702e-08
1.09714e-05
9.02522e-08
1.09666e-05
9.33397e-08
1.09609e-05
7.41971e-08
1.09623e-05
8.69562e-08
1.09656e-05
1.09352e-07
1.09661e-05
1.17818e-07
1.09664e-05
1.06926e-07
1.00701e-07
1.09698e-05
1.15166e-05
-4.1039e-09
1.14993e-05
-2.52219e-07
1.14966e-05
-1.94846e-07
1.15047e-05
-5.38529e-09
1.15036e-05
-1.55892e-07
1.14967e-05
-2.01569e-07
1.14821e-05
-1.31801e-07
1.14703e-05
-9.28657e-08
1.14774e-05
-2.26738e-08
1.14825e-05
3.34718e-08
1.14804e-05
2.88147e-08
1.1485e-05
5.10246e-08
1.14908e-05
8.4511e-08
1.14889e-05
9.51564e-08
1.14844e-05
7.87945e-08
1.14851e-05
8.61693e-08
1.14899e-05
1.04597e-07
1.14923e-05
1.15385e-07
1.14929e-05
1.06397e-07
9.80277e-08
1.14955e-05
1.20674e-05
-5.69654e-09
1.205e-05
-2.34798e-07
1.2048e-05
-1.92851e-07
1.20552e-05
-1.25573e-08
1.20514e-05
-1.52148e-07
1.20461e-05
-1.96198e-07
1.20349e-05
-1.20636e-07
1.20213e-05
-7.92942e-08
1.20252e-05
-2.65491e-08
1.2031e-05
2.76514e-08
1.20289e-05
3.09105e-08
1.20306e-05
4.9295e-08
1.20362e-05
7.89314e-08
1.20369e-05
9.44518e-08
1.20339e-05
8.18194e-08
1.20342e-05
8.58315e-08
1.20389e-05
9.99336e-08
1.20426e-05
1.11684e-07
1.20434e-05
1.05585e-07
9.57959e-08
1.20457e-05
1.26446e-05
-7.69456e-09
1.2627e-05
-2.17165e-07
1.26255e-05
-1.91442e-07
1.26322e-05
-1.91982e-08
1.2626e-05
-1.45964e-07
1.2621e-05
-1.9119e-07
1.26136e-05
-1.13279e-07
1.25997e-05
-6.53517e-08
1.26e-05
-2.68383e-08
1.26057e-05
2.19298e-08
1.26047e-05
3.18779e-08
1.26051e-05
4.89767e-08
1.26097e-05
7.43122e-08
1.26116e-05
9.25116e-08
1.261e-05
8.34647e-08
1.26103e-05
8.55505e-08
1.26143e-05
9.59181e-08
1.26191e-05
1.06882e-07
1.26206e-05
1.04033e-07
9.40799e-08
1.26223e-05
1.32494e-05
-1.01449e-08
1.32315e-05
-1.9933e-07
1.32304e-05
-1.90289e-07
1.3237e-05
-2.57901e-08
1.32287e-05
-1.37639e-07
1.3223e-05
-1.85557e-07
1.32194e-05
-1.09626e-07
1.32065e-05
-5.24993e-08
1.32034e-05
-2.36829e-08
1.3208e-05
1.72626e-08
1.32084e-05
3.15289e-08
1.32082e-05
4.917e-08
1.32117e-05
7.08478e-08
1.32141e-05
9.00542e-08
1.32136e-05
8.39737e-08
1.32143e-05
8.48483e-08
1.32177e-05
9.25647e-08
1.32228e-05
1.01745e-07
1.32254e-05
1.01402e-07
9.30447e-08
1.32265e-05
1.38831e-05
-1.30647e-08
1.38651e-05
-1.81354e-07
1.38639e-05
-1.89062e-07
1.38707e-05
-3.26541e-08
1.38608e-05
-1.27728e-07
1.38537e-05
-1.78404e-07
1.38531e-05
-1.0901e-07
1.38428e-05
-4.2209e-08
1.38368e-05
-1.76918e-08
1.38395e-05
1.45927e-08
1.38407e-05
3.02653e-08
1.38407e-05
4.918e-08
1.38433e-05
6.8302e-08
1.3846e-05
8.72964e-08
1.38462e-05
8.37796e-08
1.38473e-05
8.37358e-08
1.38503e-05
8.95408e-08
1.3855e-05
9.70634e-08
1.38591e-05
9.73684e-08
9.20079e-08
1.38601e-05
1.4547e-05
-1.64088e-08
1.45291e-05
-1.63439e-07
1.45273e-05
-1.8728e-07
1.45347e-05
-4.00428e-08
1.45238e-05
-1.16824e-07
1.45146e-05
-1.69223e-07
1.45161e-05
-1.10525e-07
1.45091e-05
-3.52253e-08
1.45014e-05
-9.93541e-09
1.45016e-05
1.44265e-08
1.45031e-05
2.86852e-08
1.45037e-05
4.86104e-08
1.45057e-05
6.62621e-08
1.45084e-05
8.4612e-08
1.4509e-05
8.31891e-08
1.45104e-05
8.23261e-08
1.45137e-05
8.62336e-08
1.45177e-05
9.30807e-08
1.45225e-05
9.25631e-08
9.00345e-08
1.45245e-05
1.52425e-05
-2.00697e-08
1.5225e-05
-1.45907e-07
1.52221e-05
-1.84414e-07
1.52301e-05
-4.79531e-08
1.52189e-05
-1.05708e-07
1.52075e-05
-1.57741e-07
1.52099e-05
-1.12937e-07
1.52065e-05
-3.18085e-08
1.51983e-05
-1.82251e-09
1.51961e-05
1.67032e-08
1.51972e-05
2.75346e-08
1.51984e-05
4.74662e-08
1.52003e-05
6.43426e-08
1.52029e-05
8.20268e-08
1.52039e-05
8.21167e-08
1.52053e-05
8.09132e-08
1.52089e-05
8.26664e-08
1.52126e-05
8.93941e-08
1.5217e-05
8.81766e-08
8.64768e-08
1.52205e-05
1.59711e-05
-2.38813e-08
1.59544e-05
-1.29169e-07
1.59499e-05
-1.79947e-07
1.59581e-05
-5.60974e-08
1.59475e-05
-9.51639e-08
1.59337e-05
-1.43942e-07
1.59357e-05
-1.1492e-07
1.59356e-05
-3.16813e-08
1.59287e-05
5.08831e-09
1.59244e-05
2.09986e-08
1.59246e-05
2.73483e-08
1.59262e-05
4.58893e-08
1.59283e-05
6.21808e-08
1.59309e-05
7.94566e-08
1.59323e-05
8.06759e-08
1.59336e-05
7.96723e-08
1.5937e-05
7.92366e-08
1.59411e-05
8.52504e-08
1.59446e-05
8.46886e-08
8.17983e-08
1.59493e-05
1.67344e-05
-2.76387e-08
1.67188e-05
-1.13618e-07
1.67124e-05
-1.73555e-07
1.67203e-05
-6.39578e-08
1.6711e-05
-8.58389e-08
1.66952e-05
-1.28177e-07
1.66949e-05
-1.1461e-07
1.66979e-05
-3.46677e-08
1.66934e-05
9.56068e-09
1.6688e-05
2.63406e-08
1.66871e-05
2.82571e-08
1.66887e-05
4.43055e-08
1.66912e-05
5.97331e-08
1.66938e-05
7.67872e-08
1.66956e-05
7.89129e-08
1.66969e-05
7.83418e-08
1.66998e-05
7.63275e-08
1.67046e-05
8.05003e-08
1.67077e-05
8.16251e-08
7.73588e-08
1.67121e-05
1.75338e-05
-3.1128e-08
1.75198e-05
-9.95422e-08
1.75114e-05
-1.65211e-07
1.75183e-05
-7.083e-08
1.75107e-05
-7.82594e-08
1.74939e-05
-1.11404e-07
1.74899e-05
-1.10537e-07
1.74949e-05
-3.96462e-08
1.74936e-05
1.07915e-08
1.74885e-05
3.14313e-08
1.74865e-05
3.02585e-08
1.74878e-05
4.30718e-08
1.74905e-05
5.70382e-08
1.74934e-05
7.38684e-08
1.74954e-05
7.68677e-08
1.74972e-05
7.65856e-08
1.74994e-05
7.4109e-08
1.75042e-05
7.57477e-08
1.75077e-05
7.81039e-08
7.38181e-08
1.75112e-05
1.83714e-05
-3.41409e-08
1.8359e-05
-8.71642e-08
1.83488e-05
-1.55032e-07
1.83541e-05
-7.61672e-08
1.83484e-05
-7.25404e-08
1.8332e-05
-9.50249e-08
1.83242e-05
-1.02664e-07
1.83287e-05
-4.41482e-08
1.83309e-05
8.54999e-09
1.83273e-05
3.50883e-08
1.83245e-05
3.2974e-08
1.83252e-05
4.24244e-08
1.83279e-05
5.42865e-08
1.83312e-05
7.05891e-08
1.83334e-05
7.46609e-08
1.83357e-05
7.43384e-08
1.83376e-05
7.21677e-08
1.83417e-05
7.16657e-08
1.83461e-05
7.37161e-08
7.09467e-08
1.8349e-05
1.92487e-05
-3.64988e-08
1.92382e-05
-7.65659e-08