/*--------------------------------*- C++ -*----------------------------------*\
| =========                 |                                                 |
| \\      /  F ield         | OpenFOAM: The Open Source CFD Toolbox           |
|  \\    /   O peration     | Version:  v1912                                 |
|   \\  /    A nd           | Website:  www.openfoam.com                      |
|    \\/     M anipulation  |                                                 |
\*---------------------------------------------------------------------------*/
FoamFile
{
    version     2.0;
    format      ascii;
    class       surfaceScalarField;
    location    "7.05";
    object      phi;
}
// * * * * * * * * * * * * * * * * * * * * * * * * * * * * * * * * * * * * * //

dimensions      [0 3 -1 0 0 0 0];
oriented        oriented;


internalField   nonuniform List<scalar> 
19000
(
1.18996e-06
9.61974e-07
1.13093e-06
-1.25444e-06
1.18275e-06
1.01538e-06
1.10643e-06
-1.15861e-06
1.12436e-06
-5.92675e-07
1.21659e-06
1.55403e-06
1.13523e-06
-1.42383e-07
1.12211e-06
9.84509e-09
1.19927e-06
1.78151e-06
1.10967e-06
-6.60777e-07
1.17741e-06
9.88689e-07
1.10702e-06
-2.2749e-07
1.16452e-06
-4.62707e-07
1.14738e-06
-3.87738e-07
1.16764e-06
-4.75218e-07
1.17321e-06
2.89282e-07
1.17461e-06
8.64145e-08
1.18941e-06
6.08859e-07
1.18541e-06
3.23556e-07
6.98066e-07
1.23252e-06
1.24487e-06
9.41364e-07
1.1857e-06
-1.19526e-06
1.23373e-06
9.6735e-07
1.15723e-06
-1.0821e-06
1.17889e-06
-6.14337e-07
1.27926e-06
1.45367e-06
1.1984e-06
-6.15285e-08
1.18147e-06
2.67775e-08
1.25019e-06
1.71279e-06
1.16349e-06
-5.74075e-07
1.22174e-06
9.30438e-07
1.15961e-06
-1.65364e-07
1.21424e-06
-5.17333e-07
1.20784e-06
-3.8134e-07
1.22031e-06
-4.87685e-07
1.2592e-06
2.50389e-07
1.22877e-06
1.16851e-07
1.27958e-06
5.58045e-07
1.24048e-06
3.62655e-07
6.2085e-07
1.3177e-06
1.30241e-06
9.2174e-07
1.24397e-06
-1.13682e-06
1.28627e-06
9.25056e-07
1.21575e-06
-1.01159e-06
1.23624e-06
-6.34828e-07
1.3402e-06
1.34971e-06
1.26589e-06
1.27796e-08
1.24841e-06
4.42516e-08
1.30438e-06
1.65682e-06
1.22343e-06
-4.93127e-07
1.26989e-06
8.83977e-07
1.22885e-06
-1.24322e-07
1.26673e-06
-5.55209e-07
1.27897e-06
-3.93584e-07
1.27631e-06
-4.85023e-07
1.33279e-06
1.93907e-07
1.29106e-06
1.58586e-07
1.3343e-06
5.14802e-07
1.31302e-06
3.83932e-07
5.90787e-07
1.34309e-06
1.36248e-06
9.03368e-07
1.30701e-06
-1.08136e-06
1.34063e-06
8.91433e-07
1.28311e-06
-9.54072e-07
1.29707e-06
-6.48789e-07
1.39659e-06
1.2502e-06
1.3359e-06
7.34696e-08
1.31994e-06
6.02107e-08
1.36027e-06
1.61649e-06
1.2907e-06
-4.23565e-07
1.32374e-06
8.50945e-07
1.30543e-06
-1.06017e-07
1.32008e-06
-5.69854e-07
1.34926e-06
-4.22764e-07
1.3362e-06
-4.71962e-07
1.3852e-06
1.449e-07
1.35671e-06
1.87083e-07
1.37531e-06
4.96196e-07
1.37424e-06
3.85003e-07
5.71223e-07
1.39381e-06
1.4252e-06
8.86517e-07
1.37469e-06
-1.03084e-06
1.3981e-06
8.68027e-07
1.35738e-06
-9.13349e-07
1.36177e-06
-6.53186e-07
1.44971e-06
1.16226e-06
1.40772e-06
1.1546e-07
1.39215e-06
7.57825e-08
1.41757e-06
1.59106e-06
1.36262e-06
-3.6861e-07
1.38475e-06
8.2881e-07
1.38084e-06
-1.02104e-07
1.3772e-06
-5.66209e-07
1.4119e-06
-4.5747e-07
1.40134e-06
-4.61402e-07
1.43547e-06
1.10775e-07
1.42567e-06
1.96879e-07
1.43223e-06
4.89639e-07
1.43455e-06
3.82683e-07
5.50658e-07
1.45511e-06
1.49073e-06
8.71463e-07
1.44645e-06
-9.8656e-07
1.4602e-06
8.54268e-07
1.4353e-06
-8.88448e-07
1.43129e-06
-6.49176e-07
1.504e-06
1.08955e-06
1.48084e-06
1.38622e-07
1.46338e-06
9.32362e-08
1.47859e-06
1.57586e-06
1.43751e-06
-3.27527e-07
1.45171e-06
8.14609e-07
1.45308e-06
-1.03475e-07
1.44065e-06
-5.53779e-07
1.47178e-06
-4.88599e-07
1.46995e-06
-4.59571e-07
1.49628e-06
8.44419e-08
1.49884e-06
1.94321e-07
1.50628e-06
4.82203e-07
1.5077e-06
3.81254e-07
5.32081e-07
1.52628e-06
1.55923e-06
8.58451e-07
1.52164e-06
-9.48966e-07
1.52815e-06
8.4775e-07
1.51448e-06
-8.7477e-07
1.50631e-06
-6.41012e-07
1.56376e-06
1.03211e-06
1.55458e-06
1.47799e-07
1.53461e-06
1.13213e-07
1.54637e-06
1.5641e-06
1.51561e-06
-2.96769e-07
1.5233e-06
8.06917e-07
1.52489e-06
-1.0507e-07
1.50979e-06
-5.38669e-07
1.53397e-06
-5.12787e-07
1.53934e-06
-4.64938e-07
1.56517e-06
5.86096e-08
1.57565e-06
1.83841e-07
1.5883e-06
4.69551e-07
1.59124e-06
3.7832e-07
5.15557e-07
1.60776e-06
1.63096e-06
8.47619e-07
1.59999e-06
-9.17995e-07
1.60241e-06
8.45333e-07
1.5942e-06
-8.66569e-07
1.58649e-06
-6.33294e-07
1.63064e-06
9.87955e-07
1.62835e-06
1.50084e-07
1.60769e-06
1.33879e-07
1.62213e-06
1.54965e-06
1.59777e-06
-2.72406e-07
1.6001e-06
8.04588e-07
1.59975e-06
-1.04719e-07
1.58312e-06
-5.22034e-07
1.60024e-06
-5.29907e-07
1.60912e-06
-4.73818e-07
1.63641e-06
3.13159e-08
1.65323e-06
1.6702e-07
1.6709e-06
4.51879e-07
1.67671e-06
3.72514e-07
4.99149e-07
1.69312e-06
1.70629e-06
8.38906e-07
1.68162e-06
-8.9333e-07
1.68262e-06
8.44336e-07
1.67512e-06
-8.59067e-07
1.67077e-06
-6.28949e-07
1.70388e-06
9.54844e-07
1.70211e-06
1.5186e-07
1.68407e-06
1.51919e-07
1.7048e-06
1.52891e-06
1.68425e-06
-2.51855e-07
1.68363e-06
8.05213e-07
1.68019e-06
-1.01282e-07
1.66081e-06
-5.02653e-07
1.67098e-06
-5.40076e-07
1.68055e-06
-4.83392e-07
1.70815e-06
3.71473e-09
1.7298e-06
1.45369e-07
1.75116e-06
4.30523e-07
1.75958e-06
3.64096e-07
4.81847e-07
1.77688e-06
1.78564e-06
8.31993e-07
1.76672e-06
-8.74416e-07
1.76795e-06
8.43107e-07
1.75827e-06
-8.4939e-07
1.75822e-06
-6.28892e-07
1.78223e-06
9.30829e-07
1.7768e-06
1.57286e-07
1.76472e-06
1.64005e-07
1.79233e-06
1.50131e-06
1.7745e-06
-2.34025e-07
1.7745e-06
8.05213e-07
1.76737e-06
-9.41587e-08
1.74433e-06
-4.79606e-07
1.74684e-06
-5.42587e-07
1.75523e-06
-4.91786e-07
1.78181e-06
-2.28614e-08
1.80665e-06
1.20527e-07
1.8305e-06
4.06673e-07
1.84095e-06
3.53647e-07
4.63431e-07
1.85936e-06
1.86941e-06
8.26335e-07
1.85527e-06
-8.6028e-07
1.85748e-06
8.40902e-07
1.84453e-06
-8.36444e-07
1.8482e-06
-6.32567e-07
1.86515e-06
9.13887e-07
1.85438e-06
1.68049e-07
1.85038e-06
1.68007e-07
1.88321e-06
1.46848e-06
1.86763e-06
-2.18451e-07
1.87167e-06
8.01177e-07
1.86093e-06
-8.3418e-08
1.83492e-06
-4.53593e-07
1.82888e-06
-5.36549e-07
1.83461e-06
-4.97522e-07
1.8594e-06
-4.76498e-08
1.88646e-06
9.34699e-08
1.91242e-06
3.80712e-07
1.92462e-06
3.41443e-07
4.43675e-07
1.94438e-06
1.95787e-06
8.21302e-07
1.94711e-06
-8.49517e-07
1.95058e-06
8.37434e-07
1.93441e-06
-8.20275e-07
1.94033e-06
-6.38488e-07
1.95275e-06
9.01467e-07
1.93714e-06
1.83661e-07
1.94132e-06
1.63828e-07
1.97705e-06
1.43275e-06
1.96307e-06
-2.04469e-07
1.97284e-06
7.914e-07
1.95918e-06
-6.97523e-08
1.93252e-06
-4.26932e-07
1.91801e-06
-5.22046e-07
1.91988e-06
-4.99392e-07
1.94205e-06
-6.98214e-08
1.97067e-06
6.48577e-08
1.99907e-06
3.52309e-07
2.01301e-06
3.27503e-07
4.22197e-07
2.03449e-06
2.05114e-06
8.16354e-07
2.04226e-06
-8.40638e-07
2.04717e-06
8.32517e-07
2.02827e-06
-8.01367e-07
2.03451e-06
-6.44732e-07
2.0453e-06
8.90682e-07
2.02684e-06
2.02115e-07
2.03709e-06
1.53581e-07
2.07424e-06
1.3956e-06
2.06078e-06
-1.91006e-07
2.07559e-06
7.76586e-07
2.05999e-06
-5.41517e-08
2.03557e-06
-4.02508e-07
2.0143e-06
-5.00779e-07
2.01173e-06
-4.96826e-07
2.02988e-06
-8.79686e-08
2.05855e-06
3.6189e-08
2.08947e-06
3.21385e-07
2.10486e-06
3.12116e-07
3.98846e-07
2.12821e-06
2.14922e-06
8.11138e-07
2.14108e-06
-8.32502e-07
2.14768e-06
8.2592e-07
2.1265e-06
-7.80193e-07
2.13132e-06
-6.49552e-07
2.14294e-06
8.79068e-07
2.1241e-06
2.20952e-07
2.13693e-06
1.40749e-07
2.1753e-06
1.35723e-06
2.1612e-06
-1.76905e-07
2.17871e-06
7.59073e-07
2.16202e-06
-3.74572e-08
2.1418e-06
-3.82287e-07
2.11665e-06
-4.75628e-07
2.1101e-06
-4.90277e-07
2.12271e-06
-1.00577e-07
2.14871e-06
1.01844e-08
2.18101e-06
2.89083e-07
2.19673e-06
2.96395e-07
3.74193e-07
2.22139e-06
2.25216e-06
8.05465e-07
2.24414e-06
-8.24477e-07
2.25269e-06
8.1737e-07
2.22959e-06
-7.57101e-07
2.23188e-06
-6.51842e-07
2.24572e-06
8.6523e-07
2.22835e-06
2.38326e-07
2.24047e-06
1.28627e-07
2.28037e-06
1.31733e-06
2.26492e-06
-1.61462e-07
2.283e-06
7.40993e-07
2.26556e-06
-2.00159e-08
2.24967e-06
-3.66391e-07
2.2234e-06
-4.4936e-07
2.21421e-06
-4.81091e-07
2.22079e-06
-1.07149e-07
2.24129e-06
-1.03202e-08
2.27281e-06
2.57566e-07
2.28704e-06
2.8216e-07
3.49605e-07
2.31163e-06
2.36014e-06
7.99204e-07
2.35186e-06
-8.16203e-07
2.36262e-06
8.06608e-07
2.33799e-06
-7.32466e-07
2.3372e-06
-6.51055e-07
2.35349e-06
8.48944e-07
2.33839e-06
2.53428e-07
2.34787e-06
1.19144e-07
2.38912e-06
1.27608e-06
2.37244e-06
-1.44783e-07
2.39064e-06
7.22802e-07
2.37229e-06
-1.67254e-09
2.35935e-06
-3.53452e-07
2.33341e-06
-4.23421e-07
2.32314e-06
-4.70819e-07
2.32483e-06
-1.08833e-07
2.33841e-06
-2.39074e-08
2.36736e-06
2.28615e-07
2.3786e-06
2.70929e-07
3.26695e-07
2.40151e-06
2.47338e-06
7.9222e-07
2.46446e-06
-8.07282e-07
2.4776e-06
7.9347e-07
2.45197e-06
-7.06842e-07
2.44769e-06
-6.46772e-07
2.46583e-06
8.30807e-07
2.45314e-06
2.66117e-07
2.4595e-06
1.12782e-07
2.50127e-06
1.23431e-06
2.48414e-06
-1.27653e-07
2.50364e-06
7.03305e-07
2.48409e-06
1.78731e-08
2.47245e-06
-3.41811e-07
2.44677e-06
-3.97739e-07
2.43631e-06
-4.60363e-07
2.43535e-06
-1.07876e-07
2.44245e-06
-3.10024e-08
2.46854e-06
2.02526e-07
2.47656e-06
2.6291e-07
3.0656e-07
2.49669e-06
2.59214e-06
7.84378e-07
2.58204e-06
-7.97182e-07
2.59755e-06
7.77953e-07
2.57162e-06
-6.80914e-07
2.56334e-06
-6.38489e-07
2.58238e-06
8.11767e-07
2.57216e-06
2.76335e-07
2.57566e-06
1.09284e-07
2.61707e-06
1.19291e-06
2.6004e-06
-1.10989e-07
2.6228e-06
6.80912e-07
2.60202e-06
3.86487e-08
2.59074e-06
-3.30531e-07
2.56455e-06
-3.71545e-07
2.55377e-06
-4.49583e-07
2.55234e-06
-1.06452e-07
2.55416e-06
-3.28185e-08
2.57824e-06
1.78449e-07
2.58406e-06
2.57089e-07
2.89523e-07
2.60109e-06
2.71661e-06
7.75594e-07
2.70482e-06
-7.85391e-07
2.72255e-06
7.60222e-07
2.69691e-06
-6.55266e-07
2.68426e-06
-6.25847e-07
2.70328e-06
7.92751e-07
2.6957e-06
2.83911e-07
2.69669e-06
1.08302e-07
2.73746e-06
1.15213e-06
2.72181e-06
-9.53424e-08
2.74786e-06
6.54866e-07
2.72623e-06
6.02737e-08
2.71524e-06
-3.19534e-07
2.68802e-06
-3.44327e-07
2.67602e-06
-4.37583e-07
2.67546e-06
-1.05888e-07
2.67287e-06
-3.0229e-08
2.6956e-06
1.55712e-07
2.70057e-06
2.52122e-07
2.75617e-07
2.71448e-06
2.847e-06
7.6586e-07
2.83322e-06
-7.71607e-07
2.8529e-06
7.40537e-07
2.82781e-06
-6.3017e-07
2.81096e-06
-6.08996e-07
2.82927e-06
7.74439e-07
2.82442e-06
2.88755e-07
2.82316e-06
1.09564e-07
2.86365e-06
1.11164e-06
2.84906e-06
-8.07541e-08
2.87843e-06
6.255e-07
2.85655e-06
8.21529e-08
2.84614e-06
-3.09127e-07
2.81802e-06
-3.16207e-07
2.80375e-06
-4.23309e-07
2.80451e-06
-1.06652e-07
2.79794e-06
-2.36519e-08
2.81897e-06
1.34675e-07
2.82402e-06
2.47075e-07
2.65077e-07
2.83456e-06
2.98354e-06
7.55218e-07
2.96771e-06
-7.55777e-07
2.98907e-06
7.19174e-07
2.96445e-06
-6.05545e-07
2.9441e-06
-5.88654e-07
2.96134e-06
7.57198e-07
2.95903e-06
2.91065e-07
2.95586e-06
1.12739e-07
2.99662e-06
1.07088e-06
2.98276e-06
-6.68951e-08
3.01457e-06
5.93689e-07
2.993e-06
1.03724e-07
2.98336e-06
-2.99488e-07
2.95489e-06
-2.87739e-07
2.93758e-06
-4.05997e-07
2.93966e-06
-1.08734e-07
2.92956e-06
-1.35446e-08
2.94781e-06
1.1642e-07
2.95344e-06
2.41446e-07
2.58156e-07
2.96036e-06
3.1265e-06
7.4372e-07
3.10873e-06
-7.38007e-07
3.13154e-06
6.96366e-07
3.10709e-06
-5.81088e-07
3.08428e-06
-5.65852e-07
3.10036e-06
7.41126e-07
3.10013e-06
2.91292e-07
3.09551e-06
1.17357e-07
3.13688e-06
1.02951e-06
3.12325e-06
-5.32698e-08
3.15673e-06
5.60215e-07
3.1359e-06
1.24552e-07
3.12691e-06
-2.90499e-07
3.09877e-06
-2.59602e-07
3.07798e-06
-3.85208e-07
3.08124e-06
-1.11992e-07
3.06844e-06
-7.46434e-10
3.08283e-06
1.02038e-07
3.0895e-06
2.34772e-07
2.54705e-07
3.09295e-06
3.27623e-06
7.31398e-07
3.25668e-06
-7.18454e-07
3.28075e-06
6.72294e-07
3.25609e-06
-5.56424e-07
3.23184e-06
-5.41602e-07
3.24682e-06
7.2614e-07
3.24817e-06
2.89948e-07
3.24263e-06
1.22891e-07
3.2846e-06
9.87544e-07
3.2707e-06
-3.93707e-08
3.30538e-06
5.25543e-07
3.28567e-06
1.44254e-07
3.277e-06
-2.81827e-07
3.24984e-06
-2.3244e-07
3.22539e-06
-3.6076e-07
3.22954e-06
-1.16144e-07
3.21526e-06
1.35317e-08
3.22505e-06
9.22533e-08
3.23337e-06
2.26452e-07
2.53849e-07
3.23423e-06
3.43307e-06
7.18264e-07
3.41189e-06
-6.97274e-07
3.43708e-06
6.47104e-07
3.41184e-06
-5.31187e-07
3.38695e-06
-5.16714e-07
3.40103e-06
7.12057e-07
3.40354e-06
2.87441e-07
3.39753e-06
1.28898e-07
3.43983e-06
9.45247e-07
3.42524e-06
-2.4783e-08
3.46084e-06
4.89943e-07
3.44268e-06
1.62414e-07
3.43393e-06
-2.73068e-07
3.40835e-06
-2.06866e-07
3.38024e-06
-3.32648e-07
3.38481e-06
-1.20713e-07
3.37039e-06
2.79477e-08
3.37533e-06
8.73138e-08
3.38564e-06
2.16148e-07
2.5412e-07
3.38537e-06
3.59735e-06
7.04322e-07
3.5747e-06
-6.74621e-07
3.60088e-06
6.20923e-07
3.57473e-06
-5.05033e-07
3.54981e-06
-4.91794e-07
3.56322e-06
6.9864e-07
3.56663e-06
2.84034e-07
3.56044e-06
1.35089e-07
3.60264e-06
9.03042e-07
3.58714e-06
-9.27867e-09
3.62336e-06
4.53718e-07
3.60718e-06
1.78601e-07
3.59797e-06
-2.63867e-07
3.57455e-06
-1.83439e-07
3.54301e-06
-3.01108e-07
3.5473e-06
-1.25e-07
3.53397e-06
4.12751e-08
3.53436e-06
8.69192e-08
3.54622e-06
2.0429e-07
2.53831e-07
3.54651e-06
3.76943e-06
6.89594e-07
3.74548e-06
-6.50664e-07
3.77254e-06
5.93865e-07
3.74512e-06
-4.77622e-07
3.72064e-06
-4.6731e-07
3.73366e-06
6.85623e-07
3.73779e-06
2.79903e-07
3.73158e-06
1.41294e-07
3.77322e-06
8.61404e-07
3.7568e-06
7.14563e-09
3.7932e-06
4.17315e-07
3.77933e-06
1.92466e-07
3.76939e-06
-2.53927e-07
3.7486e-06
-1.62639e-07
3.71415e-06
-2.66665e-07
3.71734e-06
-1.28185e-07
3.70607e-06
5.2544e-08
3.70251e-06
9.04718e-08
3.71487e-06
1.9194e-07
2.51535e-07
3.71716e-06
3.94966e-06
6.74119e-07
3.9246e-06
-6.25599e-07
3.95243e-06
5.66036e-07
3.92342e-06
-4.48614e-07
3.89978e-06
-4.4367e-07
3.91267e-06
6.72728e-07
3.91737e-06
2.75212e-07
3.91129e-06
1.47368e-07
3.95189e-06
8.20804e-07
3.93476e-06
2.42763e-08
3.97076e-06
3.81321e-07
3.95937e-06
2.03854e-07
3.94843e-06
-2.42993e-07
3.93058e-06
-1.44789e-07
3.89409e-06
-2.30166e-07
3.89532e-06
-1.29424e-07
3.88681e-06
6.1061e-08
3.88011e-06
9.71678e-08
3.89155e-06
1.80503e-07
2.46316e-07
3.89677e-06
4.13842e-06
6.57949e-07
4.11244e-06
-5.99623e-07
4.14095e-06
5.37527e-07
4.11003e-06
-4.17696e-07
4.0876e-06
-4.21232e-07
4.10064e-06
6.59679e-07
4.10569e-06
2.70169e-07
4.09995e-06
1.53102e-07
4.13909e-06
7.81667e-07
4.12162e-06
4.17481e-08
4.15656e-06
3.46379e-07
4.14757e-06
2.12844e-07
4.1354e-06
-2.30819e-07
4.12063e-06
-1.30022e-07
4.08313e-06
-1.92665e-07
4.08166e-06
-1.27959e-07
4.07634e-06
6.63838e-08
4.06748e-06
1.06031e-07
4.07666e-06
1.71324e-07
2.37954e-07
4.08502e-06
4.33611e-06
6.41138e-07
4.3094e-06
-5.72909e-07
4.33851e-06
5.08414e-07
4.30543e-06
-3.84617e-07
4.28448e-06
-4.00278e-07
4.29794e-06
6.46217e-07
4.30307e-06
2.6504e-07
4.29798e-06
1.58194e-07
4.33531e-06
7.44336e-07
4.31793e-06
5.91293e-08
4.35123e-06
3.13076e-07
4.34435e-06
2.19727e-07
4.3307e-06
-2.17167e-07
4.31893e-06
-1.18255e-07
4.28155e-06
-1.55287e-07
4.27676e-06
-1.23168e-07
4.27478e-06
6.8369e-08
4.26494e-06
1.15865e-07
4.27096e-06
1.65304e-07
2.26988e-07
4.28193e-06
4.54319e-06
6.23721e-07
4.51586e-06
-5.45573e-07
4.54552e-06
4.78753e-07
4.51014e-06
-3.49245e-07
4.49083e-06
-3.80963e-07
4.50495e-06
6.321e-07
4.50984e-06
2.60143e-07
4.50579e-06
1.62251e-07
4.54108e-06
7.09043e-07
4.52419e-06
7.60223e-08
4.55542e-06
2.81843e-07
4.55025e-06
2.24897e-07
4.53485e-06
-2.01765e-07
4.52582e-06
-1.09223e-07
4.48962e-06
-1.19087e-07
4.48114e-06
-1.14697e-07
4.48227e-06
6.72407e-08
4.47279e-06
1.25345e-07
4.47539e-06
1.62701e-07
2.14657e-07
4.48773e-06
4.76013e-06
6.05708e-07
4.73221e-06
-5.17659e-07
4.76239e-06
4.48581e-07
4.72474e-06
-3.11602e-07
4.70705e-06
-3.63271e-07
4.72204e-06
6.17105e-07
4.72636e-06
2.55827e-07
4.72376e-06
1.64856e-07
4.75692e-06
6.75882e-07
4.74079e-06
9.21525e-08
4.76973e-06
2.529e-07
4.76589e-06
2.28738e-07
4.74849e-06
-1.84369e-07
4.74178e-06
-1.0251e-07
4.70768e-06
-8.49896e-08
4.69545e-06
-1.02463e-07
4.69905e-06
6.36401e-08
4.69122e-06
1.33178e-07
4.69079e-06
1.63126e-07
2.02563e-07
4.70289e-06
4.98742e-06
5.87082e-07
4.9589e-06
-4.89134e-07
4.98956e-06
4.17919e-07
4.94984e-06
-2.71879e-07
4.93357e-06
-3.47e-07
4.94964e-06
6.01032e-07
4.95302e-06
2.52447e-07
4.95224e-06
1.65643e-07
4.98331e-06
6.44806e-07
4.96808e-06
1.07381e-07
4.99472e-06
2.26267e-07
4.99191e-06
2.31545e-07
4.97238e-06
-1.64837e-07
4.96741e-06
-9.75433e-08
4.93617e-06
-5.375e-08
4.9204e-06
-8.6688e-08
4.92549e-06
5.85476e-08
4.92031e-06
1.38354e-07
4.91776e-06
1.65682e-07
1.922e-07
4.92812e-06
5.22559e-06
5.67805e-07
5.19637e-06
-4.59913e-07
5.22751e-06
3.86782e-07
5.18606e-06
-2.30428e-07
5.17085e-06
-3.31791e-07
5.18818e-06
5.83695e-07
5.19029e-06
2.50346e-07
5.19155e-06
1.6438e-07
5.22074e-06
6.15611e-07
5.20638e-06
1.21749e-07
5.23085e-06
2.01793e-07
5.22898e-06
2.33412e-07
5.20722e-06
-1.43073e-07
5.20339e-06
-9.37199e-08
5.17565e-06
-2.60057e-08
5.15669e-06
-6.7724e-08
5.16211e-06
5.3124e-08
5.16014e-06
1.40319e-07
5.15666e-06
1.69169e-07
1.84579e-07
5.16428e-06
5.47516e-06
5.47837e-07
5.44513e-06
-4.29882e-07
5.47672e-06
3.55193e-07
5.43402e-06
-1.87737e-07
5.41939e-06
-3.17159e-07
5.43818e-06
5.64905e-07
5.43868e-06
2.49844e-07
5.44203e-06
1.61034e-07
5.46971e-06
5.87934e-07
5.456e-06
1.35457e-07
5.47853e-06
1.79259e-07
5.47771e-06
2.34231e-07
5.45373e-06
-1.19093e-07
5.45042e-06
-9.04091e-08
5.42668e-06
-2.25942e-09
5.40511e-06
-4.61511e-08
5.40955e-06
4.86812e-08
5.41082e-06
1.39047e-07
5.40773e-06
1.72262e-07
1.79968e-07
5.41234e-06
5.73665e-06
5.27141e-07
5.70571e-06
-3.98936e-07
5.7377e-06
3.232e-07
5.69435e-06
-1.4439e-07
5.67975e-06
-3.0255e-07
5.70022e-06
5.44426e-07
5.69882e-06
2.51251e-07
5.70408e-06
1.55773e-07
5.73073e-06
5.61283e-07
5.71739e-06
1.48798e-07
5.73816e-06
1.5849e-07
5.73867e-06
2.33714e-07
5.71267e-06
-9.30948e-08
5.70916e-06
-8.68991e-08
5.68976e-06
1.7147e-08
5.66639e-06
-2.27822e-08
5.66873e-06
4.63426e-08
5.6727e-06
1.3508e-07
5.67102e-06
1.73933e-07
1.77646e-07
5.67335e-06
6.01064e-06
5.05693e-07
5.9787e-06
-3.66995e-07
6.01101e-06
2.90893e-07
5.96766e-06
-1.0104e-07
5.95247e-06
-2.87364e-07
5.97489e-06
5.22008e-07
5.97134e-06
2.54796e-07
5.97816e-06
1.48958e-07
6.0044e-06
5.35039e-07
5.99109e-06
1.62113e-07
6.01013e-06
1.39446e-07
6.01237e-06
2.31474e-07
5.98473e-06
-6.54514e-08
5.98032e-06
-8.24941e-08
5.96532e-06
3.21469e-08
5.94118e-06
1.35785e-09
5.94067e-06
4.68551e-08
5.94638e-06
1.29374e-07
5.94673e-06
1.73578e-07
1.76462e-07
5.94792e-06
6.2977e-06
4.83484e-07
6.26473e-06
-3.34027e-07
6.29721e-06
2.58411e-07
6.25454e-06
-5.83715e-08
6.23815e-06
-2.70972e-07
6.26275e-06
4.9741e-07
6.25698e-06
2.60559e-07
6.26481e-06
1.41136e-07
6.29135e-06
5.08498e-07
6.27776e-06
1.75705e-07
6.29494e-06
1.22267e-07
6.29931e-06
2.27095e-07
6.27056e-06
-3.66957e-08
6.26453e-06
-7.64609e-08
6.25381e-06
4.28648e-08
6.23e-06
2.51607e-08
6.22636e-06
5.04994e-08
6.2328e-06
1.22938e-07
6.2351e-06
1.71273e-07
1.75231e-07
6.23633e-06
6.59844e-06
4.60518e-07
6.56446e-06
-3.00056e-07
6.59691e-06
2.25961e-07
6.55565e-06
-1.71039e-08
6.53737e-06
-2.52695e-07
6.56438e-06
4.70402e-07
6.55648e-06
2.68455e-07
6.56464e-06
1.32981e-07
6.59209e-06
4.81048e-07
6.5782e-06
1.89592e-07
6.59313e-06
1.07332e-07
6.59993e-06
2.20301e-07
6.57087e-06
-7.63214e-09
6.56246e-06
-6.80572e-08
6.55561e-06
4.97157e-08
6.5333e-06
4.74761e-08
6.52667e-06
5.71254e-08
6.53292e-06
1.16687e-07
6.53673e-06
1.6746e-07
1.73241e-07
6.53873e-06
6.91349e-06
4.36816e-07
6.87862e-06
-2.65185e-07
6.91075e-06
1.93833e-07
6.8716e-06
2.20448e-08
6.85078e-06
-2.31877e-07
6.88034e-06
4.40847e-07
6.87071e-06
2.78085e-07
6.87832e-06
1.25374e-07
6.90715e-06
4.52217e-07
6.89326e-06
2.03476e-07
6.90539e-06
9.52092e-08
6.91467e-06
2.11013e-07
6.88629e-06
2.07494e-08
6.875e-06
-5.67664e-08
6.87124e-06
5.34735e-08
6.85146e-06
6.72576e-08
6.84223e-06
6.63594e-08
6.84751e-06
1.11404e-07
6.85245e-06
1.62517e-07
1.70313e-07
6.85538e-06
7.24353e-06
4.1242e-07
7.20793e-06
-2.29587e-07
7.23939e-06
1.62376e-07
7.20312e-06
5.83164e-08
7.17915e-06
-2.07913e-07
7.21117e-06
4.08828e-07
7.20083e-06
2.88432e-07
7.20661e-06
1.19595e-07
7.23702e-06
4.21808e-07
7.2238e-06
2.16695e-07
7.23246e-06
8.65478e-08
7.24404e-06
1.99434e-07
7.21753e-06
4.72579e-08
7.20315e-06
-4.23894e-08
7.20146e-06
5.51644e-08
7.18494e-06
8.37789e-08
7.17363e-06
7.76636e-08
7.17709e-06
1.07948e-07
7.183e-06
1.56609e-07
1.66353e-07
7.18696e-06
7.58926e-06
3.87388e-07
7.55319e-06
-1.93515e-07
7.58352e-06
1.32041e-07
7.55092e-06
9.09214e-08
7.52334e-06
-1.80334e-07
7.55746e-06
3.74704e-07
7.5476e-06
2.98289e-07
7.55031e-06
1.16886e-07
7.58222e-06
3.89895e-07
7.57056e-06
2.28358e-07
7.57527e-06
8.18341e-08
7.58861e-06
1.86101e-07
7.56513e-06
7.07322e-08
7.54814e-06
-2.54004e-08
7.54736e-06
5.59484e-08
7.53422e-06
9.69147e-08
7.52141e-06
9.04746e-08
7.522e-06
1.07363e-07
7.52861e-06
1.49994e-07
1.61237e-07
7.53373e-06
7.95138e-06
3.61817e-07
7.91516e-06
-1.57289e-07
7.94391e-06
1.0329e-07
7.9158e-06
1.19028e-07
7.88429e-06
-1.48826e-07
7.91978e-06
3.39215e-07
7.91163e-06
3.06442e-07
7.91042e-06
1.18096e-07
7.94338e-06
3.56935e-07
7.93423e-06
2.37503e-07
7.9348e-06
8.12726e-08
7.94913e-06
1.71766e-07
7.92964e-06
9.02188e-08
7.91093e-06
-6.68439e-09
7.9108e-06
5.60721e-08
7.90062e-06
1.071e-07
7.88646e-06
1.04634e-07
7.88297e-06
1.1085e-07
7.88858e-06
1.44389e-07
1.53668e-07
7.89615e-06
8.33069e-06
3.35811e-07
8.29466e-06
-1.21259e-07
8.32128e-06
7.66641e-08
8.29843e-06
1.4188e-07
8.26316e-06
-1.13553e-07
8.29882e-06
3.0355e-07
8.29351e-06
3.11758e-07
8.28808e-06
1.23527e-07
8.3212e-06
3.23815e-07
8.31546e-06
2.43238e-07
8.31223e-06
8.45054e-08
8.32642e-06
1.57571e-07
8.31126e-06
1.05387e-07
8.29183e-06
1.27431e-08
8.2931e-06
5.48008e-08
8.29319e-06
1.07013e-07
8.2879e-06
1.09924e-07
8.2911e-06
1.07653e-07
8.29793e-06
1.3755e-07
1.51949e-07
8.29965e-06
8.72794e-06
3.09533e-07
8.69251e-06
-8.58341e-08
8.71654e-06
5.26437e-08
8.69949e-06
1.58921e-07
8.66102e-06
-7.50798e-08
8.69521e-06
2.69363e-07
8.69389e-06
3.13075e-07
8.68472e-06
1.32696e-07
8.71652e-06
2.9202e-07
8.71477e-06
2.44985e-07
8.70866e-06
9.06192e-08
8.72165e-06
1.4458e-07
8.71103e-06
1.16e-07
8.6927e-06
3.10794e-08
8.69371e-06
5.37905e-08
8.69581e-06
1.04914e-07
8.69031e-06
1.15423e-07
8.69003e-06
1.07932e-07
8.6953e-06
1.32276e-07
1.48447e-07
8.6988e-06
9.14402e-06
2.83135e-07
9.10953e-06
-5.13506e-08
9.13042e-06
3.17617e-08
9.1195e-06
1.6984e-07
9.07903e-06
-3.46153e-08
9.11001e-06
2.38383e-07
9.11328e-06
3.0981e-07
9.10159e-06
1.44386e-07
9.1304e-06
2.63204e-07
9.13287e-06
2.42514e-07
9.12496e-06
9.85382e-08
9.13614e-06
1.33395e-07
9.1297e-06
1.22441e-07
9.11195e-06
4.88246e-08
9.11043e-06
5.53191e-08
9.11439e-06
1.00949e-07
9.11206e-06
1.17755e-07
9.1119e-06
1.08087e-07
9.1165e-06
1.27675e-07
1.46424e-07
9.11853e-06
9.57974e-06
2.5685e-07
9.54659e-06
-1.81937e-08
9.56399e-06
1.43634e-08
9.55895e-06
1.74875e-07
9.51791e-06
6.42572e-09
9.54429e-06
2.12006e-07
9.55238e-06
3.01721e-07
9.53961e-06
1.5715e-07
9.56404e-06
2.38775e-07
9.57026e-06
2.36298e-07
9.56184e-06
1.06951e-07
9.57095e-06
1.24288e-07
9.56856e-06
1.24832e-07
9.55165e-06
6.57324e-08
9.54317e-06
6.37986e-08
9.53903e-06
1.05088e-07
9.52966e-06
1.2713e-07
9.52055e-06
1.17194e-07
9.52165e-06
1.26581e-07
1.35662e-07
9.53241e-06
1.00361e-05
2.30893e-07
1.00047e-05
1.32478e-08
1.0018e-05
9.71319e-10
1.00185e-05
1.74465e-07
9.97865e-06
4.6232e-08
9.99921e-06
1.91439e-07
1.00117e-05
2.89192e-07
9.99927e-06
1.69619e-07
1.00189e-05
2.19182e-07
1.00279e-05
2.2725e-07
1.00201e-05
1.14764e-07
1.00261e-05
1.1832e-07
1.0025e-05
1.25942e-07
1.00113e-05
7.93886e-08
1.00086e-05
6.64777e-08
1.00153e-05
9.84176e-08
1.0019e-05
1.23422e-07
1.00194e-05
1.16798e-07
1.00215e-05
1.24469e-07
1.38423e-07
1.00187e-05
1.05139e-05
2.05591e-07
1.04849e-05
4.23294e-08
1.04938e-05
-7.94764e-09
1.04988e-05
1.69433e-07
1.04618e-05
8.32165e-08
1.04761e-05
1.77169e-07
1.04922e-05
2.73053e-07
1.04815e-05
1.80399e-07
1.04959e-05
2.047e-07
1.05065e-05
2.16639e-07
1.05002e-05
1.21095e-07
1.05039e-05
1.1464e-07
1.05039e-05
1.25896e-07
1.04912e-05
9.2136e-08
1.04805e-05
7.71259e-08
1.04772e-05
1.01748e-07
1.0473e-05
1.27638e-07
1.04668e-05
1.2299e-07
1.04671e-05
1.24134e-07
1.31739e-07
1.04738e-05
1.10144e-05
1.8123e-07
1.09882e-05
6.85007e-08
1.09921e-05
-1.18729e-08
1.10011e-05
1.60475e-07
1.09686e-05
1.15675e-07
1.09766e-05
1.69177e-07
1.09945e-05
2.55152e-07
1.09866e-05
1.88332e-07
1.09967e-05
1.94626e-07
1.10075e-05
2.05787e-07
1.10025e-05
1.26148e-07
1.10036e-05
1.13545e-07
1.10032e-05
1.26223e-07
1.09919e-05
1.03491e-07
1.09815e-05
8.74929e-08
1.09794e-05
1.0383e-07
1.09788e-05
1.28253e-07
1.09757e-05
1.26113e-07
1.09765e-05
1.23316e-07
1.27651e-07
1.09806e-05
1.15384e-05
1.58178e-07
1.15158e-05
9.10729e-08
1.15146e-05
-1.0658e-08
1.15264e-05
1.48662e-07
1.14997e-05
1.42447e-07
1.15021e-05
1.66776e-07
1.15203e-05
2.36947e-07
1.15157e-05
1.92921e-07
1.15221e-05
1.88214e-07
1.15317e-05
1.96186e-07
1.15276e-05
1.30271e-07
1.15267e-05
1.14437e-07
1.15264e-05
1.26533e-07
1.15178e-05
1.12083e-07
1.15088e-05
9.64877e-08
1.15064e-05
1.06208e-07
1.15072e-05
1.27421e-07
1.15056e-05
1.27751e-07
1.15056e-05
1.23276e-07
1.23919e-07
1.15094e-05
1.20873e-05
1.36723e-07
1.20687e-05
1.09624e-07
1.20625e-05
-4.41909e-09
1.20761e-05
1.35002e-07
1.2056e-05
1.62546e-07
1.20539e-05
1.68884e-07
1.20706e-05
2.20315e-07
1.20692e-05
1.94274e-07
1.20732e-05
1.84209e-07
1.20812e-05
1.88187e-07
1.20779e-05
1.33585e-07
1.20758e-05
1.165e-07
1.20757e-05
1.26688e-07
1.20692e-05
1.18537e-07
1.20612e-05
1.04511e-07
1.20587e-05
1.08695e-07
1.20603e-05
1.25829e-07
1.20601e-05
1.2793e-07
1.20599e-05
1.23473e-07
1.20992e-07
1.20629e-05
1.26622e-05
1.17158e-07
1.26479e-05
1.23844e-07
1.26375e-05
6.01113e-09
1.26516e-05
1.20914e-07
1.26382e-05
1.75939e-07
1.2633e-05
1.7407e-07
1.26471e-05
2.0625e-07
1.26487e-05
1.92688e-07
1.26513e-05
1.81615e-07
1.26573e-05
1.821e-07
1.26546e-05
1.36319e-07
1.26521e-05
1.19041e-07
1.2652e-05
1.26794e-07
1.26473e-05
1.23184e-07
1.26408e-05
1.11007e-07
1.26383e-05
1.11192e-07
1.26396e-05
1.24509e-07
1.26404e-05
1.27185e-07
1.26409e-05
1.22959e-07
1.19161e-07
1.26427e-05
1.32644e-05
9.96514e-08
1.32546e-05
1.33695e-07
1.3241e-05
1.96108e-08
1.32542e-05
1.0775e-07
1.32471e-05
1.83033e-07
1.32405e-05
1.80606e-07
1.32515e-05
1.95307e-07
1.3255e-05
1.89149e-07
1.32569e-05
1.79688e-07
1.32615e-05
1.77541e-07
1.32594e-05
1.38372e-07
1.32569e-05
1.21614e-07
1.32566e-05
1.27055e-07
1.32533e-05
1.26496e-07
1.32478e-05
1.16455e-07
1.32452e-05
1.13835e-07
1.32466e-05
1.23073e-07
1.3248e-05
1.2587e-07
1.32493e-05
1.21622e-07
1.17569e-07
1.32509e-05
1.38955e-05
8.43143e-08
1.38898e-05
1.39355e-07
1.38744e-05
3.50197e-08
1.38855e-05
9.67297e-08
1.38836e-05
1.84837e-07
1.38773e-05
1.86992e-07
1.38851e-05
1.87433e-07
1.38898e-05
1.84445e-07
1.38918e-05
1.77742e-07
1.38951e-05
1.74264e-07
1.38933e-05
1.40119e-07
1.38909e-05
1.24066e-07
1.38905e-05
1.27436e-07
1.38883e-05
1.28703e-07
1.3884e-05
1.2074e-07
1.38816e-05
1.16217e-07
1.38833e-05
1.21407e-07
1.38847e-05
1.24396e-07
1.38863e-05
1.20081e-07
1.15294e-07
1.38886e-05
1.45568e-05
7.11334e-08
1.4555e-05
1.41205e-07
1.4539e-05
5.10284e-08
1.45469e-05
8.88462e-08
1.45494e-05
1.82351e-07
1.45444e-05
1.91915e-07
1.45497e-05
1.8214e-07
1.45547e-05
1.79505e-07
1.45568e-05
1.75637e-07
1.45591e-05
1.7189e-07
1.45577e-05
1.41549e-07
1.45556e-05
1.26141e-07
1.45553e-05
1.27752e-07
1.45539e-05
1.30079e-07
1.45508e-05
1.23853e-07
1.45484e-05
1.18627e-07
1.45499e-05
1.1995e-07
1.4552e-05
1.22257e-07
1.45535e-05
1.18598e-07
1.12389e-07
1.45564e-05
1.525e-05
6.00167e-08
1.52513e-05
1.39859e-07
1.52358e-05
6.65371e-08
1.52402e-05
8.44965e-08
1.52457e-05
1.76846e-07
1.5243e-05
1.94646e-07
1.52463e-05
1.78787e-07
1.5251e-05
1.74833e-07
1.52534e-05
1.73193e-07
1.52554e-05
1.6994e-07
1.52541e-05
1.42786e-07
1.52524e-05
1.27919e-07
1.52521e-05
1.27981e-07
1.52514e-05
1.30835e-07
1.52494e-05
1.25793e-07
1.52475e-05
1.20574e-07
1.52486e-05
1.18882e-07
1.52515e-05
1.19292e-07
1.5253e-05
1.17084e-07
1.09764e-07
1.52557e-05
1.59766e-05
5.07952e-08
1.59804e-05
1.36029e-07
1.59662e-05
8.07214e-08
1.5967e-05
8.37034e-08
1.59742e-05
1.69647e-07
1.59739e-05
1.94958e-07
1.59761e-05
1.76598e-07
1.59803e-05
1.70581e-07
1.59832e-05
1.7032e-07
1.59849e-05
1.6826e-07
1.59838e-05
1.43822e-07
1.59824e-05
1.29318e-07
1.59826e-05
1.27859e-07
1.59825e-05
1.30933e-07
1.59814e-05
1.26823e-07
1.59803e-05
1.21672e-07
1.59807e-05
1.18486e-07
1.59838e-05
1.16227e-07
1.5986e-05
1.14924e-07
1.07899e-07
1.59878e-05
1.67381e-05
4.32608e-08
1.67437e-05
1.30471e-07
1.67314e-05
9.29748e-08
1.67291e-05
8.6081e-08
1.67366e-05
1.62092e-07
1.67383e-05
1.93236e-07
1.67401e-05
1.74848e-07
1.6744e-05
1.66658e-07
1.67475e-05
1.66851e-07
1.67493e-05
1.66484e-07
1.67486e-05
1.44489e-07
1.67475e-05
1.30366e-07
1.6748e-05
1.27413e-07
1.67485e-05
1.30397e-07
1.67482e-05
1.27177e-07
1.67479e-05
1.21959e-07
1.67482e-05
1.18127e-07
1.67507e-05
1.13736e-07
1.6754e-05
1.11679e-07
1.06246e-07
1.67556e-05
1.75364e-05
3.71954e-08
1.7543e-05
1.23847e-07
1.75329e-05
1.03095e-07
1.75281e-05
9.08772e-08
1.75349e-05
1.55306e-07
1.75382e-05
1.89906e-07
1.75402e-05
1.72883e-07
1.7544e-05
1.62826e-07
1.75482e-05
1.62662e-07
1.75503e-05
1.64385e-07
1.75499e-05
1.44921e-07
1.75492e-05
1.311e-07
1.755e-05
1.26622e-07
1.75512e-05
1.29134e-07
1.75516e-05
1.26799e-07
1.75519e-05
1.21609e-07
1.75529e-05
1.17223e-07
1.75546e-05
1.12016e-07
1.75583e-05
1.07962e-07
1.04234e-07
1.75603e-05
1.83731e-05
3.23982e-08
1.83803e-05
1.16692e-07
1.83723e-05
1.11113e-07
1.83662e-05
9.69638e-08
1.83716e-05
1.49856e-07
1.83762e-05
1.85322e-07
1.83786e-05
1.70465e-07
1.83825e-05
1.59017e-07
1.83872e-05
1.57869e-07
1.83899e-05
1.6178e-07
1.83897e-05
1.45085e-07
1.83893e-05
1.31504e-07
1.83903e-05
1.25596e-07
1.83922e-05
1.2726e-07
1.83934e-05
1.25596e-07
1.83942e-05
1.20797e-07
1.83957e-05
1.15728e-07
1.83971e-05
1.10617e-07
1.84004e-05
1.04668e-07
1.01311e-07
1.84033e-05
1.92501e-05
2.86809e-08
1.92574e-05
1.09436e-07
1.92514e-05
1.17074e-07
1.9245e-05
1.03409e-07
1.92494e-05
1.45389e-07
1.92548e-05
1.79985e-07
1.92575e-05
1.67755e-07
1.92611e-05
1.55428e-07
1.92663e-05
1.52609e-07
1.92697e-05
1.58381e-07
1.92699e-05
1.44863e-07