/*--------------------------------*- C++ -*----------------------------------*\
| =========                 |                                                 |
| \\      /  F ield         | OpenFOAM: The Open Source CFD Toolbox           |
|  \\    /   O peration     | Version:  v1912                                 |
|   \\  /    A nd           | Website:  www.openfoam.com                      |
|    \\/     M anipulation  |                                                 |
\*---------------------------------------------------------------------------*/
FoamFile
{
    version     2.0;
    format      ascii;
    class       volScalarField;
    location    "4.5";
    object      p;
}
// * * * * * * * * * * * * * * * * * * * * * * * * * * * * * * * * * * * * * //

dimensions      [0 2 -2 0 0 0 0];


internalField   nonuniform List<scalar> 
9600
(
-7.69364e-09
0.00501311
0.00466855
0.00330105
0.00342686
0.00301261
0.000336779
0.00102229
0.00436333
0.00706533
0.00991079
0.0105686
0.0121231
0.0139999
0.0143201
0.0162203
0.01718
0.01996
0.0243532
0.0296977
-7.24908e-07
0.00501921
0.00466113
0.00329868
0.0034234
0.00302067
0.000346093
0.00102318
0.00436469
0.00705642
0.00991548
0.0105605
0.0121157
0.0140015
0.0143156
0.0162018
0.0171995
0.0199069
0.0244223
0.0292307
-2.00736e-07
0.00502573
0.00464984
0.00330022
0.003418
0.00302598
0.000359783
0.0010262
0.00436421
0.00704503
0.00991247
0.0105705
0.0121081
0.0140101
0.0143146
0.0161811
0.0172132
0.0198459
0.0244332
0.0285952
3.60637e-06
0.00502907
0.00463759
0.00330568
0.00340737
0.00303067
0.000384245
0.00103495
0.00436696
0.00703435
0.0099081
0.010594
0.0121026
0.0140191
0.0143122
0.0161532
0.0172261
0.0197821
0.0243764
0.0280486
1.22098e-05
0.00502861
0.0046234
0.0033138
0.00339265
0.0030349
0.000420174
0.00105346
0.00437697
0.00702338
0.00990827
0.0106249
0.0120996
0.014025
0.0143103
0.0161209
0.0172392
0.0197045
0.0242946
0.0275295
2.6378e-05
0.00502406
0.00460691
0.00332485
0.00337606
0.00303978
0.000467502
0.00108403
0.00439433
0.00701147
0.0099121
0.010661
0.0120985
0.0140269
0.0143095
0.0160835
0.0172487
0.0196202
0.0241814
0.0270286
4.60235e-05
0.00501604
0.0045889
0.00333964
0.00336077
0.00304597
0.000524901
0.00112623
0.00441764
0.0069985
0.00991835
0.0106998
0.0120985
0.0140245
0.0143087
0.0160421
0.0172525
0.0195308
0.0240336
0.026542
7.04419e-05
0.00500614
0.00457016
0.00335906
0.00334949
0.00305399
0.000590885
0.00117883
0.00444509
0.00698442
0.0099251
0.010739
0.0120984
0.0140172
0.0143071
0.0159978
0.0172483
0.0194369
0.0238513
0.0260683
9.8637e-05
0.00499575
0.00455109
0.00338356
0.00334388
0.00306414
0.000663927
0.00123524
0.00447473
0.00696892
0.00993035
0.0107756
0.0120969
0.0140047
0.0143035
0.0159514
0.0172338
0.0193398
0.0236368
0.0256052
0.000129586
0.00498548
0.00453184
0.00341276
0.00334429
0.00307649
0.000742711
0.00129431
0.00450525
0.006952
0.00993245
0.0108062
0.0120926
0.0139869
0.0142964
0.0159037
0.0172076
0.0192395
0.0233921
0.0251492
0.000162463
0.00497548
0.00451241
0.0034455
0.00334996
0.0030908
0.000826657
0.00135547
0.0045363
0.00693415
0.00993006
0.0108271
0.0120838
0.0139642
0.0142843
0.0158556
0.0171681
0.0191347
0.0231203
0.0246963
0.000196754
0.00496558
0.00449275
0.00348025
0.00335948
0.00310658
0.00091576
0.00141913
0.00456842
0.00691619
0.00992228
0.0108345
0.012069
0.0139368
0.014266
0.0158072
0.0171146
0.0190228
0.0228255
0.0242427
0.000232238
0.00495551
0.00447286
0.00351563
0.00337143
0.00312329
0.00101005
0.00148689
0.00460305
0.00689937
0.00990903
0.0108274
0.0120467
0.0139056
0.0142405
0.0157576
0.0170475
0.0189007
0.0225121
0.0237843
0.000268884
0.00494507
0.00445284
0.00355061
0.00338482
0.00314056
0.00110925
0.00156082
0.00464215
0.00688512
0.00989083
0.0108051
0.0120162
0.0138714
0.0142069
0.0157057
0.0169675
0.0187649
0.0221841
0.0233188
0.000306723
0.00493418
0.00443289
0.00358452
0.00339922
0.00315819
0.00121281
0.00164231
0.00468722
0.00687441
0.00986842
0.0107691
0.0119771
0.013835
0.014165
0.01565
0.016876
0.0186116
0.0218449
0.0228463
0.000345785
0.00492287
0.00441316
0.00361702
0.00341465
0.00317609
0.00132012
0.00173151
0.00473857
0.00686747
0.00984233
0.0107225
0.0119295
0.0137971
0.0141147
0.0155885
0.0167748
0.0184373
0.0214963
0.0223686
0.000386095
0.00491114
0.0043938
0.00364793
0.00343143
0.00319416
0.0014305
0.00182749
0.00479557
0.00686387
0.00981272
0.0106685
0.0118733
0.0137583
0.0140568
0.0155184
0.0166663
0.0182403
0.0211389
0.0218887
0.000427667
0.00489898
0.00437495
0.00367716
0.00344994
0.00321229
0.00154327
0.00192867
0.00485698
0.00686294
0.00977929
0.0106108
0.011809
0.0137183
0.0139921
0.0154368
0.0165523
0.0180203
0.0207722
0.0214107
0.000470502
0.00488631
0.0043568
0.00370462
0.0034706
0.00323036
0.00165775
0.0020334
0.00492142
0.00686407
0.00974152
0.0105518
0.0117367
0.0136764
0.013922
0.015341
0.0164339
0.0177783
0.0203946
0.0209394
0.000514606
0.00487307
0.00433956
0.00373022
0.00349376
0.00324827
0.00177326
0.00214021
0.00498751
0.00686683
0.00969886
0.0104935
0.011657
0.0136314
0.0138477
0.0152285
0.0163112
0.0175164
0.0200031
0.0204789
0.000560013
0.00485913
0.00432346
0.00375382
0.0035197
0.003266
0.00188917
0.00224793
0.00505391
0.00687109
0.00965078
0.010437
0.0115701
0.0135817
0.0137704
0.0150977
0.0161834
0.0172386
0.0195937
0.0200311
0.000606785
0.00484432
0.00430873
0.00377527
0.00354863
0.00328358
0.00200489
0.0023558
0.00511944
0.00687706
0.00959685
0.0103824
0.0114769
0.0135257
0.0136912
0.014947
0.0160482
0.01695
0.0191638
0.0195953
0.000655015
0.00482843
0.00429559
0.00379437
0.00358059
0.00330109
0.00211989
0.00246351
0.00518314
0.00688499
0.00953679
0.0103296
0.011378
0.0134612
0.0136112
0.0147765
0.0159023
0.0166556
0.0187128
0.0191684
0.000704818
0.00481122
0.00428429
0.00381088
0.00361555
0.00331858
0.00223364
0.00257118
0.00524421
0.00689513
0.00947041
0.0102776
0.0112747
0.0133863
0.0135307
0.0145865
0.015742
0.016361
0.0182415
0.0187445
0.000756341
0.00479242
0.00427507
0.00382453
0.00365338
0.00333619
0.0023455
0.00267919
0.00530203
0.0069076
0.0093975
0.0102254
0.0111684
0.0132996
0.0134498
0.0143781
0.0155636
0.0160706
0.0177528
0.0183159
0.000809781
0.0047717
0.00426813
0.00383512
0.0036939
0.00335422
0.00245477
0.00278798
0.00535609
0.0069222
0.00931848
0.0101719
0.0110604
0.0131994
0.0133683
0.0141534
0.0153631
0.0157875
0.0172516
0.017875
0.000865344
0.00474873
0.00426367
0.00384252
0.00373684
0.00337306
0.0025607
0.00289805
0.00540603
0.00693859
0.00923436
0.0101155
0.0109512
0.0130844
0.0132854
0.0139156
0.0151368
0.015513
0.0167454
0.0174144
0.000923247
0.00472316
0.00426186
0.00384675
0.00378185
0.00339317
0.00266241
0.00300982
0.00545173
0.0069561
0.00914611
0.0100549
0.0108413
0.012954
0.0131994
0.0136683
0.0148821
0.0152462
0.0162429
0.0169295
0.000983711
0.00469465
0.00426282
0.00384802
0.00382852
0.00341525
0.00275908
0.00312337
0.00549334
0.00697371
0.00905463
0.00998891
0.010731
0.0128078
0.0131084
0.0134151
0.0145972
0.0149827
0.0157542
0.0164202
0.00104694
0.00466288
0.0042667
0.00384662
0.00387632
0.00344018
0.00285001
0.0032384
0.00553111
0.00699033
0.00896084
0.00991689
0.01062
0.012646
0.0130099
0.0131602
0.0142825
0.0147163
0.0152881
0.0158912
0.00111318
0.00462756
0.00427353
0.00384311
0.00392443
0.00346898
0.00293475
0.00335415
0.00556567
0.00700468
0.00886533
0.00983827
0.0105081
0.0124688
0.0129007
0.0129077
0.0139412
0.0144391
0.0148498
0.0153517
0.00118262
0.00458844
0.00428321
0.00383819
0.00397181
0.00350258
0.00301327
0.00346934
0.00559791
0.0070156
0.0087682
0.00975272
0.0103949
0.012277
0.0127776
0.0126601
0.0135781
0.0141439
0.0144397
0.0148132
0.00125544
0.00454537
0.00429555
0.00383258
0.00401741
0.00354163
0.00308592
0.00358238
0.00562864
0.00702234
0.00866937
0.00965997
0.0102802
0.0120715
0.0126384
0.0124184
0.0131988
0.0138253
0.0140537
0.0142883
0.00133179
0.00449821
0.00431019
0.0038272
0.00406019
0.00358644
0.00315323
0.00369151
0.00565849
0.00702466
0.0085686
0.00955956
0.0101633
0.0118536
0.0124806
0.012183
0.0128099
0.0134811
0.0136857
0.0137867
0.00141179
0.00444689
0.00432664
0.00382271
0.00409917
0.00363698
0.00321599
0.00379501
0.00568775
0.0070223
0.00846536
0.00945093
0.010044
0.011625
0.0123015
0.0119524
0.0124182
0.0131128
0.013328
0.0133122
0.00149554
0.00439161
0.00434423
0.00382051
0.00413344
0.00369316
0.00327537
0.00389099
0.00571621
0.00701536
0.00835916
0.00933338
0.00992213
0.0113885
0.0120998
0.0117235
0.0120286
0.0127234
0.0129749
0.0128667
0.00158309
0.00433258
0.00436216
0.00382157
0.00416221
0.00375422
0.00333277
0.00397799
0.00574336
0.00700461
0.00824961
0.00920622
0.0097966
0.0111456
0.011876
0.0114941
0.0116449
0.0123157
0.0126217
0.012452
0.00167444
0.00427021
0.00437929
0.0038271
0.00418531
0.00381888
0.00338939
0.00405514
0.00576827
0.00699109
0.00813698
0.00909313
0.00966638
0.0108984
0.0116298
0.0112607
0.0112726
0.0118956
0.0122622
0.0120666
0.00176952
0.00420516
0.0043946
0.00383749
0.00420265
0.00388611
0.00344659
0.00412184
0.00578947
0.00697495
0.00802147
0.00894399
0.00952874
0.0106498
0.0113631
0.0110172
0.010914
0.0114731
0.0118928
0.0117032
0.00186824
0.00413803
0.00440693
0.00385349
0.00421439
0.00395392
0.0035058
0.00417831
0.00580832
0.0069564
0.00790431
0.0087825
0.00938087
0.0104001
0.0110788
0.0107587
0.0105666
0.0110606
0.0115202
0.0113547
0.00197044
0.00406974
0.00441495
0.00387531
0.0042216
0.00402069
0.00356771
0.00422508
0.00581563
0.0069346
0.00778702
0.00861055
0.009221
0.0101492
0.0107783
0.0104803
0.0102235
0.0106615
0.0111591
0.0110274
0.00207575
0.00400163
0.00441753
0.0039027
0.00422519
0.00408469
0.00363328
0.0042629
0.00581335
0.00690965
0.00766984
0.00842813
0.00904644
0.00989903
0.0104676
0.0101803
0.00987374
0.010265
0.0108101
0.0107413
0.00218376
0.00393498
0.00441337
0.0039355
0.00422671
0.00414338
0.00370233
0.00429372
0.00580001
0.00688078
0.00755687
0.00823798
0.0088554
0.00964573
0.0101497
0.00986376
0.00951977
0.00986461
0.0104505
0.0104832
0.00229389
0.00387136
0.00440129
0.00397267
0.00422842
0.00419528
0.00377399
0.00431964
0.00577526
0.00684356
0.0074475
0.0080445
0.00864985
0.00938941
0.00983013
0.00953542
0.00916802
0.00947816
0.0100776
0.0101785
0.00240534
0.00381161
0.0043805
0.00401298
0.00423262
0.00423923
0.00384652
0.00434247
0.00573927
0.00679725
0.00733948
0.00785129
0.00843156
0.0091317
0.00951954
0.00921526
0.00882625
0.00908902
0.00968287
0.00981135
0.0025173
0.00375972
0.00435076
0.00405491
0.0042414
0.0042752
0.00391715
0.00436343
0.00569347
0.00673965
0.00723157
0.00766206
0.00820531
0.00886802
0.00921893
0.00891196
0.00849951
0.00869139
0.00924747
0.00937124
0.00262872
0.00371552
0.00431265
0.00409603
0.00425619
0.00430407
0.0039826
0.00438275
0.00564046
0.00667108
0.00712287
0.00747292
0.00797607
0.00860088
0.00891203
0.0085868
0.00812774
0.00824597
0.00878931
0.00899413
0.00273833
0.00368013
0.00426811
0.00413247
0.00427748
0.00432738
0.00404033
0.00440082
0.00558129
0.00659031
0.00701398
0.0072885
0.00773838
0.00832492
0.00860328
0.00828363
0.00780421
0.00780688
0.00829034
0.0085613
0.00284498
0.00365434
0.00421922
0.00416185
0.00430407
0.0043486
0.00409018
0.0044129
0.00551892
0.00650126
0.00689842
0.00710782
0.00749568
0.00804074
0.00828632
0.00796023
0.00747288
0.00738651
0.00778021
0.00810805
0.00294749
0.0036385
0.0041696
0.00418009
0.00433325
0.00437151
0.00413062
0.00441968
0.00545166
0.0064019
0.00678124
0.00693023
0.00724731
0.00773816
0.00795532
0.0076315
0.00714695
0.00699705
0.00726446
0.00761691
0.00304508
0.00363276
0.00412171
0.00418603
0.00436265
0.0043973
0.00416429
0.00441679
0.00537687
0.00629716
0.0066589
0.0067505
0.00699645
0.00742069
0.00761547
0.00731151
0.00681632
0.00660908
0.00679156
0.00714044
0.00313713
0.0036363
0.00407822
0.00418047
0.00438708
0.00442616
0.00419373
0.00440249
0.00529597
0.00618337
0.00652757
0.0065757
0.00674406
0.00709369
0.00727081
0.00698532
0.00648227
0.00625029
0.00638185
0.00666502
0.00322339
0.00364814
0.00404164
0.00416334
0.0044023
0.00445665
0.00422161
0.00438037
0.00520123
0.00605744
0.00639642
0.00640061
0.00648831
0.00676744
0.00692009
0.0066549
0.0061665
0.00590813
0.00598629
0.00619916
0.00330404
0.00366649
0.00401271
0.0041382
0.00440556
0.00448501
0.00425162
0.00435074
0.00509245
0.00592144
0.00625808
0.00622513
0.00624257
0.00644689
0.00656358
0.00632184
0.00585677
0.00556986
0.00560167
0.00577378
0.00337913
0.00368983
0.00399232
0.0041074
0.00439347
0.00450794
0.00428339
0.00431864
0.00497278
0.00576597
0.00610999
0.00605731
0.00600771
0.00612882
0.00620397
0.00598491
0.00555067
0.00524537
0.00523455
0.00537515
0.0034491
0.00371631
0.00398216
0.0040748
0.00436579
0.00452009
0.00431512
0.00428958
0.0048437
0.00559052
0.0059496
0.00589073
0.00578331
0.00582493
0.00585081
0.00564302
0.00524287
0.00493244
0.00488316
0.00499211
0.00351437
0.00374378
0.00398161
0.00404568
0.00432359
0.00451503
0.00434373
0.00426664
0.00471159
0.00539617
0.00576878
0.00572225
0.00557171
0.00554064
0.00550921
0.00529796
0.00492801
0.00462724
0.00455267
0.00462931
0.00357558
0.00377102
0.00398841
0.00402276
0.00426923
0.00448949
0.00436459
0.00424999
0.00458474
0.00518698
0.00556235
0.00554494
0.00537012
0.00527536
0.00518626
0.00496068
0.00461146
0.00432199
0.00423568
0.00428862
0.00363345
0.00379679
0.00399886
0.00400797
0.00420832
0.00444238
0.00437094
0.00423756
0.00446846
0.00497141
0.00533122
0.00534804
0.00517424
0.00502998
0.00488685
0.00463899
0.00429995
0.00401177
0.00391907
0.00396821
0.00368838
0.00382058
0.00400912
0.00400095
0.00414691
0.00437459
0.00435784
0.00422643
0.00436458
0.00476012
0.00508166
0.00512539
0.00497234
0.00480313
0.00461257
0.00433403
0.00399874
0.00370807
0.00359757
0.0036559
0.00374037
0.00384256
0.00401548
0.00399922
0.00409038
0.00429111
0.0043224
0.00420976
0.00427259
0.00456024
0.00482607
0.00488228
0.0047526
0.00458244
0.00436429
0.00405118
0.00370885
0.00342002
0.00327794
0.00333483
0.00378912
0.00386276
0.0040175
0.00399864
0.0040412
0.00419956
0.00426406
0.00418027
0.00419042
0.00437713
0.00457447
0.00462712
0.00451717
0.00435242
0.00413379
0.00379655
0.00342956
0.0031458
0.00297641
0.00300565
0.00383414
0.00388139
0.00401518
0.00399536
0.00399911
0.00410785
0.0041851
0.00413238
0.00411209
0.0042117
0.00433465
0.0043689
0.00427274
0.00411058
0.0039009
0.00356693
0.00316934
0.00287981
0.00270097
0.00268673
0.00387468
0.00389863
0.0040093
0.00398682
0.00396213
0.00402108
0.00409
0.00406339
0.00403113
0.00406173
0.00411229
0.00411478
0.00402422
0.0038646
0.00365681
0.00334905
0.00293712
0.00262146
0.00244472
0.0023939
0.0039102
0.00391422
0.00400086
0.00397182
0.00392759
0.00394112
0.00398641
0.00397447
0.00394311
0.00392288
0.00390688
0.00387217
0.00377572
0.0036194
0.0034081
0.00312645
0.00272993
0.00237942
0.00219719
0.00213132
0.00394042
0.0039277
0.00399076
0.00395082
0.00389266
0.00386775
0.00388066
0.00386902
0.00384399
0.00379222
0.00371812
0.00364414
0.00353362
0.00337673
0.00316247
0.00289577
0.0025353
0.0021644
0.00195639
0.00188924
0.00396522
0.00393849
0.00397994
0.00392485
0.00385456
0.00379943
0.0037774
0.00375252
0.00373055
0.00366446
0.00354684
0.00343208
0.00330267
0.00314032
0.00292319
0.00266246
0.00233979
0.00197611
0.00173147
0.0016579
0.00398478
0.00394605
0.00396872
0.00389558
0.00381126
0.00373331
0.00367882
0.00363274
0.00360682
0.00353208
0.00338904
0.00323961
0.00308533
0.00291526
0.00269602
0.00243458
0.00213625
0.00180151
0.00153125
0.00143579
0.00399943
0.00395008
0.00395659
0.00386417
0.00376373
0.00366734
0.00358388
0.00351335
0.00347798
0.00339566
0.00323768
0.00306676
0.00288574
0.00270197
0.00248635
0.00222385
0.00193381
0.00162969
0.00135586
0.00123056
0.00400949
0.0039506
0.00394302
0.00383143
0.00371249
0.00360051
0.00349341
0.00339675
0.00334557
0.00325752
0.00309144
0.00290855
0.00270732
0.00250161
0.00228902
0.00203774
0.00174716
0.00146175
0.00120142
0.00105574
0.00401547
0.00394784
0.00392763
0.00379829
0.00365851
0.00352989
0.00340592
0.00328768
0.00321419
0.00311779
0.00295212
0.00276262
0.00255093
0.00232444
0.00210061
0.00186749
0.0015829
0.00130115
0.00105683
0.000905968
0.00401784
0.0039423
0.00391002
0.00376504
0.00360405
0.00345607
0.00331682
0.00318342
0.00309023
0.00298007
0.00281907
0.00263269
0.00241645
0.00217973
0.0019355
0.00171117
0.00144232
0.00115747
0.000919761
0.000769752
0.00401717
0.00393445
0.00389115
0.00373149
0.00354946
0.00338086
0.00322687
0.00307935
0.00297113
0.00284892
0.00269286
0.00251902
0.00230332
0.00206973
0.00181286
0.00157976
0.00133043
0.00104585
0.000804505
0.000649969
0.00401449
0.0039248
0.00387106
0.00369866
0.00349612
0.00330458
0.00313764
0.00297678
0.00285057
0.0027216
0.00257395
0.00242363
0.00222147
0.00200301
0.00175939
0.0015156
0.00128172
0.00101222
0.000766975
0.000606108
0.00400926
0.0039147
0.00385079
0.00366598
0.00344448
0.00322973
0.00304635
0.00287433
0.00272424
0.00257493
0.00241889
0.0022806
0.0020966
0.00189718
0.00168598
0.00145062
0.00122301
0.000979279
0.000742115
0.000591642
0.00400552
0.00390325
0.00383737
0.00363896
0.0034021
0.00316252
0.00297053
0.00279964
0.00266376
0.00253945
0.00241759
0.00231554
0.00216716
0.00198854
0.0017946
0.0015503
0.00128301
0.000997693
0.000692633
0.000441726
0.00400559
0.00388705
0.00379029
0.0035903
0.00333636
0.00306622
0.00283267
0.0026082
0.00238973
0.00219733
0.00205833
0.00203462
0.00202019
0.00198664
0.00192807
0.00181811
0.0017068
0.00164476
0.0016056
0.00154349
0.00401225
0.00390343
0.00382935
0.00361059
0.00333684
0.00303682
0.00280367
0.00261557
0.00247299
0.00238097
0.00228698
0.00223777
0.00217415
0.00204531
0.00190519
0.001706
0.00141739
0.00107788
0.000735577
0.000440635
0.00398323
0.00383662
0.00373665
0.00354545
0.00327557
0.00296588
0.00272713
0.00252166
0.00233955
0.00224359
0.00214116
0.00206285
0.00204895
0.00200381
0.00194896
0.00190528
0.00184366
0.00178322
0.00171733
0.00162458
0.00408013
0.00395744
0.00384229
0.00358017
0.00325569
0.00287418
0.00256898
0.00234234
0.00215729
0.00212786
0.00217667
0.00220849
0.00228339
0.0023339
0.00228158
0.00217196
0.00202941
0.00187448
0.0016907
0.00145881
0.0422826
0.0292459
0.0163751
0.00771608
0.00414067
0.00341461
0.00315901
0.00294158
0.0028932
0.00293762
0.00278235
0.00236711
0.00188857
0.00143529
0.000879133
0.000226867
-0.000331592
-0.000823787
-0.00135293
-0.0018837
-0.00242184
-0.00297852
-0.00345044
-0.00387945
-0.00440495
-0.00497273
-0.00550106
-0.00597492
-0.00636592
-0.00674796
-0.00717422
-0.00759557
-0.00802114
-0.00847212
-0.00892435
-0.00937892
-0.00984169
-0.0103198
-0.0108003
-0.0112485
-0.0117023
-0.0121829
-0.0126549
-0.0131004
-0.0135718
-0.0140712
-0.0146029
-0.015155
-0.015736
-0.0163175
-0.0168735
-0.0174203
-0.0180084
-0.0186634
-0.0192535
-0.0198282
-0.0204257
-0.0210208
-0.0216368
-0.0223259
-0.0230506
-0.0237816
-0.0245089
-0.0252713
-0.0260016
-0.0266826
-0.0274639
-0.0281683
-0.0287558
-0.0296385
-0.0306966
-0.0315555
-0.0323513
-0.0331123
-0.0338954
-0.0347583
-0.0356442
-0.0365283
-0.0374753
-0.0385094
-0.0395683
-0.0405
-0.0414324
-0.0425587
-0.0437257
-0.0447114
-0.0456332
-0.0466494
-0.0477841
-0.0489512
-0.0501374
-0.0512853
-0.0524254
-0.0536187
-0.0547847
-0.0560735
-0.057331
-0.0586671
-0.060069
-0.0613022
0.0402441
0.0290247
0.0164469
0.00787117
0.00424655
0.0034641
0.00318545
0.00295807
0.00290548
0.00294856
0.00279247
0.00237594
0.00189619
0.0014422
0.000885366
0.000232112
-0.000327
-0.000819496
-0.00134908
-0.00188023
-0.00241863
-0.00297577
-0.00344802
-0.00387703
-0.00440272
-0.00497081
-0.00549935
-0.00597348
-0.00636461
-0.00674666
-0.00717306
-0.00759453
-0.00802017
-0.00847124
-0.00892355
-0.00937816
-0.00984097
-0.0103191
-0.0107997
-0.0112479
-0.0117017
-0.0121824
-0.0126544
-0.0130999
-0.0135712
-0.0140706
-0.0146024
-0.0151545
-0.0157355
-0.0163171
-0.016873
-0.0174199
-0.0180079
-0.018663
-0.0192531
-0.0198278
-0.0204253
-0.0210205
-0.0216364
-0.0223255
-0.0230503
-0.0237813
-0.0245085
-0.025271
-0.0260014
-0.0266823
-0.0274637
-0.0281681
-0.0287555
-0.0296382
-0.0306964
-0.0315553
-0.0323511
-0.0331121
-0.0338952
-0.0347581
-0.0356441
-0.0365281
-0.0374751
-0.0385093
-0.0395682
-0.0404998
-0.0414322
-0.0425586
-0.0437256
-0.0447113
-0.0456331
-0.0466493
-0.047784
-0.0489511
-0.0501372
-0.0512852
-0.0524253
-0.0536186
-0.0547846
-0.0560734
-0.0573309
-0.0586671
-0.060069
-0.0613023
0.0388961
0.0288699
0.0166112
0.00815265
0.00442165
0.00352935
0.00321535
0.00297854
0.00292032
0.00295956
0.0028014
0.00238392
0.00190347
0.00144874
0.000891086
0.00023693
-0.000322713
-0.000815587
-0.0013457
-0.0018772
-0.00241581
-0.00297338
-0.00344588
-0.00387485
-0.00440079
-0.00496921
-0.00549789
-0.00597226
-0.00636346
-0.0067455
-0.00717205
-0.0075936
-0.0080193
-0.00847049
-0.00892286
-0.00937751
-0.00984036
-0.0103185
-0.0107992
-0.0112474
-0.0117012
-0.0121819
-0.012654
-0.0130995
-0.0135708
-0.0140702
-0.014602
-0.0151541
-0.0157351
-0.0163167
-0.0168727
-0.0174195
-0.0180075
-0.0186627
-0.0192528
-0.0198275
-0.020425
-0.0210202
-0.0216361
-0.0223252
-0.02305
-0.023781
-0.0245082
-0.0252708
-0.0260011
-0.026682
-0.0274634
-0.028168
-0.0287552
-0.0296378
-0.0306962
-0.0315552
-0.032351
-0.0331119
-0.0338951
-0.0347579
-0.0356439
-0.036528
-0.0374749
-0.0385091
-0.0395681
-0.0404998
-0.041432
-0.0425584
-0.0437255
-0.0447113
-0.045633
-0.0466492
-0.0477838
-0.048951
-0.0501372
-0.0512851
-0.0524252
-0.0536185
-0.0547845
-0.0560734
-0.0573308
-0.058667
-0.060069
-0.0613025
0.0375407
0.0286373
0.0167818
0.00848542
0.0046576
0.00362816
0.00326666
0.00301436
0.00294502
0.00297524
0.00281202
0.00239317
0.00191201
0.00145597
0.000897381
0.000242938
-0.000316931
-0.000810502
-0.00134151
-0.00187347
-0.00241224
-0.00297019
-0.00344303
-0.00387214
-0.00439847
-0.00496714
-0.0054959
-0.00597061
-0.006362
-0.00674404
-0.00717074
-0.00759237
-0.00801819
-0.00846956
-0.00892203
-0.00937675
-0.00983968
-0.0103179
-0.0107987
-0.0112469
-0.0117006
-0.0121814
-0.0126535
-0.013099
-0.0135703
-0.0140697
-0.0146015
-0.0151537
-0.0157347
-0.0163164
-0.0168723
-0.0174191
-0.0180071
-0.0186624
-0.0192525
-0.0198272
-0.0204247
-0.0210199
-0.0216357
-0.0223249
-0.0230497
-0.0237807
-0.024508
-0.0252705
-0.026001
-0.0266817
-0.0274633
-0.0281679
-0.0287548
-0.0296374
-0.0306962
-0.0315551
-0.0323508
-0.0331118
-0.0338948
-0.0347577
-0.0356438
-0.0365278
-0.0374747
-0.038509
-0.039568
-0.0404997
-0.0414319
-0.0425583
-0.0437255
-0.0447112
-0.0456329
-0.046649
-0.0477837
-0.0489509
-0.0501371
-0.051285
-0.0524251
-0.0536185
-0.0547845
-0.0560733
-0.0573308
-0.0586669
-0.060069
-0.061303
0.0361721
0.0283308
0.0169501
0.0088346
0.00491764
0.00374371
0.0033294
0.00306108
0.0029787
0.00299602
0.00282512
0.00240479
0.00192294
0.00146454
0.000904544
0.000250456
-0.000309261
-0.000803811
-0.00133607
-0.00186865
-0.00240746
-0.00296565
-0.00343904
-0.00386866
-0.00439544
-0.00496414
-0.0054928
-0.00596801
-0.00635986
-0.00674201
-0.00716884
-0.00759054
-0.00801656
-0.00846821
-0.00892084
-0.00937571
-0.00983879
-0.0103171
-0.010798
-0.0112463
-0.0117001
-0.0121809
-0.012653
-0.0130985
-0.0135698
-0.0140692
-0.0146011
-0.0151533
-0.0157343
-0.016316
-0.0168719
-0.0174187
-0.0180067
-0.018662
-0.0192522
-0.0198268
-0.0204244
-0.0210195
-0.0216353
-0.0223245
-0.0230494
-0.0237804
-0.0245077
-0.0252703
-0.0260007
-0.0266814
-0.0274631
-0.0281679
-0.0287543
-0.0296369
-0.0306961
-0.031555
-0.0323506
-0.0331116
-0.0338946
-0.0347575
-0.0356436
-0.0365276
-0.0374745
-0.0385088
-0.039568
-0.0404996
-0.0414316
-0.0425581
-0.0437255
-0.0447112
-0.0456327
-0.0466489
-0.0477836
-0.0489508
-0.050137
-0.051285
-0.052425
-0.0536184
-0.0547844
-0.0560732
-0.0573307
-0.0586669
-0.0600691
-0.0613035
0.034813
0.0279727
0.0171147
0.00918524
0.00518712
0.00386544
0.003394
0.00311106
0.00301666
0.00301991
0.00284035
0.00241891
0.00193642
0.00147455
0.000912589
0.00025934
-0.000299909
-0.000795591
-0.00132933
-0.00186262
-0.00240125
-0.00295947
-0.00343374
-0.00386441
-0.00439171
-0.00495999
-0.00548819
-0.00596405
-0.00635675
-0.00673918
-0.00716609
-0.00758786
-0.0080142
-0.00846619
-0.00891903
-0.00937417
-0.00983752
-0.010316
-0.0107971
-0.0112455
-0.0116994
-0.0121803
-0.0126524
-0.0130979
-0.0135692
-0.0140686
-0.0146006
-0.0151528
-0.0157338
-0.0163155
-0.0168715
-0.0174184
-0.0180063
-0.0186617
-0.0192518
-0.0198265
-0.020424
-0.0210191
-0.0216349
-0.0223242
-0.0230491
-0.0237802
-0.0245074
-0.02527
-0.0260005
-0.026681
-0.0274629
-0.0281678
-0.0287537
-0.0296363
-0.0306961
-0.031555
-0.0323504
-0.0331113
-0.0338943
-0.0347573
-0.0356435
-0.0365274
-0.0374743
-0.0385086
-0.0395679
-0.0404995
-0.0414314
-0.0425579
-0.0437255
-0.0447111
-0.0456325
-0.0466487
-0.0477835
-0.0489507
-0.0501369
-0.0512849
-0.0524249
-0.0536183
-0.0547842
-0.0560731
-0.0573306
-0.0586667
-0.0600691
-0.0613043
0.0334807
0.0275675
0.0172626
0.00952858
0.00546331
0.00399275
0.00345856
0.00316137
0.00305647
0.00304564
0.00285709
0.00243488
0.00195189
0.0014859
0.000921469
0.000269161
-0.000289519
-0.000786381
-0.00132165
-0.00185561
-0.00239367
-0.00295165
-0.00342717
-0.00385951
-0.00438743
-0.00495481
-0.00548203
-0.00595859
-0.0063525
-0.00673534
-0.00716225
-0.00758415
-0.00801101
-0.00846342
-0.00891645
-0.0093719
-0.00983564
-0.0103144
-0.0107958
-0.0112446
-0.0116987
-0.0121796
-0.0126517
-0.0130972
-0.0135686
-0.0140679
-0.0146
-0.0151524
-0.0157332
-0.0163149
-0.0168711
-0.0174181
-0.0180059
-0.0186613
-0.0192514
-0.0198261
-0.0204236
-0.0210186
-0.0216345
-0.0223238
-0.0230488
-0.0237798
-0.0245071
-0.0252698
-0.0260003
-0.0266806
-0.0274627
-0.0281678
-0.0287529
-0.0296356
-0.0306961
-0.0315549
-0.0323502
-0.0331111
-0.033894
-0.034757
-0.0356432
-0.0365272
-0.037474
-0.0385084
-0.0395679
-0.0404993
-0.0414311
-0.0425577
-0.0437255
-0.0447111
-0.0456323
-0.0466486
-0.0477833
-0.0489506
-0.0501368
-0.0512848
-0.0524248
-0.0536182
-0.0547841
-0.0560729
-0.0573305
-0.0586665
-0.060069
-0.0613052
0.0321854
0.0271084
0.0173829
0.00986365
0.00574971
0.00412855
0.00352303
0.00321026
0.00309672
0.0030725
0.00287469
0.00245178
0.00196853
0.00149826
0.000931046
0.00027956
-0.000278565
-0.000776644
-0.00131347
-0.00184798
-0.00238513
-0.00294257
-0.00341957
-0.0038541
-0.00438286
-0.00494898
-0.0054747
-0.00595189
-0.00634725
-0.0067305
-0.00715723
-0.00757931
-0.00800696
-0.00845994
-0.00891316
-0.00936888
-0.009833
-0.010312
-0.0107938
-0.0112432
-0.0116977
-0.0121787
-0.0126509
-0.0130965
-0.0135678
-0.0140671
-0.0145994
-0.0151518
-0.0157324
-0.0163141
-0.0168705
-0.0174177
-0.0180056
-0.0186609
-0.019251
-0.0198258
-0.0204232
-0.021018
-0.021634
-0.0223234
-0.0230484
-0.0237795
-0.0245068
-0.0252696
-0.0260001
-0.0266802
-0.0274625
-0.0281677
-0.0287521
-0.0296348
-0.0306961
-0.0315549
-0.03235
-0.0331108
-0.0338936
-0.0347567
-0.035643
-0.0365269
-0.0374736
-0.0385081
-0.0395678
-0.0404992
-0.0414308
-0.0425575
-0.0437255
-0.044711
-0.0456321
-0.0466484
-0.0477832
-0.0489505
-0.0501367
-0.0512847
-0.0524247
-0.0536181
-0.0547839
-0.0560727
-0.0573304
-0.0586663
-0.0600689
-0.0613063
0.0309326
0.0265954
0.017474
0.0101937
0.00604811
0.0042731
0.00358602
0.00325596
0.0031364
0.00310014
0.00289278
0.00246892
0.00198563
0.00151112
0.000940943
0.000290194
-0.000267316
-0.000766587
-0.00130499
-0.00184001
-0.00237605
-0.00293272
-0.00341121
-0.00384824
-0.00437815
-0.0049429
-0.00546674
-0.00594446
-0.00634138
-0.00672493
-0.0071512
-0.00757335
-0.00800204
-0.00845586
-0.00890938
-0.00936532
-0.00982969
-0.0103089
-0.0107911
-0.0112412
-0.0116963
-0.0121776
-0.0126499
-0.0130959
-0.0135672
-0.0140663
-0.0145987
-0.0151511
-0.0157315
-0.016313
-0.0168697
-0.0174173
-0.0180052
-0.0186603
-0.0192507
-0.0198257
-0.0204229
-0.0210175
-0.0216335
-0.022323
-0.0230478
-0.0237789
-0.0245065
-0.0252694
-0.0259999
-0.0266799
-0.0274624
-0.0281676
-0.0287511
-0.0296339
-0.0306961
-0.0315548
-0.0323498
-0.0331105
-0.0338932
-0.0347564
-0.0356427
-0.0365265
-0.0374732
-0.0385078
-0.0395676
-0.040499
-0.0414304
-0.0425573
-0.0437255
-0.0447109
-0.0456318
-0.0466482
-0.0477831
-0.0489504
-0.0501366
-0.0512845
-0.0524245
-0.053618
-0.0547837
-0.0560725
-0.0573303
-0.0586659
-0.0600687
-0.0613076
0.0297301
0.026039
0.0175365
0.0105148
0.0063541
0.00442524
0.0036474
0.00329802
0.00317511
0.00312844
0.00291114
0.00248584
0.0020025
0.00152382
0.000950682
0.000300743
-0.000255974
-0.000756323
-0.00129627
-0.00183181
-0.00236667
-0.00292247
-0.00340236
-0.00384198
-0.00437332
-0.00493676
-0.00545855
-0.00593674
-0.00633524
-0.00671899
-0.00714451
-0.0075665
-0.00799634
-0.00845124
-0.0089053
-0.00936154
-0.00982597
-0.0103051
-0.0107877
-0.0112386
-0.0116944
-0.012176
-0.0126487
-0.0130952
-0.0135667
-0.0140655
-0.014598
-0.0151504
-0.0157303
-0.0163117
-0.0168687
-0.0174168
-0.0180046
-0.0186595
-0.0192502
-0.0198258
-0.0204227
-0.021017
-0.0216331
-0.0223226
-0.0230472
-0.0237782
-0.0245059
-0.0252689
-0.0259997
-0.0266797
-0.0274626
-0.0281676
-0.0287499
-0.0296328
-0.0306959
-0.0315547
-0.0323495
-0.0331102
-0.0338928
-0.0347561
-0.0356424
-0.0365262
-0.0374728
-0.0385074
-0.0395674
-0.0404986
-0.04143
-0.042557
-0.0437254
-0.0447107
-0.0456314
-0.046648
-0.0477829
-0.0489502
-0.0501365
-0.0512844
-0.0524244
-0.0536179
-0.0547835
-0.0560722
-0.0573301
-0.0586654
-0.0600682
-0.061309
0.0285868
0.0254499
0.017566
0.010819
0.00666376
0.00458671
0.00370924
0.00333663
0.00321215
0.00315695
0.00292958
0.00250212
0.0020185
0.00153574
0.000959839
0.000310975
-0.000244677
-0.000745945
-0.00128739
-0.00182346
-0.00235714
-0.00291202
-0.00339322
-0.00383538
-0.00436835
-0.00493061
-0.00545024
-0.00592895
-0.00632906
-0.00671296
-0.00713757
-0.0075591
-0.00799003
-0.00844616
-0.00890096
-0.0093577
-0.00982212
-0.0103009
-0.0107837
-0.0112355
-0.011692
-0.0121739
-0.0126471
-0.0130944
-0.0135663
-0.014065
-0.0145975
-0.0151496
-0.0157289
-0.0163101
-0.0168676
-0.0174162
-0.0180038
-0.0186582
-0.0192495
-0.0198259
-0.0204228
-0.0210168
-0.021633
-0.0223224
-0.0230466
-0.0237774
-0.0245051
-0.0252681
-0.0259991
-0.0266796
-0.0274632
-0.0281681
-0.0287489
-0.0296316
-0.0306957
-0.0315544
-0.0323491
-0.0331098
-0.0338924
-0.0347558
-0.0356421
-0.0365258
-0.0374722
-0.0385069
-0.039567
-0.0404982
-0.0414295