/*--------------------------------*- C++ -*----------------------------------*\
| =========                 |                                                 |
| \\      /  F ield         | OpenFOAM: The Open Source CFD Toolbox           |
|  \\    /   O peration     | Version:  v1912                                 |
|   \\  /    A nd           | Website:  www.openfoam.com                      |
|    \\/     M anipulation  |                                                 |
\*---------------------------------------------------------------------------*/
FoamFile
{
    version     2.0;
    format      ascii;
    class       volScalarField;
    location    "4.9";
    object      p;
}
// * * * * * * * * * * * * * * * * * * * * * * * * * * * * * * * * * * * * * //

dimensions      [0 2 -2 0 0 0 0];


internalField   nonuniform List<scalar> 
9600
(
-7.53205e-11
0.00256181
0.000465303
0.000898483
0.0073897
0.009121
0.000398028
-0.000538388
-0.00120621
-0.0021738
-0.00259569
-0.00120737
-0.00135222
-0.00043907
-0.00077766
0.000593197
0.0013896
0.00275167
0.00406367
0.00883718
1.1897e-05
0.00252675
0.000464653
0.000934476
0.00733661
0.00907925
0.000449
-0.000543962
-0.00119548
-0.00218055
-0.00259622
-0.00119597
-0.00135208
-0.000424044
-0.000786809
0.000614419
0.0014116
0.00274168
0.00408435
0.00836727
2.12515e-05
0.00248947
0.000471478
0.000974672
0.00728544
0.00903124
0.000515676
-0.000557615
-0.00117644
-0.0021755
-0.00258617
-0.00118662
-0.00134286
-0.000403269
-0.000789459
0.000645638
0.00141802
0.00272874
0.00407903
0.00783809
2.77802e-05
0.00245357
0.000483131
0.00100862
0.00722296
0.00897035
0.000567432
-0.000568533
-0.00115253
-0.00214022
-0.00257374
-0.00118146
-0.00132125
-0.000391001
-0.000799904
0.000659109
0.00140703
0.00269728
0.00405646
0.00734276
3.32855e-05
0.00241884
0.000499253
0.00103645
0.00714926
0.00889062
0.000608912
-0.000573562
-0.00112351
-0.00208121
-0.00256884
-0.00118129
-0.00129039
-0.000393853
-0.000821803
0.000656076
0.0013867
0.00265178
0.00401692
0.00687519
3.92143e-05
0.00238751
0.000518752
0.00105788
0.00706556
0.00878985
0.000648516
-0.000574298
-0.00109053
-0.00201103
-0.00257588
-0.00118622
-0.00125393
-0.000406934
-0.000849745
0.000642611
0.00136352
0.00259554
0.00396549
0.0064235
4.69026e-05
0.00236029
0.00053948
0.00107337
0.00697424
0.00866991
0.000688668
-0.000573638
-0.00105549
-0.00193836
-0.00259308
-0.00119452
-0.00121371
-0.000424016
-0.000879618
0.000622133
0.00133991
0.00253102
0.0038986
0.00598303
5.7141e-05
0.00233622
0.000559487
0.00108447
0.00687776
0.00853458
0.000729344
-0.000573842
-0.00101939
-0.00186716
-0.00261585
-0.00120557
-0.00117081
-0.000442695
-0.000910006
0.000596091
0.00131648
0.00245754
0.00381482
0.00555686
7.00861e-05
0.0023137
0.000577705
0.00109283
0.0067776
0.00838751
0.000769996
-0.000575838
-0.00098212
-0.00179839
-0.00264057
-0.00121901
-0.00112626
-0.000463451
-0.000940666
0.00056545
0.00129268
0.00237473
0.00371423
0.00514622
8.5481e-05
0.00229119
0.000593951
0.00109965
0.00667421
0.0082313
0.000810005
-0.000579755
-0.000943254
-0.0017321
-0.00266566
-0.0012347
-0.00108135
-0.000487251
-0.000971438
0.000530841
0.0012677
0.00228275
0.00359725
0.00474908
0.000102925
0.00226756
0.000608506
0.00110549
0.00656747
0.00806759
0.000849043
-0.000585524
-0.000902703
-0.00166834
-0.00269005
-0.00125245
-0.00103728
-0.000514357
-0.0010019
0.000492539
0.00124104
0.00218208
0.00346414
0.00436223
0.000122068
0.00224211
0.000621727
0.00111049
0.00645713
0.00789722
0.000887212
-0.000593057
-0.000860722
-0.00160704
-0.00271278
-0.00127201
-0.000996729
-0.000544069
-0.00103174
0.000450757
0.00121264
0.00207299
0.00331523
0.00398378
0.000142675
0.00221445
0.000633888
0.00111463
0.00634309
0.00772075
0.000924719
-0.000602233
-0.000817763
-0.00154797
-0.00273302
-0.00129317
-0.000959572
-0.000575289
-0.00106127
0.000405741
0.00118246
0.00195496
0.00315114
0.00361379
0.000164618
0.00218433
0.000645116
0.00111782
0.00622547
0.00753878
0.000961539
-0.000612907
-0.00077438
-0.00149077
-0.00275026
-0.00131557
-0.000925964
-0.000607205
-0.00109099
0.0003573
0.00114996
0.00182697
0.00297246
0.00325355
0.000187818
0.00215162
0.000655395
0.00112002
0.00610449
0.00735203
0.000997345
-0.00062496
-0.000731095
-0.00143503
-0.00276428
-0.00133859
-0.00089624
-0.000639541
-0.00112133
0.000304391
0.00111429
0.00168837
0.00277948
0.00290344
0.000212212
0.00211626
0.000665117
0.00112117
0.00598044
0.00716122
0.00103163
-0.000638303
-0.000688326
-0.00138038
-0.00277523
-0.00136157
-0.000870769
-0.000672443
-0.00115251
0.000245496
0.00107516
0.00153935
0.0025717
0.00256689
0.000237736
0.0020783
0.000674179
0.00112122
0.00585355
0.00696696
0.00106384
-0.000652793
-0.000646451
-0.00132645
-0.00278355
-0.00138391
-0.000849732
-0.000706274
-0.00118429
0.000178902
0.00103276
0.00138095
0.0023486
0.00224541
0.000264334
0.00203784
0.000682581
0.00112009
0.00572399
0.0067698
0.00109343
-0.00066823
-0.000605838
-0.00127294
-0.00278996
-0.00140511
-0.000833361
-0.000741554
-0.00121596
0.000102906
0.000986537
0.00121522
0.00210744
0.00194032
0.000291947
0.00199498
0.000690288
0.00111772
0.00559184
0.00657026
0.00111993
-0.00068441
-0.000566796
-0.00121963
-0.00279527
-0.00142486
-0.000821524
-0.000778942
-0.00124648
1.61165e-05
0.000935986
0.00104585
0.00184623
0.00165044
0.000320507
0.00194984
0.000697178
0.00111406
0.00545706
0.00636888
0.00114293
-0.000701139
-0.00052965
-0.00116633
-0.00280037
-0.00144318
-0.000813539
-0.000819492
-0.00127456
-8.17995e-05
0.000877809
0.00087733
0.00156345
0.0013716
0.00034995
0.00190253
0.000703032
0.00110906
0.00531948
0.00616618
0.00116211
-0.000718262
-0.000494841
-0.0011129
-0.00280602
-0.00146026
-0.000808484
-0.000864688
-0.00129937
-0.000189954
0.000808116
0.000714309
0.00126093
0.00109695
0.000380195
0.00185313
0.00070753
0.00110269
0.00517888
0.00596266
0.00117719
-0.000735731
-0.000462898
-0.00105927
-0.00281277
-0.00147655
-0.00080512
-0.000916257
-0.00132116
-0.00030623
0.000722502
0.000560775
0.000944026
0.000816612
0.000411139
0.00180178
0.000710304
0.00109498
0.00503497
0.00575875
0.00118795
-0.000753573
-0.000434421
-0.00100535
-0.00282083
-0.00149302
-0.000801828
-0.000975775
-0.00134108
-0.000427141
0.000616746
0.000419053
0.000619595
0.000520969
0.000442648
0.00174861
0.000710964
0.00108598
0.0048875
0.00555477
0.00119421
-0.00077179
-0.000410019
-0.00095108
-0.00283007
-0.00151115
-0.000796745
-0.00104416
-0.00136144
-0.000547947
0.000487605
0.000284699
0.00029709
0.000204358
0.000474538
0.00169382
0.000709099
0.00107575
0.00473623
0.00535107
0.00119577
-0.00079046
-0.00039026
-0.00089634
-0.0028401
-0.00153282
-0.000787937
-0.00112151
-0.00138607
-0.000663441
0.000333478
0.00015244
-1.17958e-05
-0.000132845
0.000506587
0.00163764
0.000704272
0.00106439
0.00458096
0.00514797
0.00119259
-0.000809779
-0.000375686
-0.000841126
-0.00285021
-0.00156012
-0.000773894
-0.00120681
-0.00142031
-0.000769053
0.000156574
1.3209e-05
-0.000297806
-0.000484341
0.00053854
0.00158036
0.000696038
0.00105196
0.00442158
0.00494569
0.00118468
-0.000829985
-0.000366765
-0.000785577
-0.00285954
-0.00159522
-0.000754228
-0.00129808
-0.0014694
-0.000861762
-3.72429e-05
-0.000143653
-0.000557021
-0.000838491
0.000570092
0.00152231
0.000683967
0.00103854
0.00425808
0.0047444
0.0011721
-0.000851378
-0.000363934
-0.000729976
-0.00286709
-0.0016401
-0.000729476
-0.00139203
-0.00153811
-0.000941467
-0.000239414
-0.000326454
-0.000792408
-0.00118083
0.000600882
0.00146384
0.000667609
0.00102416
0.00409061
0.00454402
0.00115495
-0.000874214
-0.00036758
-0.00067482
-0.00287168
-0.00169646
-0.000700851
-0.00148448
-0.00163068
-0.00101123
-0.000439073
-0.000538872
-0.00101306
-0.00149599
0.000630511
0.00140537
0.000646516
0.00100885
0.00391942
0.00434437
0.00113349
-0.000898792
-0.00037816
-0.00062062
-0.00287204
-0.00176582
-0.000670428
-0.00157049
-0.00174983
-0.00107716
-0.000625428
-0.000778503
-0.0012329
-0.00177315
0.00065853
0.00134734
0.000620287
0.000992507
0.00374489
0.00414516
0.00110825
-0.000925601
-0.000396322
-0.000567915
-0.00286685
-0.00184918
-0.000641393
-0.00164457
-0.00189612
-0.00114826
-0.000789328
-0.00103681
-0.0014683
-0.00201296
0.000684447
0.00129026
0.000588534
0.000974987
0.00356766
0.00394597
0.00107964
-0.000955013
-0.000422638
-0.000517508
-0.00285496
-0.00194686
-0.000617727
-0.00170174
-0.00206779
-0.00123481
-0.000924903
-0.0013009
-0.00173271
-0.00223023
0.000707742
0.00123463
0.000550925
0.000956117
0.0033884
0.0037463
0.00104826
-0.00098723
-0.000457684
-0.000470122
-0.00283566
-0.00205875
-0.000603796
-0.0017379
-0.00226019
-0.00134764
-0.00103263
-0.00155496
-0.00202945
-0.00244544
0.000727815
0.00118094
0.000507246
0.000935486
0.00320792
0.00354628
0.00101503
-0.00102208
-0.000502429
-0.000426659
-0.00280797
-0.00218405
-0.000604864
-0.00175074
-0.00246611
-0.00149605
-0.00111964
-0.00178243
-0.00234978
-0.0026815
0.000744056
0.00112972
0.0004574
0.000912459
0.00302736
0.00334352
0.000980569
-0.00105883
-0.000558252
-0.000388555
-0.00277052
-0.00232089
-0.00062683
-0.00174064
-0.00267628
-0.00168563
-0.00119625
-0.00197104
-0.00267874
-0.00295639
0.000755868
0.00108139
0.000401388
0.000886271
0.00284818
0.00313737
0.000944969
-0.00109651
-0.000626121
-0.000357319
-0.00272257
-0.00246668
-0.000675197
-0.00171013
-0.00288066
-0.00191852
-0.00127451
-0.00211396
-0.00299895
-0.00327562
0.000762581
0.00103631
0.000339466
0.000855886
0.00267199
0.00292703
0.000907882
-0.00113364
-0.000706696
-0.000334951
-0.00266332
-0.0026183
-0.000755326
-0.00166332
-0.00306782
-0.00219444
-0.00136954
-0.00221103
-0.00328916
-0.00362224
0.000763582
0.000994643
0.000272417
0.000819806
0.00250063
0.00271248
0.000867803
-0.00116807
-0.000800291
-0.000324753
-0.00259214
-0.00277125
-0.000872718
-0.0016081
-0.00322342
-0.0025061
-0.00149776
-0.00227045
-0.00353542
-0.00397364
0.000758259
0.000956385
0.000201426
0.000776045
0.00233585
0.00249397
0.000822162
-0.00119704
-0.000905632
-0.000330572
-0.00251094
-0.00292021
-0.00102833
-0.00155576
-0.00333911
-0.00284295
-0.00167222
-0.00229916
-0.00373093
-0.00431395
0.000746073
0.00092135
0.000128049
0.000722143
0.00217893
0.00227323
0.000767331
-0.00121825
-0.00102061
-0.000355994
-0.00242227
-0.00306172
-0.00122083
-0.00151518
-0.0034112
-0.00319215
-0.00190545
-0.00231127
-0.00386533
-0.00463215
0.000726521
0.000889086
5.44285e-05
0.000655519
0.00203033
0.0020535
0.000699007
-0.0012305
-0.00114208
-0.000405516
-0.00232931
-0.00318951
-0.00144854
-0.00149885
-0.00343929
-0.00353632
-0.00219856
-0.00232916
-0.00393359
-0.00491699
0.000699249
0.000858847
-1.71076e-05
0.00057418
0.00188945
0.00183853
0.000613401
-0.00123456
-0.00126396
-0.000482355
-0.00223912
-0.00329605
-0.00170294
-0.00151852
-0.00343287
-0.00386028
-0.0025509
-0.00237327
-0.00393162
-0.00514357
0.00066399
0.000829839
-8.44666e-05
0.000476776
0.00175437
0.00163241
0.000509257
-0.00123345
-0.00138119
-0.000585703
-0.00215756
-0.00338081
-0.00197573
-0.00157906
-0.00340433
-0.00414464
-0.00295452
-0.002482
-0.00387635
-0.00528192
0.000620605
0.000800829
-0.000145061
0.00036299
0.0016214
0.00144042
0.000386624
-0.00123236
-0.00148826
-0.000714665
-0.00209235
-0.00344218
-0.00225469
-0.00168153
-0.00336853
-0.00437461
-0.00337226
-0.00266392
-0.00381091
-0.00532109
0.000569167
0.000770643
-0.000197399
0.000233513
0.00148534
0.00126642
0.000248161
-0.00123943
-0.00158157
-0.000863736
-0.00205179
-0.0034836
-0.00252804
-0.00182205
-0.00332546
-0.00454004
-0.00376741
-0.00291829
-0.00380701
-0.00535482
0.000509773
0.000737936
-0.000240096
9.01994e-05
0.00134042
0.00111123
0.000100141
-0.00126316
-0.00166281
-0.00102302
-0.0020377
-0.00350917
-0.00279112
-0.00199867
-0.00327996
-0.00464152
-0.00413332
-0.0032332
-0.00385922
-0.00540881
0.000443102
0.000700941
-0.000272614
-6.40905e-05
0.00118167
0.000974415
-5.13085e-05
-0.00130826
-0.00173292
-0.0011851
-0.00205091
-0.00352509
-0.00303594
-0.00220429
-0.00326959
-0.00472896
-0.00451308
-0.00361307
-0.00397755
-0.00537481
0.000369199
0.00065863
-0.000295221
-0.000224771
0.00100436
0.000852096
-0.000195618
-0.00137673
-0.00180075
-0.00133896
-0.00208639
-0.00354219
-0.00326709
-0.00244007
-0.00326681
-0.00475023
-0.00483305
-0.00401773
-0.0041491
-0.00546094
0.000289261
0.000609049
-0.000308481
-0.000387947
0.000806213
0.000739532
-0.000327839
-0.00146638
-0.00187376
-0.00148575
-0.00213904
-0.00356098
-0.00348472
-0.00270354
-0.00330916
-0.00475507
-0.00511219
-0.004459
-0.00439472
-0.00550834
0.00020421
0.000550669
-0.000314078
-0.000548599
0.00058635
0.000628635
-0.000442489
-0.00157208
-0.00196127
-0.0016279
-0.00220044
-0.00358038
-0.00369614
-0.00299415
-0.00339974
-0.00474929
-0.00533225
-0.00489994
-0.0046982
-0.00552635
0.000112278
0.000482199
-0.000315044
-0.000701272
0.000346356
0.000510633
-0.000538303
-0.00168748
-0.00206788
-0.00176782
-0.00227033
-0.00360485
-0.00390013
-0.00330006
-0.00352943
-0.00474722
-0.00549716
-0.00529183
-0.00504408
-0.00558274
2.10912e-05
0.000402504
-0.000315066
-0.00084142
8.94435e-05
0.000377318
-0.00061868
-0.001803
-0.00219364
-0.0019146
-0.00234905
-0.00363191
-0.00408857
-0.00360941
-0.00370172
-0.00476477
-0.00561146
-0.00561273
-0.0054073
-0.00572256
-7.12962e-05
0.000311052
-0.000318671
-0.000965306
-0.000178617
0.000221372
-0.000688324
-0.00191065
-0.0023364
-0.00207402
-0.00243759
-0.00365977
-0.0042577
-0.00391898
-0.00391123
-0.00479783
-0.00568944
-0.00587683
-0.0057579
-0.00593497
-0.000164233
0.000207635
-0.00033032
-0.00107048
-0.000449678
3.71364e-05
-0.00075633
-0.0020042
-0.00249058
-0.0022508
-0.00253899
-0.00368772
-0.00440463
-0.00421862
-0.00414843
-0.00485834
-0.00575118
-0.00609618
-0.00607139
-0.00618131
-0.00025691
9.32901e-05
-0.000354341
-0.00115644
-0.00071568
-0.000177278
-0.000832904
-0.00208292
-0.00264886
-0.00244424
-0.00265606
-0.00371934
-0.00452869
-0.00449832
-0.00440955
-0.00495736
-0.00580058
-0.00626866
-0.00634722
-0.00643431
-0.000349269
-3.05762e-05
-0.000393753
-0.00122448
-0.000969095
-0.000420003
-0.000928243
-0.00214959
-0.00280273
-0.00265236
-0.0027942
-0.00375704
-0.00462883
-0.0047521
-0.00468459
-0.00509649
-0.00584902
-0.00639815
-0.00659213
-0.00668375
-0.000441529
-0.00016166
-0.000450376
-0.00127871
-0.0012052
-0.00068717
-0.00104869
-0.00220803
-0.00294706
-0.00287226
-0.00295416
-0.00380268
-0.00470952
-0.00497951
-0.00495985
-0.00527066
-0.00591869
-0.0064957
-0.00679568
-0.00691967
-0.000533902
-0.000297743
-0.000525065
-0.00132551
-0.00142036
-0.000968703
-0.0011986
-0.00226704
-0.00307828
-0.00309732
-0.00313654
-0.00386355
-0.00477501
-0.00517665
-0.00522609
-0.00546982
-0.00602048
-0.0065781
-0.00694865
-0.00713123
-0.000627053
-0.00043669
-0.00061774
-0.00137189
-0.00161289
-0.00125397
-0.00137908
-0.0023348
-0.00319407
-0.00332014
-0.00334066
-0.00394435
-0.0048287
-0.00534294
-0.00548148
-0.00568472
-0.00614868
-0.00666462
-0.00706158
-0.00730718
-0.000721559
-0.000576666
-0.000727587
-0.00142503
-0.00178304
-0.00153411
-0.00158738
-0.00241669
-0.00329543
-0.00353411
-0.00356261
-0.00404975
-0.00487988
-0.00547974
-0.00571915
-0.00590939
-0.00629434
-0.00676719
-0.00715725
-0.00744131
-0.000818363
-0.000716683
-0.000852539
-0.00149014
-0.00193364
-0.00180238
-0.00181675
-0.00251769
-0.00338618
-0.00373307
-0.00379631
-0.00418348
-0.00493706
-0.00558923
-0.00592924
-0.0061394
-0.00645653
-0.00688508
-0.00725664
-0.00754311
-0.000918183
-0.000856279
-0.000990062
-0.00156927
-0.00206938
-0.00205427
-0.00205885
-0.00264099
-0.00347237
-0.00391329
-0.00403403
-0.0043454
-0.00500799
-0.00568008
-0.00610662
-0.00636452
-0.0066364
-0.00701224
-0.00736744
-0.00763243
-0.00102192
-0.000995175
-0.001137
-0.00166304
-0.00219515
-0.00228798
-0.00230624
-0.00278671
-0.00356139
-0.00407439
-0.00426676
-0.00453114
-0.0050998
-0.00576192
-0.00625242
-0.00657045
-0.00682912
-0.00714935
-0.00748599
-0.00772721
-0.00113017
-0.00113341
-0.00129006
-0.00177107
-0.00231551
-0.00250328
-0.00255316
-0.00295244
-0.00365889
-0.00421941
-0.00448726
-0.00473266
-0.00521576
-0.00584247
-0.00637305
-0.00674942
-0.00702358
-0.00729938
-0.00760885
-0.00783515
-0.00124327
-0.00127107
-0.00144662
-0.00189217
-0.00243448
-0.00270111
-0.00279495
-0.00313461
-0.0037686
-0.0043526
-0.00469111
-0.00494112
-0.00535501
-0.00593011
-0.0064758
-0.00690006
-0.0072072
-0.00745993
-0.00773495
-0.00795079
-0.00136123
-0.00140826
-0.00160444
-0.00202449
-0.00255528
-0.00288381
-0.00302791
-0.00332842
-0.00389304
-0.00447885
-0.00487518
-0.00514789
-0.00551339
-0.00603236
-0.00656871
-0.00702353
-0.0073715
-0.00762381
-0.00786492
-0.00806791
-0.00148378
-0.00154514
-0.00176203
-0.002166
-0.00267996
-0.00305387
-0.00324928
-0.00352892
-0.00403259
-0.004604
-0.0050398
-0.00534459
-0.00568319
-0.00615135
-0.0066622
-0.00712537
-0.0075099
-0.00778101
-0.00799838
-0.00818202
-0.0016104
-0.00168202
-0.0019176
-0.00231405
-0.00281037
-0.00321487
-0.00345764
-0.00373052
-0.00418453
-0.00473274
-0.00518994
-0.00552513
-0.00585499
-0.00628341
-0.00676512
-0.0072175
-0.00762232
-0.00792249
-0.00813156
-0.00829258
-0.00174022
-0.001819
-0.00207038
-0.00246603
-0.00294661
-0.00336968
-0.00365343
-0.00393026
-0.00434577
-0.00486565
-0.00533029
-0.00568941
-0.00601967
-0.00641854
-0.00687588
-0.00731108
-0.0077172
-0.00804452
-0.00826097
-0.00840341
-0.00187207
-0.00195597
-0.00221983
-0.00261995
-0.0030883
-0.00352008
-0.00383619
-0.00412553
-0.00451483
-0.00500269
-0.00546298
-0.00583988
-0.0061736
-0.00654905
-0.00698418
-0.00740598
-0.00780192
-0.0081452
-0.00838006
-0.00851486
-0.00200461
-0.0020928
-0.0023654
-0.00277263
-0.00323513
-0.00367045
-0.00400745
-0.0043115
-0.0046886
-0.00514451
-0.00558962
-0.00597791
-0.00631496
-0.00667149
-0.00708426
-0.00749399
-0.00787883
-0.00822588
-0.0084809
-0.00862023
-0.002136
-0.00222875
-0.00250806
-0.0029223
-0.00338287
-0.00382179
-0.0041726
-0.00448843
-0.0048613
-0.00529189
-0.00571375
-0.00610326
-0.00644174
-0.00678179
-0.00717264
-0.00756883
-0.00794291
-0.00828546
-0.00855722
-0.00871166
-0.00226448
-0.00236186
-0.00264716
-0.00306908
-0.00353137
-0.00397157
-0.00433289
-0.00465966
-0.00502877
-0.00544046
-0.00584152
-0.006219
-0.00655385
-0.0068777
-0.00724607
-0.007627
-0.00798686
-0.00831918
-0.00859802
-0.00877202
-0.00238877
-0.00249147
-0.00278152
-0.00320971
-0.00367872
-0.00412224
-0.00448862
-0.00482752
-0.00519399
-0.00558476
-0.00596873
-0.00632755
-0.00665
-0.00695848
-0.00730123
-0.00766494
-0.00800558
-0.00832021
-0.00859531
-0.00878288
-0.00250639
-0.0026155
-0.00291222
-0.00334444
-0.00382036
-0.00427184
-0.00464422
-0.00499087
-0.00536063
-0.00572995
-0.0060881
-0.00642604
-0.00672896
-0.00702081
-0.0073386
-0.00768886
-0.00802102
-0.00831845
-0.00857818
-0.00875614
-0.00261467
-0.00273036
-0.00303557
-0.00347495
-0.00395775
-0.00441781
-0.00480184
-0.0051585
-0.00553023
-0.00588258
-0.00619428
-0.00647671
-0.00672415
-0.00696265
-0.00723626
-0.00757209
-0.00793535
-0.00828801
-0.00862275
-0.00889431
-0.0027103
-0.00283677
-0.0031557
-0.00360095
-0.00409241
-0.00456187
-0.00496069
-0.00534771
-0.00575461
-0.00615376
-0.00648741
-0.00670596
-0.00684525
-0.00697191
-0.00712436
-0.00730701
-0.00747699
-0.00758613
-0.00765183
-0.00772246
-0.00278961
-0.00291329
-0.00323253
-0.00368736
-0.00419363
-0.00468444
-0.00509265
-0.00546879
-0.00582916
-0.0061455
-0.00641103
-0.00661689
-0.00678305
-0.00696075
-0.00717951
-0.0074692
-0.0078325
-0.00822012
-0.00859387
-0.00891418
-0.00289426
-0.00304351
-0.00334801
-0.00378918
-0.00429653
-0.00478899
-0.00520727
-0.00557973
-0.00592464
-0.00623685
-0.00649032
-0.00669426
-0.00686085
-0.00699352
-0.00712568
-0.00724807
-0.00736251
-0.0074535
-0.00752803
-0.00763534
-0.00283005
-0.00298447
-0.00336789
-0.00389303
-0.00445642
-0.00500272
-0.00545972
-0.0058578
-0.00619235
-0.00645873
-0.00663389
-0.00672549
-0.00679758
-0.0068664
-0.00697272
-0.00712229
-0.00730177
-0.00749293
-0.0076897
-0.00792416
0.0137185
0.0054567
-0.00426124
-0.0109988
-0.0126908
-0.0119723
-0.0116545
-0.0118932
-0.0121746
-0.0123981
-0.012527
-0.012402
-0.012153
-0.0121281
-0.0122892
-0.0124031
-0.0125578
-0.0128057
-0.0129533
-0.0129949
-0.0130821
-0.0132888
-0.0135342
-0.0136571
-0.0136872
-0.0138175
-0.0140669
-0.014306
-0.0145313
-0.0148656
-0.015355
-0.015896
-0.0163353
-0.0166479
-0.016859
-0.0170263
-0.0172299
-0.0174846
-0.0177711
-0.0180595
-0.0183381
-0.0185483
-0.0187105
-0.0191066
-0.0198098
-0.0205413
-0.0210606
-0.0212541
-0.0213244
-0.0215209
-0.0218644
-0.0222751
-0.0227031
-0.0231616
-0.0236353
-0.0240444
-0.0244323
-0.0248655
-0.0253027
-0.0257425
-0.0262075
-0.0266326
-0.0270471
-0.0275151
-0.027994
-0.0284482
-0.0289255
-0.0294248
-0.0299309
-0.0304119
-0.0309015
-0.0314074
-0.0319374
-0.0324505
-0.032927
-0.0334641
-0.0340791
-0.034697
-0.0352684
-0.0358529
-0.0364013
-0.0370229
-0.0376625
-0.0383144
-0.038963
-0.0396362
-0.040312
-0.0409852
-0.041699
-0.0424259
-0.043157
-0.0438202
-0.0446166
-0.0454108
-0.0461596
-0.0469535
-0.04772
-0.0484275
-0.0492883
-0.0502096
0.0127195
0.00529518
-0.00417817
-0.0108372
-0.0125911
-0.0119232
-0.0116243
-0.0118743
-0.0121623
-0.0123899
-0.0125214
-0.0123979
-0.0121488
-0.0121238
-0.0122853
-0.0123994
-0.0125542
-0.0128027
-0.0129507
-0.0129923
-0.0130795
-0.0132864
-0.0135321
-0.0136554
-0.0136853
-0.0138156
-0.0140651
-0.0143045
-0.0145297
-0.0148639
-0.0153533
-0.0158946
-0.0163341
-0.0166468
-0.0168579
-0.0170251
-0.0172288
-0.0174835
-0.0177701
-0.0180586
-0.0183373
-0.0185476
-0.0187096
-0.0191056
-0.0198089
-0.0205407
-0.0210602
-0.0212537
-0.0213239
-0.0215204
-0.0218638
-0.0222746
-0.0227027
-0.0231612
-0.023635
-0.0240441
-0.024432
-0.0248652
-0.0253024
-0.0257422
-0.0262072
-0.0266323
-0.0270469
-0.0275149
-0.0279938
-0.028448
-0.0289253
-0.0294246
-0.0299307
-0.0304117
-0.0309013
-0.0314072
-0.0319372
-0.0324503
-0.0329269
-0.0334639
-0.0340789
-0.0346969
-0.0352682
-0.0358528
-0.0364012
-0.0370227
-0.0376623
-0.0383143
-0.0389629
-0.0396361
-0.0403118
-0.0409851
-0.0416988
-0.0424258
-0.0431569
-0.0438201
-0.0446165
-0.0454107
-0.0461595
-0.0469534
-0.0477199
-0.0484274
-0.0492882
-0.0502096
0.011892
0.00513316
-0.00403451
-0.0105584
-0.0124297
-0.011872
-0.0115995
-0.0118514
-0.0121422
-0.0123743
-0.0125105
-0.0123908
-0.0121439
-0.0121204
-0.0122825
-0.0123963
-0.0125509
-0.0128
-0.0129484
-0.01299
-0.0130772
-0.0132843
-0.0135304
-0.0136538
-0.0136837
-0.0138139
-0.0140637
-0.0143031
-0.0145283
-0.0148625
-0.015352
-0.0158936
-0.0163332
-0.0166461
-0.016857
-0.0170241
-0.0172278
-0.0174826
-0.0177693
-0.0180578
-0.0183366
-0.018547
-0.0187087
-0.0191045
-0.0198081
-0.0205403
-0.0210602
-0.0212534
-0.0213233
-0.0215198
-0.0218634
-0.0222742
-0.0227023
-0.0231609
-0.0236347
-0.0240439
-0.0244317
-0.0248649
-0.0253021
-0.0257419
-0.026207
-0.0266321
-0.0270467
-0.0275147
-0.0279936
-0.0284478
-0.0289251
-0.0294244
-0.0299306
-0.0304115
-0.0309012
-0.031407
-0.0319371
-0.0324502
-0.0329267
-0.0334637
-0.0340788
-0.0346968
-0.0352681
-0.0358527
-0.036401
-0.0370226
-0.0376622
-0.0383142
-0.0389628
-0.039636
-0.0403117
-0.040985
-0.0416987
-0.0424257
-0.0431569
-0.04382
-0.0446164
-0.0454106
-0.0461594
-0.0469533
-0.0477198
-0.0484273
-0.0492881
-0.0502096
0.0111082
0.00494109
-0.00386922
-0.0102142
-0.0122074
-0.0117974
-0.0115607
-0.0118128
-0.0121073
-0.0123459
-0.0124884
-0.0123755
-0.0121353
-0.0121159
-0.0122793
-0.0123927
-0.0125467
-0.012796
-0.0129451
-0.0129874
-0.013075
-0.013282
-0.0135283
-0.0136521
-0.0136821
-0.0138122
-0.0140618
-0.0143014
-0.0145268
-0.0148612
-0.0153506
-0.0158924
-0.0163325
-0.0166455
-0.0168562
-0.0170229
-0.0172266
-0.0174817
-0.0177684
-0.0180569
-0.0183358
-0.0185464
-0.0187077
-0.0191032
-0.0198073
-0.0205401
-0.0210603
-0.0212532
-0.0213227
-0.0215191
-0.0218629
-0.0222738
-0.0227019
-0.0231605
-0.0236344
-0.0240436
-0.0244313
-0.0248646
-0.0253018
-0.0257417
-0.0262068
-0.0266319
-0.0270464
-0.0275144
-0.0279934
-0.0284476
-0.0289249
-0.0294243
-0.0299304
-0.0304114
-0.030901
-0.0314069
-0.0319369
-0.0324501
-0.0329265
-0.0334635
-0.0340786
-0.0346966
-0.035268
-0.0358525
-0.0364009
-0.0370224
-0.0376621
-0.0383141
-0.0389626
-0.0396358
-0.0403117
-0.0409849
-0.0416986
-0.0424256
-0.0431568
-0.0438199
-0.0446163
-0.0454106
-0.0461594
-0.0469532
-0.0477198
-0.0484272
-0.049288
-0.0502098
0.0103356
0.00472585
-0.00369591
-0.00985149
-0.0119615
-0.0117114
-0.0115148
-0.0117623
-0.0120584
-0.0123039
-0.0124534
-0.0123504
-0.0121213
-0.0121091
-0.0122749
-0.0123881
-0.0125412
-0.0127899
-0.0129399
-0.012984
-0.0130726
-0.0132792
-0.0135253
-0.0136502
-0.013681
-0.0138107
-0.0140595
-0.0142992
-0.0145254
-0.0148599
-0.015349
-0.0158908
-0.0163315
-0.016645
-0.0168554
-0.0170216
-0.0172254
-0.0174808
-0.0177676
-0.0180559
-0.0183349
-0.0185456
-0.0187065
-0.0191017
-0.0198062
-0.0205398
-0.0210604
-0.0212529
-0.0213218
-0.0215183
-0.0218623
-0.0222732
-0.0227014
-0.02316
-0.0236341
-0.0240433
-0.0244309
-0.0248642
-0.0253015
-0.0257414
-0.0262066
-0.0266317
-0.0270461
-0.0275142
-0.0279932
-0.0284474
-0.0289247
-0.0294241
-0.0299302
-0.0304112
-0.0309008
-0.0314067
-0.0319368
-0.0324499
-0.0329264
-0.0334633
-0.0340785
-0.0346965
-0.0352679
-0.0358524
-0.0364007
-0.0370223
-0.037662
-0.0383139
-0.0389625
-0.0396357
-0.0403116
-0.0409848
-0.0416985
-0.0424255
-0.0431567
-0.0438198
-0.0446162
-0.0454105
-0.0461593
-0.0469532
-0.0477197
-0.0484272
-0.0492879
-0.0502102
0.00957284
0.00449842
-0.00352377
-0.00949096
-0.0117072
-0.0116211
-0.0114684
-0.0117076
-0.0120021
-0.0122535
-0.0124098
-0.0123178
-0.0121026
-0.0120997
-0.0122687
-0.012382
-0.0125339
-0.0127815
-0.0129324
-0.0129795
-0.0130699
-0.0132757
-0.0135213
-0.013648
-0.0136809
-0.0138102
-0.0140571
-0.0142965
-0.0145242
-0.0148593
-0.0153471
-0.0158883
-0.0163301
-0.0166445
-0.0168544
-0.0170198
-0.0172239
-0.0174799
-0.0177668
-0.0180548
-0.0183338
-0.0185446
-0.018705
-0.0190999
-0.0198048
-0.0205394
-0.0210605
-0.0212524
-0.0213207
-0.0215174
-0.0218616
-0.0222726
-0.0227007
-0.0231595
-0.0236337
-0.0240428
-0.0244304
-0.0248638
-0.0253012
-0.025741
-0.0262063
-0.0266313
-0.0270458
-0.0275139
-0.027993
-0.0284472
-0.0289245
-0.0294239
-0.0299301
-0.030411
-0.0309006
-0.0314065
-0.0319366
-0.0324498
-0.0329262
-0.033463
-0.0340783
-0.0346964
-0.0352677
-0.0358523
-0.0364006
-0.0370221
-0.0376619
-0.0383138
-0.0389624
-0.0396356
-0.0403115
-0.0409847
-0.0416984
-0.0424254
-0.0431567
-0.0438197
-0.0446161
-0.0454105
-0.0461592
-0.0469531
-0.0477196
-0.0484271
-0.0492878
-0.0502106
0.00882895
0.00426382
-0.00336238
-0.00914038
-0.0114469
-0.0115258
-0.0114223
-0.0116514
-0.0119415
-0.0121985
-0.0123616
-0.0122813
-0.0120812
-0.0120883
-0.0122606
-0.0123743
-0.0125249
-0.0127709
-0.012923
-0.0129738
-0.0130666
-0.0132713
-0.0135159
-0.0136454
-0.0136818
-0.0138108
-0.0140549
-0.0142939
-0.0145238
-0.0148595
-0.0153452
-0.0158851
-0.0163281
-0.0166436
-0.0168528
-0.0170173
-0.0172219
-0.017479
-0.0177663
-0.0180539
-0.0183326
-0.0185436
-0.0187035
-0.0190977
-0.019803
-0.0205386
-0.0210606
-0.0212518
-0.0213194
-0.0215164
-0.0218608
-0.0222717
-0.0226999
-0.0231588
-0.0236332
-0.0240423
-0.0244298
-0.0248632
-0.0253007
-0.0257406
-0.0262059
-0.0266309
-0.0270454
-0.0275136
-0.0279927
-0.0284469
-0.0289242
-0.0294236
-0.0299299
-0.0304108
-0.0309004
-0.0314063
-0.0319364
-0.0324497
-0.032926
-0.0334628
-0.0340781
-0.0346963
-0.0352676
-0.0358522
-0.0364004
-0.0370219
-0.0376617
-0.0383137
-0.0389622
-0.0396355
-0.0403113
-0.0409846
-0.0416983
-0.0424253
-0.0431566
-0.0438196
-0.044616
-0.0454104
-0.0461591
-0.046953
-0.0477195
-0.0484271
-0.0492878
-0.0502112
0.00810901
0.00401766
-0.00322013
-0.00880267
-0.0111779
-0.0114214
-0.0113748
-0.0115938
-0.0118775
-0.0121398
-0.0123105
-0.0122425
-0.0120581
-0.0120755
-0.0122509
-0.012365
-0.0125144
-0.0127588
-0.0129122
-0.0129672
-0.0130626
-0.013266
-0.0135095
-0.0136423
-0.0136833
-0.0138125
-0.0140535
-0.0142917
-0.0145244
-0.014861
-0.0153438
-0.0158816
-0.0163257
-0.0166423
-0.0168504
-0.0170136
-0.0172188
-0.0174776
-0.0177655
-0.018053
-0.0183317
-0.018543
-0.0187024
-0.0190955
-0.0198006
-0.0205375
-0.0210603
-0.0212507
-0.0213179
-0.0215153
-0.0218599
-0.0222707
-0.0226989
-0.023158
-0.0236326
-0.0240415
-0.0244289
-0.0248625
-0.0253001
-0.02574
-0.0262053
-0.0266304
-0.027045
-0.0275132
-0.0279923
-0.0284465
-0.0289239
-0.0294234
-0.0299296
-0.0304106
-0.0309002
-0.0314061
-0.0319362
-0.0324496
-0.0329257
-0.0334625
-0.0340779
-0.0346962
-0.0352674
-0.035852
-0.0364002
-0.0370217
-0.0376616
-0.0383135
-0.0389621
-0.0396353
-0.0403112
-0.0409844
-0.0416981
-0.0424252
-0.0431565
-0.0438195
-0.0446158
-0.0454103
-0.046159
-0.0469529
-0.0477194
-0.0484271
-0.0492878
-0.0502119
0.0074121
0.00375587
-0.00309983
-0.0084771
-0.0108976
-0.0113038
-0.0113241
-0.0115349
-0.0118103
-0.012078
-0.0122569
-0.0122017
-0.0120336
-0.0120615
-0.0122402
-0.0123546
-0.0125028
-0.0127457
-0.0129005
-0.0129599
-0.0130581
-0.0132599
-0.0135022
-0.0136388
-0.013685
-0.0138149
-0.0140529
-0.0142905
-0.0145261
-0.0148636
-0.0153431
-0.0158784
-0.0163237
-0.0166411
-0.0168472
-0.0170088
-0.0172146
-0.0174752
-0.0177641
-0.0180518
-0.018331
-0.0185433
-0.0187023
-0.0190937
-0.0197981
-0.0205359
-0.0210595
-0.0212491
-0.021316
-0.0215142
-0.0218592
-0.0222697
-0.0226977
-0.023157
-0.0236317
-0.0240405
-0.0244278
-0.0248615
-0.0252992
-0.0257392
-0.0262045
-0.0266296
-0.0270444
-0.0275127
-0.0279917
-0.028446
-0.0289235
-0.029423
-0.0299293
-0.0304104
-0.0308999
-0.0314058
-0.031936
-0.0324494
-0.0329255
-0.0334622
-0.0340777
-0.0346961
-0.0352673
-0.0358519
-0.0364
-0.0370214
-0.0376614
-0.0383134
-0.0389619
-0.0396351
-0.040311
-0.0409842
-0.041698
-0.0424251
-0.0431563
-0.0438193
-0.0446157
-0.0454103
-0.046159
-0.0469529
-0.0477193
-0.0484271
-0.0492878
-0.0502127
0.00673556
0.00347881
-0.00299808
-0.00816249
-0.0106057
-0.0111715
-0.0112697
-0.0114758
-0.011741
-0.0120133
-0.0122009
-0.012159
-0.0120076
-0.0120465
-0.0122284
-0.0123431
-0.0124903
-0.0127318
-0.0128879
-0.012952
-0.0130531
-0.0132533
-0.0134943
-0.0136348
-0.0136866
-0.0138177
-0.0140531
-0.0142901
-0.0145286
-0.014867