/*--------------------------------*- C++ -*----------------------------------*\
| =========                 |                                                 |
| \\      /  F ield         | OpenFOAM: The Open Source CFD Toolbox           |
|  \\    /   O peration     | Version:  v1912                                 |
|   \\  /    A nd           | Website:  www.openfoam.com                      |
|    \\/     M anipulation  |                                                 |
\*---------------------------------------------------------------------------*/
FoamFile
{
    version     2.0;
    format      ascii;
    class       surfaceScalarField;
    location    "1.25";
    object      phi;
}
// * * * * * * * * * * * * * * * * * * * * * * * * * * * * * * * * * * * * * //

dimensions      [0 3 -1 0 0 0 0];
oriented        oriented;


internalField   nonuniform List<scalar> 
19000
(
1.15633e-06
-6.2639e-07
1.17495e-06
1.69421e-07
1.19162e-06
-2.31229e-07
1.18852e-06
2.92783e-07
1.15345e-06
9.10986e-07
1.13389e-06
4.97452e-08
1.17263e-06
-1.90438e-07
1.15669e-06
-1.56688e-06
1.1941e-06
-1.25594e-06
1.22912e-06
-3.7782e-07
1.21086e-06
-4.51709e-08
1.21737e-06
6.14648e-07
1.19908e-06
7.45965e-07
1.18081e-06
4.89377e-07
1.19256e-06
7.9406e-07
1.15024e-06
-3.04172e-07
1.1797e-06
4.00603e-07
1.12724e-06
-4.71659e-07
1.13908e-06
-1.77103e-08
-5.56857e-07
1.04253e-06
1.21406e-06
-6.16185e-07
1.23344e-06
1.50035e-07
1.25036e-06
-2.48146e-07
1.2487e-06
2.94441e-07
1.21028e-06
9.4941e-07
1.19329e-06
6.67322e-08
1.21651e-06
-2.13654e-07
1.20007e-06
-1.55045e-06
1.24372e-06
-1.29959e-06
1.2839e-06
-4.17994e-07
1.26554e-06
-2.68199e-08
1.27632e-06
6.03868e-07
1.25481e-06
7.67479e-07
1.24262e-06
5.01572e-07
1.24419e-06
7.92484e-07
1.22047e-06
-2.80447e-07
1.22876e-06
3.92306e-07
1.2087e-06
-4.51601e-07
1.19147e-06
-4.72395e-10
-5.11285e-07
1.14589e-06
1.27322e-06
-6.06626e-07
1.29556e-06
1.27698e-07
1.31097e-06
-2.63559e-07
1.31274e-06
2.9267e-07
1.27667e-06
9.8548e-07
1.25769e-06
8.57199e-08
1.26738e-06
-2.23346e-07
1.25574e-06
-1.53881e-06
1.29473e-06
-1.33858e-06
1.33755e-06
-4.60809e-07
1.32452e-06
-1.3793e-08
1.3312e-06
5.9719e-07
1.31546e-06
7.83212e-07
1.30252e-06
5.14515e-07
1.30911e-06
7.85893e-07
1.29096e-06
-2.62294e-07
1.30136e-06
3.81904e-07
1.28485e-06
-4.35091e-07
1.27648e-06
7.89674e-09
-4.69822e-07
1.23502e-06
1.33419e-06
-5.96712e-07
1.35802e-06
1.03866e-07
1.3719e-06
-2.77441e-07
1.37762e-06
2.86949e-07
1.34906e-06
1.01405e-06
1.32724e-06
1.07538e-07
1.32389e-06
-2.20002e-07
1.31598e-06
-1.53089e-06
1.34727e-06
-1.36987e-06
1.39015e-06
-5.0369e-07
1.38571e-06
-9.34718e-09
1.38563e-06
5.97265e-07
1.37645e-06
7.92392e-07
1.36758e-06
5.23384e-07
1.37581e-06
7.77664e-07
1.36049e-06
-2.46969e-07
1.36972e-06
3.72675e-07
1.34967e-06
-4.15047e-07
1.34483e-06
1.27409e-08
-4.23136e-07
1.29814e-06
1.39776e-06
-5.86116e-07
1.42033e-06
8.12892e-08
1.43267e-06
-2.89778e-07
1.4411e-06
2.78523e-07
1.4231e-06
1.03205e-06
1.40059e-06
1.30052e-07
1.38789e-06
-2.07306e-07
1.37935e-06
-1.52236e-06
1.40268e-06
-1.39319e-06
1.44335e-06
-5.44364e-07
1.44745e-06
-1.34439e-08
1.44534e-06
5.9937e-07
1.44104e-06
7.96691e-07
1.43763e-06
5.26793e-07
1.44887e-06
7.66428e-07
1.43241e-06
-2.30509e-07
1.44202e-06
3.63066e-07
1.41766e-06
-3.90693e-07
1.41522e-06
1.51796e-08
-3.74405e-07
1.36649e-06
1.46484e-06
-5.75282e-07
1.48383e-06
6.23061e-08
1.49381e-06
-2.99759e-07
1.50317e-06
2.69154e-07
1.49636e-06
1.03886e-06
1.47711e-06
1.49298e-07
1.45898e-06
-1.89174e-07
1.44557e-06
-1.50894e-06
1.46148e-06
-1.4091e-06
1.49891e-06
-5.81798e-07
1.50969e-06
-2.42198e-08
1.5112e-06
5.97856e-07
1.51194e-06
7.95952e-07
1.51302e-06
5.25713e-07
1.52551e-06
7.53933e-07
1.50672e-06
-2.11717e-07
1.51542e-06
3.54364e-07
1.48669e-06
-3.61959e-07
1.48591e-06
1.59561e-08
-3.24937e-07
1.43645e-06
1.53588e-06
-5.64941e-07
1.55029e-06
4.78929e-08
1.55655e-06
-3.06015e-07
1.56566e-06
2.60035e-07
1.56902e-06
1.0355e-06
1.5565e-06
1.61822e-07
1.53613e-06
-1.68808e-07
1.51552e-06
-1.48833e-06
1.52421e-06
-1.41779e-06
1.55811e-06
-6.15694e-07
1.57403e-06
-4.01454e-08
1.58222e-06
5.8967e-07
1.58841e-06
7.89759e-07
1.59254e-06
5.21582e-07
1.60451e-06
7.4196e-07
1.58231e-06
-1.89513e-07
1.59029e-06
3.46382e-07
1.55775e-06
-3.29418e-07
1.55843e-06
1.52737e-08
-2.758e-07
1.5093e-06
1.61078e-06
-5.55591e-07
1.62094e-06
3.77337e-08
1.62246e-06
-3.0754e-07
1.63099e-06
2.51511e-07
1.64276e-06
1.02373e-06
1.63838e-06
1.66207e-07
1.61811e-06
-1.48539e-07
1.59006e-06
-1.46028e-06
1.59159e-06
-1.41932e-06
1.62177e-06
-6.45872e-07
1.64203e-06
-6.04056e-08
1.65764e-06
5.74058e-07
1.66871e-06
7.78685e-07
1.67437e-06
5.15924e-07
1.6848e-06
7.31533e-07
1.65875e-06
-1.63466e-07
1.66633e-06
3.38798e-07
1.63083e-06
-2.9391e-07
1.63294e-06
1.31615e-08
-2.27806e-07
1.58494e-06
1.68928e-06
-5.47296e-07
1.69616e-06
3.08515e-08
1.69299e-06
-3.04366e-07
1.70109e-06
2.4341e-07
1.71916e-06
1.00566e-06
1.72219e-06
1.6317e-07
1.70374e-06
-1.30083e-07
1.66963e-06
-1.42618e-06
1.66418e-06
-1.41387e-06
1.69016e-06
-6.71852e-07
1.71398e-06
-8.4227e-08
1.73644e-06
5.51597e-07
1.75112e-06
7.64009e-07
1.75681e-06
5.10233e-07
1.7655e-06
7.22838e-07
1.73589e-06
-1.33851e-07
1.74365e-06
3.31041e-07
1.7062e-06
-2.56463e-07
1.70972e-06
9.63763e-09
-1.81678e-07
1.6636e-06
1.77122e-06
-5.39795e-07
1.77585e-06
2.6219e-08
1.769e-06
-2.97516e-07
1.77693e-06
2.35481e-07
1.79905e-06
9.83545e-07
1.80746e-06
1.54754e-07
1.79211e-06
-1.1473e-07
1.75425e-06
-1.38832e-06
1.74215e-06
-1.40178e-06
1.76303e-06
-6.92726e-07
1.789e-06
-1.10195e-07
1.81681e-06
5.23789e-07
1.83375e-06
7.47069e-07
1.8385e-06
5.05474e-07
1.84611e-06
7.15236e-07
1.81392e-06
-1.01662e-07
1.82259e-06
3.22367e-07
1.78431e-06
-2.1818e-07
1.78915e-06
4.79771e-09
-1.381e-07
1.74557e-06
1.85667e-06
-5.32722e-07
1.85984e-06
2.30553e-08
1.85075e-06
-2.88424e-07
1.85862e-06
2.2761e-07
1.88275e-06
9.59414e-07
1.89416e-06
1.43347e-07
1.88272e-06
-1.03291e-07
1.8436e-06
-1.3492e-06
1.82532e-06
-1.3835e-06
1.83999e-06
-7.07392e-07
1.86588e-06
-1.36089e-07
1.8968e-06
4.9287e-07
1.91507e-06
7.288e-07
1.91884e-06
5.01708e-07
1.92674e-06
7.07334e-07
1.8935e-06
-6.84193e-08
1.90384e-06
3.12023e-07
1.86577e-06
-1.80112e-07
1.87164e-06
-1.06476e-09
-9.77605e-08
1.8313e-06
1.94587e-06
-5.25753e-07
1.94808e-06
2.08464e-08
1.93798e-06
-2.78329e-07
1.94578e-06
2.19818e-07
1.97048e-06
9.34711e-07
1.98288e-06
1.30945e-07
1.97556e-06
-9.59715e-08
1.93716e-06
-1.31079e-06
1.91338e-06
-1.35973e-06
1.92103e-06
-7.15034e-07
1.94432e-06
-1.59383e-07
1.97576e-06
4.61434e-07
1.99496e-06
7.09594e-07
1.99847e-06
4.98199e-07
2.00838e-06
6.97426e-07
1.97572e-06
-3.57644e-08
1.98826e-06
2.9949e-07
1.95129e-06
-1.43144e-07
1.95764e-06
-7.41386e-09
-6.13072e-08
1.92118e-06
2.0391e-06
-5.18667e-07
2.0407e-06
1.92474e-08
2.03035e-06
-2.67973e-07
2.03802e-06
2.12148e-07
2.06252e-06
9.10208e-07
2.07466e-06
1.18802e-07
2.07108e-06
-9.23914e-08
2.03446e-06
-1.27417e-06
2.00611e-06
-1.33138e-06
2.00664e-06
-7.15562e-07
2.02535e-06
-1.78095e-07
2.05497e-06
4.31811e-07
2.07509e-06
6.89472e-07
2.07935e-06
4.93942e-07
2.09264e-06
6.84137e-07
2.06189e-06
-5.01705e-09
2.0767e-06
2.84686e-07
2.0415e-06
-1.07944e-07
2.04757e-06
-1.34901e-08
-2.93028e-08
2.01557e-06
2.13666e-06
-5.11326e-07
2.13792e-06
1.79879e-08
2.12756e-06
-2.57616e-07
2.13513e-06
2.04586e-07
2.15918e-06
8.8615e-07
2.17055e-06
1.07434e-07
2.16997e-06
-9.18106e-08
2.1353e-06
-1.2395e-06
2.10342e-06
-1.2995e-06
2.09753e-06
-7.09671e-07
2.11087e-06
-1.91437e-07
2.13717e-06
4.05507e-07
2.15828e-06
6.68362e-07
2.16402e-06
4.88202e-07
2.18128e-06
6.66878e-07
2.15317e-06
2.30981e-08
2.16986e-06
2.67996e-07
2.13689e-06
-7.49724e-08
2.14185e-06
-1.84526e-08
-2.14917e-09
2.11469e-06
2.2388e-06
-5.03638e-07
2.23996e-06
1.68241e-08
2.22956e-06
-2.47217e-07
2.2371e-06
1.97053e-07
2.26074e-06
8.62509e-07
2.27133e-06
9.68464e-08
2.27292e-06
-9.34066e-08
2.23977e-06
-1.20634e-06
2.2054e-06
-1.26513e-06
2.19424e-06
-6.98513e-07
2.20263e-06
-1.9983e-07
2.22514e-06
3.83007e-07
2.24721e-06
6.46288e-07
2.25467e-06
4.80742e-07
2.27566e-06
6.45886e-07
2.25035e-06
4.84067e-08
2.26819e-06
2.50155e-07
2.23777e-06
-4.45458e-08
2.2409e-06
-2.15886e-08
2.0013e-08
2.21874e-06
2.34576e-06
-4.95524e-07
2.34705e-06
1.55305e-08
2.33645e-06
-2.36611e-07
2.34407e-06
1.8943e-07
2.36741e-06
8.39169e-07
2.37744e-06
8.68177e-08
2.3805e-06
-9.64658e-08
2.34819e-06
-1.17404e-06
2.31224e-06
-1.22918e-06
2.29702e-06
-6.83288e-07
2.3016e-06
-2.04413e-07
2.32064e-06
3.63973e-07
2.34353e-06
6.23392e-07
2.35257e-06
4.71708e-07
2.37651e-06
6.21941e-07
2.35386e-06
7.10549e-08
2.37196e-06
2.32058e-07
2.3443e-06
-1.6889e-08
2.34515e-06
-2.2439e-08
3.73358e-08
2.32783e-06
2.45779e-06
-4.86914e-07
2.4594e-06
1.39119e-08
2.44841e-06
-2.25621e-07
2.45626e-06
1.81584e-07
2.47941e-06
8.16016e-07
2.48913e-06
7.71009e-08
2.49312e-06
-1.00453e-07
2.461e-06
-1.14192e-06
2.4242e-06
-1.19238e-06
2.40592e-06
-6.65e-07
2.40796e-06
-2.06459e-07
2.42429e-06
3.47648e-07
2.4478e-06
5.99874e-07
2.45813e-06
4.6138e-07
2.48405e-06
5.96029e-07
2.46382e-06
9.12761e-08
2.48132e-06
2.14566e-07
2.45658e-06
7.85134e-09
2.45496e-06
-2.08205e-08
5.02277e-08
2.44207e-06
2.57513e-06
-4.77748e-07
2.57723e-06
1.18149e-08
2.56571e-06
-2.14109e-07
2.57391e-06
1.73383e-07
2.59697e-06
7.9296e-07
2.60655e-06
6.75221e-08
2.6111e-06
-1.05005e-07
2.57863e-06
-1.10945e-06
2.54154e-06
-1.15529e-06
2.52096e-06
-6.44419e-07
2.52153e-06
-2.07029e-07
2.53599e-06
3.33188e-07
2.55991e-06
5.75959e-07
2.57129e-06
4.49995e-07
2.5982e-06
5.69123e-07
2.58022e-06
1.09251e-07
2.59644e-06
1.9835e-07
2.5746e-06
2.96885e-08
2.57066e-06
-1.68808e-08
5.93221e-08
2.56157e-06
2.69806e-06
-4.67982e-07
2.70075e-06
9.13114e-09
2.68862e-06
-2.0198e-07
2.69728e-06
1.64715e-07
2.72031e-06
7.69938e-07
2.72983e-06
5.80019e-08
2.73473e-06
-1.09908e-07
2.70152e-06
-1.07624e-06
2.66455e-06
-1.11832e-06
2.64224e-06
-6.22116e-07
2.64208e-06
-2.06867e-07
2.65543e-06
3.19837e-07
2.6795e-06
5.51893e-07
2.6918e-06
4.37692e-07
2.71884e-06
5.42084e-07
2.70299e-06
1.251e-07
2.71752e-06
1.83826e-07
2.69842e-06
4.87835e-08
2.69253e-06
-1.09912e-08
6.53605e-08
2.68649e-06
2.82687e-06
-4.57586e-07
2.83021e-06
5.79232e-09
2.81741e-06
-1.89179e-07
2.82663e-06
1.55499e-07
2.84966e-06
7.46905e-07
2.85912e-06
4.85424e-08
2.86427e-06
-1.15054e-07
2.83007e-06
-1.04204e-06
2.79349e-06
-1.08174e-06
2.76989e-06
-5.98513e-07
2.76944e-06
-2.06419e-07
2.78228e-06
3.06992e-07
2.80623e-06
5.27947e-07
2.8194e-06
4.24518e-07
2.84591e-06
5.15576e-07
2.83206e-06
1.38951e-07
2.84477e-06
1.71118e-07
2.82813e-06
6.54164e-08
2.82074e-06
-3.59697e-09
6.90301e-08
2.81707e-06
2.96185e-06
-4.46543e-07
2.96589e-06
1.75997e-09
2.95239e-06
-1.75683e-07
2.9622e-06
1.45691e-07
2.98528e-06
7.23826e-07
2.99461e-06
3.92047e-08
2.99997e-06
-1.20411e-07
2.96467e-06
-1.00674e-06
2.92866e-06
-1.04573e-06
2.90406e-06
-5.73914e-07
2.90351e-06
-2.05876e-07
2.91631e-06
2.94197e-07
2.93985e-06
5.04408e-07
2.95389e-06
4.10481e-07
2.97944e-06
4.90021e-07
2.96741e-06
1.5098e-07
2.9784e-06
1.60125e-07
2.96397e-06
7.98558e-08
2.95542e-06
4.95271e-09
7.0857e-08
2.95359e-06
3.10331e-06
-4.34846e-07
3.10805e-06
-2.98539e-09
3.09386e-06
-1.6149e-07
3.10426e-06
1.3529e-07
3.12743e-06
7.00659e-07
3.13654e-06
3.00892e-08
3.14212e-06
-1.25987e-07
3.10569e-06
-9.70307e-07
3.07034e-06
-1.01038e-06
3.04497e-06
-5.48543e-07
3.04432e-06
-2.05229e-07
3.0574e-06
2.81112e-07
3.08025e-06
4.81559e-07
3.09515e-06
3.95585e-07
3.11958e-06
4.65585e-07
3.10913e-06
1.61434e-07
3.11863e-06
1.50627e-07
3.10624e-06
9.22491e-08
3.09676e-06
1.44304e-08
7.12622e-08
3.09635e-06
3.25155e-06
-4.22489e-07
3.25702e-06
-8.4522e-09
3.24215e-06
-1.46615e-07
3.25311e-06
1.24329e-07
3.27641e-06
6.77351e-07
3.28519e-06
2.13174e-08
3.291e-06
-1.31803e-07
3.25347e-06
-9.32774e-07
3.21882e-06
-9.75728e-07
3.19288e-06
-5.22606e-07
3.19196e-06
-2.04309e-07
3.20561e-06
2.67469e-07
3.22751e-06
4.59651e-07
3.24321e-06
3.79887e-07
3.2666e-06
4.422e-07
3.25742e-06
1.70613e-07
3.26565e-06
1.42395e-07
3.25532e-06
1.02583e-07
3.24501e-06
2.47359e-08
7.05981e-08
3.24567e-06
3.40691e-06
-4.09472e-07
3.4131e-06
-1.46422e-08
3.39758e-06
-1.31092e-07
3.40904e-06
1.12874e-07
3.43255e-06
6.53833e-07
3.44085e-06
1.30229e-08
3.44693e-06
-1.37885e-07
3.40836e-06
-8.94199e-07
3.3744e-06
-9.41774e-07
3.34812e-06
-4.96329e-07
3.34667e-06
-2.02858e-07
3.36109e-06
2.53048e-07
3.38188e-06
4.38862e-07
3.39824e-06
3.63535e-07
3.42078e-06
4.1965e-07
3.41261e-06
1.78788e-07
3.4197e-06
1.35301e-07
3.41154e-06
1.10748e-07
3.40051e-06
3.57623e-08
6.92419e-08
3.40187e-06
3.56973e-06
-3.95794e-07
3.57664e-06
-2.15509e-08
3.56052e-06
-1.14972e-07
3.57238e-06
1.01015e-07
3.59619e-06
6.30026e-07
3.60386e-06
5.34825e-09
3.61025e-06
-1.44271e-07
3.5707e-06
-8.54652e-07
3.53739e-06
-9.08458e-07
3.51106e-06
-4.7e-07
3.50878e-06
-2.00577e-07
3.52413e-06
2.37693e-07
3.54374e-06
4.19249e-07
3.56048e-06
3.46796e-07
3.58247e-06
3.97664e-07
3.57512e-06
1.86135e-07
3.58106e-06
1.29361e-07
3.57521e-06
1.16596e-07
3.56368e-06
4.72965e-08
6.76821e-08
3.56524e-06
3.74037e-06
-3.81459e-07
3.74799e-06
-2.91663e-08
3.73134e-06
-9.83266e-08
3.74348e-06
8.88708e-08
3.76767e-06
6.05843e-07
3.77457e-06
-1.55431e-09
3.7813e-06
-1.51005e-07
3.74089e-06
-8.14236e-07
3.70809e-06
-8.75663e-07
3.68207e-06
-4.43973e-07
3.67864e-06
-1.97151e-07
3.69502e-06
2.2131e-07
3.71353e-06
4.00739e-07
3.73029e-06
3.30038e-07
3.75197e-06
3.75988e-07
3.74542e-06
1.92681e-07
3.75008e-06
1.24696e-07
3.74662e-06
1.20063e-07
3.73495e-06
5.89652e-08
6.65015e-08
3.73613e-06
3.9192e-06
-3.66472e-07
3.9275e-06
-3.74645e-08
3.91043e-06
-8.1256e-08
3.92272e-06
7.65839e-08
3.94737e-06
5.81193e-07
3.95333e-06
-7.52318e-09
3.96046e-06
-1.58133e-07
3.91932e-06
-7.73091e-07
3.88687e-06
-8.43212e-07
3.86154e-06
-4.18644e-07
3.85668e-06
-1.92293e-07
3.87408e-06
2.03909e-07
3.89169e-06
3.83126e-07
3.90804e-06
3.1369e-07
3.9296e-06
3.54431e-07
3.92395e-06
1.98333e-07
3.92721e-06
1.21438e-07
3.92602e-06
1.21246e-07
3.91472e-06
7.02658e-08
6.62504e-08
3.91497e-06
4.10663e-06
-3.50849e-07
4.11557e-06
-4.64069e-08
4.0982e-06
-6.3887e-08
4.11046e-06
6.43221e-08
4.13567e-06
5.55981e-07
4.14054e-06
-1.23862e-08
4.1481e-06
-1.65694e-07
4.10643e-06
-7.3142e-07
4.07408e-06
-8.10865e-07
4.04987e-06
-3.94436e-07
4.04336e-06
-1.85774e-07
4.06162e-06
1.8564e-07
4.07866e-06
3.66094e-07
4.09419e-06
2.98153e-07
4.1157e-06
3.32927e-07
4.11114e-06
2.02888e-07
4.11289e-06
1.19693e-07
4.11372e-06
1.20416e-07
4.10336e-06
8.06189e-08
6.7335e-08
4.10228e-06
4.30306e-06
-3.3461e-07
4.31259e-06
-5.59377e-08
4.29508e-06
-4.6376e-08
4.30713e-06
5.22775e-08
4.333e-06
5.30106e-07
4.33659e-06
-1.59725e-08
4.34458e-06
-1.73688e-07
4.30266e-06
-6.89501e-07
4.27013e-06
-7.78335e-07
4.24747e-06
-3.7177e-07
4.23915e-06
-1.7746e-07
4.258e-06
1.66798e-07
4.27483e-06
3.49263e-07
4.28924e-06
2.83736e-07
4.31059e-06
3.1158e-07
4.30743e-06
2.06053e-07
4.30763e-06
1.19484e-07
4.31002e-06
1.18034e-07
4.30121e-06
8.94223e-08
6.99182e-08
4.29863e-06
4.50895e-06
-3.17789e-07
4.519e-06
-6.59813e-08
4.50153e-06
-2.89087e-08
4.51314e-06
4.06673e-08
4.53978e-06
5.03462e-07
4.54194e-06
-1.81335e-08
4.55031e-06
-1.82055e-07
4.50849e-06
-6.47682e-07
4.47547e-06
-7.4531e-07
4.45472e-06
-3.51024e-07
4.44463e-06
-1.67374e-07
4.46359e-06
1.47845e-07
4.48059e-06
3.32257e-07
4.49372e-06
2.70609e-07
4.5147e-06
2.90606e-07
4.51316e-06
2.07586e-07
4.51201e-06
1.20635e-07
4.5153e-06
1.14743e-07
4.50857e-06
9.61499e-08
7.38701e-08
4.50462e-06
4.72476e-06
-3.0043e-07
4.73522e-06
-7.64413e-08
4.71801e-06
-1.1701e-08
4.72894e-06
2.97334e-08
4.75645e-06
4.75951e-07
4.75709e-06
-1.87696e-08
4.76569e-06
-1.90652e-07
4.72438e-06
-6.06375e-07
4.69056e-06
-7.1149e-07
4.67201e-06
-3.32472e-07
4.66037e-06
-1.55734e-07
4.67885e-06
1.29363e-07
4.69634e-06
3.14768e-07
4.70819e-06
2.58754e-07
4.72848e-06
2.70323e-07
4.72876e-06
2.07301e-07
4.72654e-06
1.2286e-07
4.73009e-06
1.11184e-07
4.7257e-06
1.0054e-07
7.87304e-08
4.72084e-06
4.95096e-06
-2.82592e-07
4.96172e-06
-8.71994e-08
4.94502e-06
4.99892e-09
4.955e-06
1.97474e-08
4.98347e-06
4.47483e-07
4.98256e-06
-1.78564e-08
4.99115e-06
-1.99239e-07
4.9508e-06
-5.66033e-07
4.91593e-06
-6.76617e-07
4.89967e-06
-3.16214e-07
4.88691e-06
-1.42973e-07
4.9043e-06
1.11975e-07
4.92246e-06
2.96607e-07
4.93322e-06
2.47999e-07
4.95245e-06
2.51089e-07
4.95463e-06
2.05122e-07
4.95173e-06
1.25762e-07
4.95499e-06
1.07922e-07
4.9529e-06
1.02629e-07
8.3815e-08
4.94782e-06
5.18807e-06
-2.64348e-07
5.19899e-06
-9.81157e-08
5.18307e-06
2.09132e-08
5.19182e-06
1.10037e-08
5.22129e-06
4.18007e-07
5.2189e-06
-1.5466e-08
5.22714e-06
-2.07479e-07
5.18825e-06
-5.27136e-07
5.15215e-06
-6.40523e-07
5.13799e-06
-3.02054e-07
5.12477e-06
-1.29746e-07
5.14052e-06
9.62264e-08
5.15937e-06
2.77753e-07
5.16932e-06
2.38046e-07
5.18721e-06
2.33206e-07
5.19117e-06
2.01157e-07
5.18808e-06
1.28854e-07
5.19066e-06
1.05344e-07
5.19051e-06
1.02777e-07
8.83462e-08
5.18598e-06
5.43663e-06
-2.45785e-07
5.44754e-06
-1.09028e-07
5.43272e-06
3.57306e-08
5.43991e-06
3.81221e-09
5.4704e-06
3.87524e-07
5.4667e-06
-1.17735e-08
5.47417e-06
-2.14949e-07
5.4372e-06
-4.9016e-07
5.39985e-06
-6.03177e-07
5.38741e-06
-2.89616e-07
5.37442e-06
-1.16755e-07
5.38812e-06
8.25265e-08
5.40752e-06
2.58356e-07
5.41703e-06
2.28536e-07
5.43336e-06
2.16874e-07
5.43885e-06
1.9567e-07
5.43603e-06
1.31667e-07
5.4378e-06
1.03579e-07
5.43895e-06
1.01624e-07
9.16302e-08
5.43567e-06
5.69718e-06
-2.27006e-07
5.7079e-06
-1.19749e-07
5.69452e-06
4.91065e-08
5.69985e-06
-1.51551e-09
5.73127e-06
3.56106e-07
5.72657e-06
-7.07371e-09
5.7328e-06
-2.21179e-07
5.69817e-06
-4.55529e-07
5.65968e-06
-5.64692e-07
5.64847e-06
-2.78406e-07
5.63634e-06
-1.04622e-07
5.64778e-06
7.10871e-08
5.66741e-06
2.38722e-07
5.67682e-06
2.19132e-07
5.69154e-06
2.02146e-07
5.69824e-06
1.88975e-07
5.69602e-06
1.33881e-07
5.69708e-06
1.02526e-07
5.69889e-06
9.98091e-08
9.33456e-08
5.69718e-06
5.97032e-06
-2.08129e-07
5.98063e-06
-1.30068e-07
5.96906e-06
6.06842e-08
5.97225e-06
-4.70615e-09
6.00444e-06
3.23916e-07
5.99912e-06
-1.75815e-09
6.00364e-06
-2.25699e-07
5.97168e-06
-4.2357e-07
5.93233e-06
-5.25339e-07
5.92177e-06
-2.67846e-07
5.91098e-06
-9.38342e-08
5.92016e-06
6.19117e-08
5.93963e-06
2.19252e-07
5.9492e-06
2.09557e-07
5.96239e-06
1.88956e-07
5.96997e-06
1.814e-07
5.96852e-06
1.35334e-07
5.96907e-06
1.01972e-07
5.97109e-06
9.77895e-08
9.35902e-08
5.97084e-06
6.25665e-06
-1.89288e-07
6.26633e-06
-1.39752e-07
6.25688e-06
7.01362e-08
6.25776e-06
-5.58533e-09
6.29046e-06
2.9121e-07
6.28495e-06
3.75435e-09
6.28734e-06
-2.28084e-07
6.25826e-06
-3.94494e-07
6.21847e-06
-4.85548e-07
6.20794e-06
-2.57316e-07
6.1988e-06
-8.46982e-08
6.20594e-06
5.47721e-08
6.22481e-06
2.00387e-07
6.23472e-06
1.99646e-07
6.24652e-06
1.77157e-07
6.2547e-06
1.73217e-07
6.25406e-06
1.35972e-07
6.25432e-06
1.01714e-07
6.25635e-06
9.57586e-08
9.27868e-08
6.25716e-06
6.55681e-06
-1.70632e-07
6.56561e-06
-1.48548e-07
6.55855e-06
7.7199e-08
6.5571e-06
-4.1422e-09
6.58997e-06
2.58342e-07
6.58464e-06
9.0887e-09
6.58454e-06
-2.27989e-07
6.55844e-06
-3.68392e-07
6.51875e-06
-4.45853e-07
6.50769e-06
-2.46261e-07
6.50028e-06
-7.72858e-08
6.50578e-06
4.92705e-08
6.52363e-06
1.82533e-07
6.53394e-06
1.8934e-07
6.54454e-06
1.66552e-07
6.55309e-06
1.64669e-07
6.5533e-06
1.35764e-07
6.55339e-06
1.01619e-07
6.55545e-06
9.37035e-08
9.14241e-08
6.55681e-06
6.87148e-06
-1.52323e-07
6.87912e-06
-1.56188e-07
6.87463e-06
8.16929e-08
6.87104e-06
-5.52814e-10
6.90362e-06
2.25758e-07
6.89881e-06
1.39057e-08
6.89593e-06
-2.25111e-07
6.87278e-06
-3.4524e-07
6.83382e-06
-4.06897e-07
6.82176e-06
-2.34204e-07
6.81593e-06
-7.14547e-08
6.82029e-06
4.49162e-08
6.83685e-06
1.65967e-07
6.84746e-06
1.78729e-07
6.8571e-06
1.56916e-07
6.86582e-06
1.55944e-07
6.86689e-06
1.34699e-07
6.86692e-06
1.01593e-07
6.86904e-06
9.15742e-08
8.98046e-08
6.87066e-06
7.20135e-06
-1.34534e-07
7.20755e-06
-1.62387e-07
7.20574e-06
8.35015e-08
7.20027e-06
4.91193e-09
7.23208e-06
1.93948e-07
7.22817e-06
1.78195e-08
7.22225e-06
-2.19189e-07
7.2018e-06
-3.24793e-07
7.16433e-06
-3.69429e-07
7.15096e-06
-2.20831e-07
7.14638e-06
-6.68774e-08
7.15004e-06
4.12568e-08
7.16519e-06
1.50816e-07
7.17597e-06
1.6795e-07
7.18483e-06
1.48058e-07
7.19356e-06
1.47211e-07
7.19554e-06
1.32723e-07
7.19553e-06
1.01595e-07
7.19774e-06
8.93718e-08
8.79433e-08
7.1996e-06
7.54714e-06
-1.17449e-07
7.5516e-06
-1.66843e-07
7.55256e-06
8.25405e-08
7.54536e-06
1.21137e-08
7.57604e-06
1.63266e-07
7.57348e-06
2.03733e-08
7.56438e-06
-2.10083e-07
7.54611e-06
-3.06521e-07
7.51088e-06
-3.34204e-07
7.49616e-06
-2.06113e-07
7.49231e-06
-6.30203e-08
7.49563e-06
3.79299e-08
7.50941e-06
1.37041e-07
7.52016e-06
1.57198e-07
7.52843e-06
1.39784e-07
7.53698e-06
1.3867e-07
7.53993e-06
1.29773e-07
7.53998e-06
1.01539e-07
7.54215e-06
8.72019e-08
8.57379e-08
7.54436e-06
7.90962e-06
-1.01258e-07
7.91202e-06
-1.69242e-07
7.91581e-06
7.87549e-08
7.90705e-06
2.08709e-08
7.93619e-06
1.3412e-07
7.9355e-06
2.10683e-08
7.92341e-06
-1.97994e-07
7.9064e-06
-2.89511e-07
7.87405e-06
-3.01848e-07
7.85823e-06
-1.90302e-07
7.85449e-06
-5.92729e-08
7.85772e-06
3.4701e-08
7.87024e-06
1.24514e-07
7.88081e-06
1.46631e-07
7.8886e-06
1.31997e-07
7.89685e-06
1.30421e-07
7.90069e-06
1.25926e-07
7.90102e-06
1.01209e-07
7.90296e-06
8.5262e-08
8.31077e-08
7.90559e-06
8.28957e-06
-8.61438e-08
8.28962e-06
-1.69295e-07
8.29617e-06
7.22067e-08
8.28627e-06
3.07681e-08
8.31326e-06
1.07134e-07
8.31498e-06
1.93452e-08
8.30037e-06
-1.83389e-07
8.28355e-06
-2.72683e-07
8.25439e-06
-2.72688e-07
8.23793e-06
-1.73845e-07
8.23385e-06
-5.51922e-08
8.23696e-06
3.15893e-08
8.24842e-06
1.13058e-07
8.25869e-06
1.36357e-07
8.26605e-06
1.24637e-07
8.27397e-06
1.22501e-07
8.27858e-06
1.21315e-07
8.27935e-06
1.00435e-07
8.28101e-06
8.36005e-08
8.01628e-08
8.28396e-06
8.68779e-06
-7.22752e-08
8.68525e-06
-1.66752e-07
8.69432e-06
6.31348e-08
8.68407e-06
4.10251e-08
8.70804e-06
8.31565e-08
8.71264e-06
1.47433e-08
8.69617e-06
-1.66911e-07
8.67852e-06
-2.55037e-07
8.65246e-06
-2.46632e-07
8.636e-06
-1.57384e-07
8.63135e-06
-5.05402e-08
8.63418e-06
2.87633e-08
8.64466e-06
1.02573e-07
8.65464e-06
1.26379e-07
8.66159e-06
1.1769e-07
8.66915e-06
1.1494e-07
8.67437e-06
1.16093e-07
8.6757e-06
9.91044e-08
8.67714e-06
8.21595e-08
7.70844e-08
8.68022e-06
9.10514e-06
-5.97943e-08
9.0998e-06
-1.61411e-07
9.11102e-06
5.19124e-08
9.1015e-06
5.05453e-08
9.12147e-06
6.31833e-08
9.1289e-06
7.31976e-09
9.11162e-06
-1.4963e-07
9.09253e-06
-2.35949e-07
9.06904e-06
-2.23139e-07
9.05314e-06
-1.41494e-07
9.04797e-06
-4.5361e-08
9.0503e-06
2.64289e-08
9.05982e-06
9.30524e-08
9.06949e-06
1.16711e-07
9.07614e-06
1.11036e-07
9.08325e-06
1.07829e-07
9.08895e-06
1.10401e-07
9.09092e-06
9.7129e-08
9.09219e-06
8.08903e-08
7.40393e-08
9.09524e-06
9.54247e-06
-4.8809e-08
9.53425e-06
-1.53187e-07
9.54713e-06
3.90326e-08
9.53932e-06
5.83574e-08
9.55446e-06
4.80422e-08
9.56396e-06
-2.18587e-09
9.54745e-06
-1.33112e-07
9.52683e-06
-2.15335e-07
9.50507e-06
-2.01374e-07
9.49013e-06
-1.26559e-07
9.48462e-06
-3.98488e-08
9.48635e-06
2.46948e-08
9.49487e-06
8.4535e-08
9.50419e-06
1.07397e-07
9.51062e-06
1.04599e-07
9.51729e-06
1.01166e-07
9.52324e-06
1.0445e-07
9.5259e-06
9.44682e-08
9.52711e-06
7.96765e-08
7.11876e-08
9.52996e-06
1.00007e-05
-3.93789e-08
9.98977e-06
-1.42252e-07
1.00036e-05
2.5213e-08
9.99835e-06
6.35949e-08
1.0008e-05
3.83914e-08
1.00186e-05
-1.28318e-08
1.00043e-05
-1.18727e-07
9.98256e-06
-1.93631e-07
9.9617e-06
-1.80511e-07
9.94784e-06
-1.12699e-07
9.94225e-06
-3.42576e-08
9.94345e-06
2.34915e-08
9.95093e-06
7.70541e-08
9.95974e-06
9.859e-08
9.96607e-06
9.827e-08
9.97223e-06
9.49967e-08
9.97827e-06
9.84181e-08
9.98164e-06
9.10983e-08
9.98294e-06
7.83745e-08
6.86846e-08
9.98544e-06
1.04808e-05
-3.15024e-08
1.04676e-05
-1.29087e-07
1.04814e-05
1.13796e-08
1.04796e-05
6.54509e-08
1.04841e-05
3.38548e-08
1.04939e-05
-2.26242e-08
1.04826e-05
-1.07374e-07
1.04607e-05
-1.71754e-07
1.04402e-05
-1.60018e-07
1.04273e-05
-9.97898e-08
1.04219e-05
-2.88474e-08
1.04226e-05
2.27052e-08
1.04291e-05
7.05547e-08
1.04373e-05
9.04861e-08
1.04435e-05
9.20338e-08
1.04493e-05
8.92116e-08
1.04552e-05
9.25249e-08
1.04591e-05
8.7154e-08
1.04608e-05
7.6718e-08
6.66738e-08
1.04628e-05
1.09836e-05
-2.5111e-08
1.09689e-05
-1.14393e-07
1.09818e-05
-1.49129e-09
1.09835e-05
6.37469e-08
1.09841e-05
3.3228e-08
1.09909e-05
-2.93748e-08
1.09827e-05
-9.91646e-08
1.0962e-05
-1.51043e-07
1.09418e-05
-1.39865e-07
1.09296e-05
-8.75373e-08
1.09245e-05
-2.37771e-08
1.09251e-05
2.21337e-08
1.09307e-05
6.49489e-08
1.0938e-05
8.31624e-08
1.0944e-05
8.60275e-08
1.09495e-05
8.37078e-08
1.09551e-05
8.69114e-08
1.09594e-05
8.28812e-08
1.09617e-05
7.44541e-08
6.50845e-08
1.09632e-05
1.15103e-05
-2.0068e-08
1.14949e-05
-9.89353e-08
1.15059e-05
-1.25379e-08
1.15108e-05
5.88095e-08
1.15091e-05
3.49539e-08
1.15118e-05
-3.20509e-08
1.15054e-05
-9.28008e-08
1.14871e-05
-1.32697e-07
1.14677e-05
-1.20523e-07
1.14559e-05
-7.57064e-08
1.14512e-05
-1.90687e-08
1.14517e-05
2.16517e-08
1.14566e-05
6.00398e-08
1.14631e-05
7.66487e-08
1.14688e-05
8.03704e-08
1.1474e-05
7.84747e-08
1.14793e-05
8.15878e-08
1.14837e-05
7.85354e-08
1.14866e-05
7.1566e-08
6.35836e-08
1.14881e-05
1.20619e-05
-1.6168e-08
1.20464e-05
-8.346e-08
1.2055e-05
-2.11103e-08
1.20625e-05
5.1334e-08
1.20601e-05
3.7353e-08
1.20588e-05
-3.07592e-08
1.20525e-05
-8.65325e-08
1.2037e-05
-1.17171e-07
1.20191e-05
-1.02629e-07
1.20077e-05
-6.42948e-08
1.20031e-05
-1.45122e-08
1.20036e-05
2.12364e-08
1.2008e-05
5.5636e-08
1.20138e-05
7.08491e-08
1.2019e-05
7.51383e-08
1.20239e-05
7.35698e-08
1.2029e-05
7.64675e-08
1.20332e-05
7.43229e-08
1.20365e-05
6.82664e-08
6.1732e-08
1.20384e-05
1.26396e-05
-1.31555e-08
1.26248e-05
-6.8661e-08
1.26304e-05
-2.67051e-08
1.26396e-05
4.2115e-08
1.26379e-05
3.90853e-08
1.26335e-05
-2.63675e-08
1.26262e-05
-7.92557e-08
1.26131e-05
-1.04046e-07
1.25972e-05
-8.67127e-08
1.25862e-05
-5.33364e-08
1.25816e-05
-9.8844e-09
1.25819e-05
2.0915e-08
1.25859e-05
5.16557e-08
1.25911e-05
6.55953e-08
1.25959e-05
7.0345e-08
1.26004e-05
6.90416e-08
1.26054e-05
7.15528e-08
1.26094e-05
7.02635e-08
1.26128e-05
6.48982e-08
5.92692e-08
1.26152e-05
1.32445e-05
-1.07441e-08
1.3231e-05
-5.51123e-08
1.32333e-05
-2.90562e-08
1.32435e-05
3.19612e-08
1.32432e-05
3.93566e-08
1.32368e-05
-1.99238e-08
1.3228e-05
-7.05386e-08
1.32166e-05
-9.25976e-08
1.32029e-05
-7.30256e-08
1.31926e-05
-4.30497e-08
1.31879e-05
-5.13179e-09
1.31879e-05
2.09041e-08
1.31915e-05
4.80278e-08
1.31963e-05
6.07932e-08
1.32008e-05
6.59008e-08
1.32049e-05
6.48594e-08
1.32096e-05
6.69326e-08
1.32136e-05
6.62683e-08
1.32168e-05
6.16886e-08
5.63452e-08
1.32197e-05
1.38781e-05
-8.66928e-09
1.38661e-05
-4.31405e-08
1.38654e-05
-2.83012e-08
1.38756e-05
2.17684e-08
1.38771e-05
3.78591e-08
1.38696e-05
-1.2496e-08
1.38595e-05
-6.04502e-08
1.38489e-05
-8.19285e-08
1.38374e-05
-6.15686e-08
1.38283e-05
-3.39243e-08
1.38234e-05
-2.75572e-10
1.3823e-05
2.13699e-08
1.38262e-05
4.47948e-08
1.38306e-05
5.63887e-08
1.38348e-05
6.17149e-08
1.38387e-05
6.09807e-08
1.38429e-05
6.26523e-08
1.38469e-05
6.22927e-08
1.38499e-05
5.8666e-08
5.33002e-08
1.3853e-05
1.45417e-05
-6.70148e-09
1.45314e-05
-3.2853e-08
1.45281e-05
-2.50317e-08
1.45373e-05
1.26289e-08
1.45405e-05
3.46219e-08
1.45332e-05
-5.17334e-09
1.45221e-05
-4.93572e-08
1.45115e-05
-7.12951e-08
1.45019e-05
-5.20203e-08
1.44942e-05
-2.62286e-08
1.44896e-05
4.32623e-09
1.44886e-05
2.23507e-08
1.44913e-05
4.21396e-08
1.44954e-05
5.23079e-08
1.44993e-05
5.77713e-08
1.4503e-05
5.73088e-08
1.45069e-05
5.87129e-08
1.45109e-05
5.83712e-08
1.45138e-05
5.57477e-08
5.03954e-08
1.45167e-05
1.52369e-05
-4.67581e-09
1.52283e-05
-2.42515e-08
1.52231e-05
-1.99191e-08
1.52301e-05
5.62134e-09
1.52349e-05
2.98244e-08
1.52287e-05
1.10711e-09
1.52171e-05
-3.78071e-08
1.52063e-05
-6.04466e-08
1.51978e-05
-4.35962e-08
1.51917e-05
-2.00775e-08
1.51878e-05
8.25902e-09
1.51863e-05
2.37607e-08
1.51884e-05
4.01228e-08
1.5192e-05
4.86684e-08
1.51958e-05
5.39934e-08
1.51993e-05
5.38328e-08
1.52029e-05
5.50283e-08
1.52067e-05
5.4579e-08
1.52097e-05
5.28105e-08
4.77221e-08
1.52123e-05
1.59652e-05
-2.52385e-09
1.59581e-05
-1.71888e-08
1.5952e-05
-1.37604e-08
1.59561e-05
1.52523e-09
1.59619e-05
2.40087e-08
1.59573e-05
5.68026e-09
1.59459e-05
-2.64375e-08
1.59349e-05
-4.94692e-08
1.59269e-05
-3.55792e-08
1.59221e-05
-1.52132e-08
1.59191e-05
1.1233e-08
1.59176e-05
2.52418e-08
1.5919e-05
3.87693e-08
1.59221e-05
4.55394e-08
1.59256e-05
5.04594e-08
1.5929e-05
5.0465e-08
1.59324e-05
5.15814e-08
1.59361e-05
5.09346e-08
1.59391e-05
4.98172e-08
4.52461e-08
1.59416e-05
1.67284e-05
-2.72267e-10
1.67226e-05
-1.14125e-08
1.67163e-05
-7.48298e-09
1.67175e-05
3.2028e-10
1.67231e-05
1.83681e-08
1.67205e-05
8.3349e-09
1.671e-05
-1.5912e-08
1.6699e-05
-3.85227e-08
1.66911e-05
-2.7701e-08
1.6687e-05
-1.10637e-08
1.6685e-05
1.32238e-08
1.66839e-05
2.63755e-08
1.66847e-05
3.79264e-08
1.66873e-05
4.29705e-08
1.66905e-05
4.72629e-08
1.66937e-05
4.72257e-08
1.6697e-05
4.82763e-08
1.67005e-05
4.74999e-08
1.67035e-05
4.67507e-08
4.28629e-08
1.67059e-05
1.75281e-05
1.99867e-09
1.75232e-05
-6.5594e-09
1.75175e-05
-1.75565e-09
1.75164e-05
1.38194e-09
1.75208e-05
1.40326e-08
1.75198e-05
9.28855e-09
1.75107e-05
-6.7569e-09
1.75001e-05
-2.79046e-08
1.74923e-05
-1.99368e-08
1.74883e-05
-7.11154e-09
1.74871e-05
1.44759e-08
1.74865e-05
2.69144e-08
1.74872e-05
3.72774e-08
1.74892e-05
4.09308e-08
1.74921e-05
4.44427e-08
1.74951e-05
4.42055e-08
1.74983e-05
4.5081e-08
1.75015e-05
4.42923e-08
1.75046e-05
4.3646e-08
4.04599e-08
1.7507e-05
1.83662e-05
4.19207e-09
1.83619e-05
-2.27072e-09
1.8357e-05
3.1041e-09
1.83545e-05
3.86337e-09
1.8357e-05
1.15904e-08
1.83571e-05
9.18301e-09
1.83496e-05
6.93397e-10
1.83397e-05
-1.79779e-08
1.83321e-05
-1.23702e-08
1.83281e-05
-3.10976e-09
1.83272e-05
1.53749e-08
1.83273e-05
2.68669e-08
1.8328e-05
3.65265e-08
1.83297e-05
3.92317e-08
1.83321e-05
4.20204e-08
1.83349e-05
4.1466e-08
1.83379e-05
4.20743e-08
1.8341e-05
4.12011e-08
1.8344e-05
4.06529e-08
3.79434e-08
1.83465e-05
1.92444e-05
6.21797e-09
1.92404e-05
1.67853e-09
1.92364e-05
7.09836e-09