/*--------------------------------*- C++ -*----------------------------------*\
| =========                 |                                                 |
| \\      /  F ield         | OpenFOAM: The Open Source CFD Toolbox           |
|  \\    /   O peration     | Version:  v1912                                 |
|   \\  /    A nd           | Website:  www.openfoam.com                      |
|    \\/     M anipulation  |                                                 |
\*---------------------------------------------------------------------------*/
FoamFile
{
    version     2.0;
    format      ascii;
    class       volScalarField;
    location    "2.65";
    object      p;
}
// * * * * * * * * * * * * * * * * * * * * * * * * * * * * * * * * * * * * * //

dimensions      [0 2 -2 0 0 0 0];


internalField   nonuniform List<scalar> 
9600
(
-2.22289e-10
-0.000987591
0.00197502
0.000925695
0.000942547
-0.0011124
-0.00747621
-0.00313126
-0.000467071
0.00134306
0.0020754
0.00283917
0.00690113
0.00679296
0.0108963
0.0106919
0.0136537
0.0156283
0.0173681
0.0219691
2.31336e-07
-0.000989192
0.00197744
0.000914617
0.000950128
-0.00113308
-0.0073222
-0.00310585
-0.000482428
0.00141462
0.00206012
0.00282922
0.00691261
0.00675636
0.0109064
0.0105908
0.0136585
0.0153184
0.017418
0.0212255
-4.50498e-08
-0.000990795
0.00198013
0.000900316
0.00095888
-0.00115882
-0.00716966
-0.00307202
-0.000503589
0.00149032
0.00203558
0.00281196
0.00692764
0.0067109
0.0109003
0.0104953
0.0136427
0.0151157
0.0174071
0.0204668
-9.13549e-07
-0.000992485
0.00198278
0.000882722
0.000957731
-0.00119147
-0.00701135
-0.00302833
-0.000533697
0.00151375
0.00200941
0.00278717
0.00693709
0.00666071
0.0108738
0.0103939
0.0136081
0.0149243
0.0173218
0.0198644
-2.39554e-06
-0.000994338
0.00198566
0.000859829
0.000946573
-0.0012283
-0.0068472
-0.00297554
-0.000571951
0.0015241
0.00198492
0.00275595
0.0069411
0.00660792
0.0108391
0.0102831
0.013576
0.0146953
0.0172214
0.0193049
-4.49965e-06
-0.000996365
0.00198878
0.000830944
0.000929069
-0.00126627
-0.00667866
-0.00291975
-0.000616455
0.00152971
0.00196292
0.00272464
0.00694019
0.00655573
0.0107999
0.0101688
0.0135404
0.0145006
0.0170955
0.0187672
-7.17273e-06
-0.000998548
0.00199193
0.000796278
0.000908166
-0.00130319
-0.00650667
-0.00286336
-0.000664029
0.00153517
0.00194392
0.00270013
0.00693865
0.00650216
0.0107579
0.0100507
0.0134913
0.0143144
0.0169232
0.0182539
-1.03236e-05
-0.00100087
0.00199478
0.000756401
0.000886036
-0.00133791
-0.00633179
-0.00280785
-0.000711027
0.00154314
0.00192781
0.00268479
0.00694
0.00644311
0.0107146
0.00993057
0.0134269
0.0141384
0.016703
0.0177738
-1.38537e-05
-0.00100337
0.00199701
0.000711937
0.00086419
-0.00136995
-0.00615419
-0.00275318
-0.000754623
0.00155525
0.00191478
0.00267608
0.00694371
0.00637665
0.0106678
0.00981495
0.0133437
0.0139744
0.0164372
0.0173264
-1.76729e-05
-0.00100611
0.00199833
0.000663493
0.000843278
-0.00139927
-0.00597399
-0.00269856
-0.000793165
0.001572
0.00190438
0.00266869
0.0069482
0.00630416
0.0106144
0.00970906
0.0132374
0.0138225
0.0161268
0.0168907
-2.17059e-05
-0.00100918
0.00199858
0.000611716
0.000823217
-0.001426
-0.00579146
-0.00264305
-0.000826322
0.00159294
0.00189578
0.00265889
0.00695292
0.00622877
0.010551
0.00961566
0.0131042
0.0136811
0.015773
0.0164643
-2.58929e-05
-0.00101266
0.00199767
0.000557354
0.000803593
-0.00145045
-0.00560698
-0.00258591
-0.000855246
0.00161663
0.00188865
0.00264584
0.00695717
0.00615321
0.0104747
0.00953477
0.0129416
0.0135477
0.0153786
0.0160411
-3.01885e-05
-0.00101662
0.00199559
0.000501225
0.000784053
-0.001473
-0.00542098
-0.00252646
-0.00088207
0.00164131
0.00188296
0.00263053
0.00695955
0.00607917
0.0103831
0.00946479
0.0127482
0.0134187
0.0149487
0.015611
-3.45613e-05
-0.00102109
0.00199235
0.000444106
0.000764457
-0.00149399
-0.00523386
-0.00246452
-0.000909133
0.00166565
0.00187865
0.00261407
0.00695867
0.00600747
0.0102744
0.00940415
0.0125238
0.0132894
0.0144906
0.0151642
-3.89924e-05
-0.00102611
0.00198786
0.00038666
0.000744739
-0.00151363
-0.00504615
-0.00240011
-0.000937995
0.00168879
0.00187558
0.00259623
0.00695321
0.0059389
0.0101468
0.00935192
0.0122687
0.0131546
0.0140139
0.0146926
-4.34747e-05
-0.00103167
0.00198203
0.000329466
0.000724754
-0.00153212
-0.0048584
-0.00233336
-0.000968848
0.00171047
0.00187324
0.00257509
0.00694155
0.00587475
0.00999831
0.00930726
0.0119844
0.0130082
0.0135284
0.0141924
-4.80152e-05
-0.00103776
0.00197472
0.000273068
0.000704262
-0.00154963
-0.00467121
-0.00226455
-0.0010014
0.00173087
0.00187129
0.00254836
0.00692193
0.00581678
0.00982719
0.00926822
0.0116742
0.0128426
0.0130434
0.0136636
-5.26362e-05
-0.00104433
0.0019658
0.000217931
0.000682959
-0.00156623
-0.00448528
-0.00219384
-0.00103534
0.0017501
0.00186996
0.00251503
0.00689287
0.00576646
0.00963197
0.00923167
0.0113426
0.0126499
0.0125685
0.0131084
-5.73767e-05
-0.00105136
0.00195516
0.000164369
0.000660482
-0.00158178
-0.00430137
-0.0021211
-0.00107037
0.00176796
0.00186985
0.00247556
0.00685345
0.00572423
0.00941279
0.00919378
0.0109944
0.0124234
0.0121122
0.0125305
-6.22929e-05
-0.00105886
0.0019427
0.000112507
0.000636427
-0.00159586
-0.0041202
-0.00204619
-0.00110632
0.00178397
0.00187174
0.00243101
0.00680336
0.00568976
0.0091712
0.00915045
0.0106346
0.0121583
0.0116805
0.0119347
-6.74448e-05
-0.00106686
0.00192828
6.23245e-05
0.000610376
-0.00160788
-0.00394248
-0.00196897
-0.00114305
0.00179752
0.00187645
0.00238197
0.0067425
0.00566231
0.00890897
0.00909791
0.0102685
0.0118517
0.011276
0.0113271
-7.2876e-05
-0.00107544
0.00191171
1.38004e-05
0.00058191
-0.00161711
-0.003769
-0.00188933
-0.0011803
0.00180772
0.00188466
0.00232828
0.00667047
0.00564073
0.00862803
0.00903244
0.0099015
0.0115025
0.0108982
0.0107166
-7.86119e-05
-0.00108467
0.00189279
-3.3027e-05
0.000550629
-0.00162288
-0.00360061
-0.00180737
-0.00121762
0.0018136
0.0018967
0.00226931
0.00658689
0.00562399
0.00832979
0.00895037
0.00953857
0.0111112
0.0105444
0.0101148
-8.46619e-05
-0.00109464
0.00187127
-7.80319e-05
0.000516158
-0.00162453
-0.00343824
-0.00172313
-0.00125439
0.00181412
0.00191271
0.00220426
0.00649124
0.00561169
0.00801553
0.00884816
0.00918479
0.010679
0.0102084
0.00953536
-9.10186e-05
-0.00110543
0.00184685
-0.000120939
0.000478104
-0.00162155
-0.00328273
-0.00163681
-0.00128999
0.00180816
0.00193306
0.00213267
0.00638209
0.00560384
0.0076874
0.00872113
0.0088456
0.010209
0.00987971
0.0089933
-9.76647e-05
-0.00111711
0.00181923
-0.000161379
0.000435991
-0.00161351
-0.00313478
-0.00154879
-0.00132393
0.00179444
0.00195849
0.00205423
0.00625749
0.00560071
0.00734778
0.00856382
0.00852615
0.00970629
0.00954445
0.00850194
-0.000104565
-0.00112977
0.00178805
-0.000198956
0.000389327
-0.00160003
-0.00299511
-0.00145945
-0.00135526
0.0017714
0.00198951
0.00196928
0.00611551
0.00560195
0.00699949
0.00837099
0.00823048
0.00917816
0.00918721
0.00806921
-0.000111671
-0.0011435
0.00175291
-0.000233189
0.000337712
-0.00158092
-0.00286435
-0.00136933
-0.00138273
0.00173726
0.00202611
0.001879
0.00595371
0.00560663
0.00664672
0.00813724
0.00795992
0.00863535
0.00879356
0.0076949
-0.000118957
-0.00115835
0.00171339
-0.000263529
0.000280689
-0.00155602
-0.00274287
-0.00127944
-0.00140505
0.00169025
0.00206793
0.00178536
0.00576923
0.00561338
0.00629494
0.00785718
0.00771161
0.00809296
0.00835349
0.00736887
-0.000126397
-0.00117442
0.00166903
-0.000289483
0.000217882
-0.00152528
-0.00263096
-0.00119103
-0.00142072
0.00162892
0.00211397
0.00169065
0.00555962
0.00562013
0.00595094
0.00752789
0.00747867
0.00756766
0.00786344
0.00706956
-0.000133921
-0.00119174
0.00161927
-0.000310474
0.000149131
-0.00148883
-0.00252857
-0.00110569
-0.00142808
0.0015518
0.00216232
0.00159773
0.00532306
0.00562303
0.0056224
0.00715078
0.00724899
0.00707496
0.00732857
0.00676651
-0.000141501
-0.00121035
0.00156352
-0.000325862
7.42846e-05
-0.00144692
-0.00243515
-0.0010256
-0.00142529
0.00145745
0.00220979
0.00151094
0.00505898
0.00561535
0.0053168
0.00672999
0.00700726
0.00662757
0.00676178
0.00642849
-0.000149153
-0.00123025
0.0015012
-0.000335091
-6.69356e-06
-0.00139997
-0.00234984
-0.00095324
-0.00141092
0.00134648
0.00225238
0.00143506
0.00476819
0.00558847
0.00504077
0.00627276
0.00673823
0.00623098
0.00618259
0.00603361
-0.000156846
-0.00125135
0.0014316
-0.000337638
-9.35526e-05
-0.00134853
-0.00227134
-0.000891337
-0.001384
0.00122039
0.00228484
0.00137343
0.00445278
0.0055338
0.00479895
0.00578969
0.00642808
0.00588131
0.00561642
0.0055753
-0.000164576
-0.0012735
0.00135391
-0.000333205
-0.000185707
-0.00129028
-0.00219785
-0.000843012
-0.00134424
0.0010812
0.00230112
0.00132801
0.00411757
0.00544369
0.00459154
0.00529302
0.00606888
0.00556722
0.00508778
0.00506338
-0.000172399
-0.00129654
0.00126744
-0.000321576
-0.000282247
-0.0012354
-0.00212709
-0.000810782
-0.0012928
0.000933412
0.00229553
0.00129862
0.00376994
0.00531124
0.0044139
0.00479627
0.00565987
0.00527231
0.00461207
0.00451596
-0.000180384
-0.00132025
0.00117135
-0.000302616
-0.000381816
-0.001183
-0.00205631
-0.000796101
-0.0012326
0.000782906
0.00226368
0.00128253
0.00341777
0.00513207
0.00425858
0.00431247
0.00520491
0.00497827
0.00419428
0.00396128
-0.000188657
-0.00134421
0.00106481
-0.000275986
-0.000482644
-0.00113526
-0.00198262
-0.000799139
-0.00116793
0.000634105
0.00220324
0.00127446
0.00306887
0.00490527
0.00411543
0.00385217
0.00471125
0.00466814
0.00382898
0.00343166
-0.000197449
-0.00136795
0.00094719
-0.000243862
-0.000582572
-0.00109586
-0.00190362
-0.000818062
-0.00110434
0.000490185
0.00211326
0.00126838
0.00273005
0.00463209
0.0039724
0.00342329
0.00418921
0.00433127
0.00350499
0.00294679
-0.000206974
-0.0013908
0.000817847
-0.000206965
-0.000678548
-0.00106889
-0.00181814
-0.000849146
-0.00104855
0.000354183
0.00199553
0.00125847
0.00240501
0.00431535
0.00381852
0.00303034
0.00365022
0.00396405
0.00321152
0.00251157
-0.000217557
-0.00141213
0.000676573
-0.000167313
-0.000767093
-0.00105735
-0.00172666
-0.000887764
-0.00100642
0.000228468
0.00185361
0.00123853
0.00209647
0.00396128
0.00364461
0.00267197
0.00310212
0.00356616
0.00294242
0.00212902
-0.000229618
-0.0014312
0.000523398
-0.000127444
-0.000844604
-0.00106291
-0.00163203
-0.000929184
-0.000981451
0.00011113
0.00169183
0.00120288
0.00180596
0.00357894
0.00344371
0.00234475
0.00255116
0.00313225
0.00268721
0.00180072
-0.0002436
-0.00144718
0.000358551
-9.06307e-05
-0.000907395
-0.00108599
-0.00153952
-0.000968723
-0.000975309
-2.20618e-06
0.001514
0.00114899
0.00153252
0.00317598
0.00321246
0.00204718
0.00200826
0.00265179
0.00242516
0.00152314
-0.000260146
-0.00145948
0.000183388
-6.06907e-05
-0.000952941
-0.00112514
-0.00145594
-0.0010023
-0.000985542
-0.000116158
0.00132221
0.00107535
0.00127554
0.00275874
0.00294912
0.00178039
0.00149526
0.00212907
0.00212592
0.00127334
-0.000279857
-0.00146744
-2.655e-07
-4.18075e-05
-0.000979625
-0.00117745
-0.00138705
-0.00102787
-0.00100885
-0.000233822
0.0011182
0.00098012
0.00103387
0.00233555
0.00265235
0.0015407
0.00103407
0.00157534
0.00176563
0.0010188
-0.000303472
-0.0014705
-0.000189317
-3.83325e-05
-0.000987658
-0.00123873
-0.00134035
-0.00104585
-0.00104094
-0.00035723
0.000903464
0.000863283
0.000803755
0.00191419
0.00232398
0.00131275
0.000626588
0.00100802
0.00131878
0.000739941
-0.000331992
-0.00146818
-0.000379773
-5.44342e-05
-0.000979677
-0.00130343
-0.00131798
-0.0010588
-0.00107742
-0.000486882
0.00067884
0.000724465
0.000582429
0.00149817
0.00196351
0.00107768
0.000261759
0.000440794
0.00079699
0.000430138
-0.000366286
-0.00146015
-0.000567366
-9.4365e-05
-0.000960256
-0.00136518
-0.00132074
-0.00107314
-0.00111618
-0.000620696
0.00044517
0.00056318
0.00036712
0.00108952
0.0015712
0.000821931
-7.15352e-05
-9.36227e-05
0.000243327
8.22539e-05
-0.000406965
-0.00144669
-0.00074652
-0.000161278
-0.000936001
-0.00141784
-0.00134714
-0.00109659
-0.00115726
-0.000756596
0.000203526
0.000380486
0.000153315
0.000688202
0.00115295
0.000540661
-0.0003784
-0.000576634
-0.000308071
-0.000320593
-0.000454352
-0.00142877
-0.000913346
-0.000256789
-0.000914132
-0.00145758
-0.00139342
-0.00113417
-0.00120159
-0.000894033
-4.40575e-05
0.000177745
-6.32873e-05
0.000295772
0.000718267
0.000236608
-0.000666405
-0.00101212
-0.000841067
-0.000769585
-0.000508411
-0.00140819
-0.00106552
-0.000379105
-0.000901903
-0.00148351
-0.0014524
-0.00118908
-0.00125329
-0.00103238
-0.000295509
-4.53484e-05
-0.000284803
-8.15018e-05
0.000275802
-9.22339e-05
-0.00094557
-0.00140732
-0.00134667
-0.00124191
-0.000568814
-0.00138736
-0.00120143
-0.000523147
-0.000905997
-0.00149846
-0.00151736
-0.00126178
-0.0013167
-0.00117169
-0.000549584
-0.000287972
-0.000511941
-0.00043965
-0.000167309
-0.000447167
-0.00122501
-0.00176804
-0.00182271
-0.00171982
-0.000635013
-0.0013691
-0.00131083
-0.000681715
-0.000931715
-0.00150882
-0.00158464
-0.0013501
-0.0013937
-0.00131341
-0.000804528
-0.000547023
-0.000746732
-0.000779377
-0.000602485
-0.000824717
-0.00151649
-0.00210006
-0.00226534
-0.00219495
-0.000706232
-0.00135608
-0.00141266
-0.000847105
-0.000982436
-0.001523
-0.00165292
-0.0014495
-0.00148439
-0.00145901
-0.00105916
-0.000819744
-0.000991584
-0.00110309
-0.00102301
-0.00121611
-0.0018272
-0.00241425
-0.00266893
-0.0026607
-0.000781697
-0.00135309
-0.00149905
-0.00101231
-0.00105911
-0.00154875
-0.00172239
-0.00155706
-0.00158777
-0.0016092
-0.00131261
-0.00110347
-0.00124851
-0.00141435
-0.00142549
-0.00161073
-0.00215558
-0.00272791
-0.00303537
-0.00310169
-0.000860704
-0.00135995
-0.00157282
-0.00117253
-0.00115879
-0.00159089
-0.00179695
-0.00167222
-0.00170189
-0.00176336
-0.00156359
-0.00139573
-0.00151984
-0.00171681
-0.00180837
-0.00200261
-0.00249276
-0.00304975
-0.00337923
-0.00350466
-0.000942598
-0.00137739
-0.00163825
-0.00132536
-0.00127555
-0.0016516
-0.00188104
-0.00179516
-0.00182565
-0.00192051
-0.00181118
-0.00169422
-0.00180585
-0.00201547
-0.00217163
-0.00238873
-0.00283203
-0.00337515
-0.00371932
-0.00387094
-0.00102691
-0.00140545
-0.00169993
-0.00147067
-0.00140368
-0.00173033
-0.00197629
-0.00192735
-0.00195936
-0.00208041
-0.00205372
-0.00199478
-0.00210479
-0.00231737
-0.00251765
-0.00276538
-0.00317289
-0.0036944
-0.00406219
-0.00421829
-0.00111339
-0.00144387
-0.00176108
-0.00161012
-0.00153957
-0.00182303
-0.00208298
-0.00207074
-0.00210432
-0.00224355
-0.00228983
-0.00229294
-0.00241311
-0.00262704
-0.00285262
-0.00312882
-0.00351542
-0.00400397
-0.00439896
-0.00456519
-0.00120203
-0.00149234
-0.00182374
-0.00174551
-0.00168155
-0.00192626
-0.00219937
-0.00222595
-0.00226278
-0.00241117
-0.00251903
-0.0025854
-0.00272612
-0.00294434
-0.00318366
-0.0034781
-0.00385772
-0.00430939
-0.004717
-0.00491386
-0.00129296
-0.00155046
-0.00188939
-0.00187752
-0.00182894
-0.0020389
-0.00232224
-0.002392
-0.00243717
-0.00258585
-0.00274149
-0.00286983
-0.00303931
-0.00326581
-0.00351434
-0.00381643
-0.00419598
-0.00461771
-0.00501456
-0.00524959
-0.00138631
-0.00161781
-0.00195928
-0.00200636
-0.001981
-0.00216114
-0.00244986
-0.00256619
-0.00262754
-0.00277131
-0.00295892
-0.00314353
-0.00334832
-0.00358869
-0.00384569
-0.00414712
-0.00452508
-0.00493155
-0.00530288
-0.00555925
-0.00148218
-0.00169392
-0.00203437
-0.00213231
-0.00213686
-0.00229351
-0.00258222
-0.00274451
-0.00283123
-0.00297042
-0.00317565
-0.00340595
-0.00364788
-0.00390852
-0.00417848
-0.00447525
-0.00484123
-0.00524462
-0.00559454
-0.0058463
-0.00158066
-0.00177822
-0.00211544
-0.00225581
-0.00229539
-0.00243654
-0.00272013
-0.00292408
-0.00304447
-0.00318282
-0.003396
-0.00365998
-0.00393619
-0.00421838
-0.00450739
-0.00480714
-0.00514929
-0.00554564
-0.00589056
-0.00612602
-0.00168181
-0.00186996
-0.00220327
-0.00237759
-0.00245504
-0.00258998
-0.00286505
-0.00310328
-0.00326261
-0.00340704
-0.00362198
-0.00390759
-0.00421469
-0.00451719
-0.00482268
-0.00513957
-0.00546068
-0.00583209
-0.00618123
-0.00640744
-0.0017856
-0.00196828
-0.00229831
-0.00249886
-0.00261446
-0.00275215
-0.00301883
-0.00328253
-0.00348057
-0.00364031
-0.00385614
-0.00414998
-0.00448199
-0.00480864
-0.00512183
-0.00545858
-0.00577917
-0.00611388
-0.00645779
-0.0066871
-0.00189208
-0.00207223
-0.00240053
-0.00262081
-0.00277297
-0.00292121
-0.00318185
-0.00346345
-0.00369538
-0.00387667
-0.00409916
-0.00439235
-0.00473535
-0.00509056
-0.00541209
-0.00575509
-0.0060932
-0.00640078
-0.0067212
-0.00695627
-0.00200125
-0.00218083
-0.00250962
-0.0027447
-0.00292995
-0.00309513
-0.00335368
-0.0036474
-0.00390743
-0.00411037
-0.00434482
-0.00463968
-0.00497912
-0.00535558
-0.00569708
-0.00603475
-0.00638828
-0.0066914
-0.00698035
-0.00721159
-0.00211296
-0.00229317
-0.0026247
-0.00287191
-0.00308556
-0.00327131
-0.00353312
-0.0038353
-0.00411763
-0.00434116
-0.00458641
-0.00488744
-0.00522056
-0.00560062
-0.00596847
-0.00630573
-0.00666071
-0.00697512
-0.00724209
-0.00746107
-0.00222707
-0.00240846
-0.00274447
-0.00300294
-0.00324067
-0.00344838
-0.00371794
-0.00402672
-0.0043257
-0.00457014
-0.00482398
-0.00512908
-0.00546101
-0.00583131
-0.00621481
-0.00656376
-0.00691163
-0.00723635
-0.00749654
-0.00770273
-0.00234289
-0.00252591
-0.00286785
-0.00313762
-0.00339561
-0.00362564
-0.00390723
-0.00422125
-0.00453004
-0.00479347
-0.00505743
-0.00536312
-0.00569667
-0.00605749
-0.00643992
-0.00680241
-0.00714691
-0.00747341
-0.00773269
-0.00792266
-0.00245981
-0.00264484
-0.00299321
-0.00327554
-0.00355095
-0.00380189
-0.00409953
-0.00442072
-0.0047331
-0.00500783
-0.00528048
-0.00558589
-0.00591684
-0.00627364
-0.00665065
-0.00701737
-0.00736594
-0.00769754
-0.00796583
-0.00814494
-0.00257638
-0.00276434
-0.0031197
-0.00341521
-0.00370661
-0.00397752
-0.00429235
-0.00462291
-0.00494167
-0.00522024
-0.00549286
-0.00579793
-0.00611644
-0.00645949
-0.0068335
-0.00719525
-0.00754175
-0.00788049
-0.00817168
-0.00837223
-0.00269139
-0.00288327
-0.00324594
-0.00355541
-0.00386248
-0.00415238
-0.00448483
-0.00482283
-0.00515096
-0.00543838
-0.00570167
-0.00600485
-0.00631274
-0.00662307
-0.00698509
-0.00734112
-0.00766717
-0.00798225
-0.00827177
-0.00849571
-0.00280295
-0.00300008
-0.00337111
-0.00369584
-0.0040192
-0.0043272
-0.00467953
-0.00502426
-0.00535168
-0.00564692
-0.00590204
-0.00619418
-0.00650738
-0.00678911
-0.00712069
-0.00748393
-0.00781257
-0.00811366
-0.00836615
-0.00854973
-0.00290753
-0.00311095
-0.00349437
-0.00383502
-0.00417489
-0.00450307
-0.00487906
-0.00523977
-0.00556216
-0.00584135
-0.0060692
-0.0062975
-0.00656973
-0.00683138
-0.00711349
-0.00746283
-0.00783131
-0.00821722
-0.00858941
-0.00889792
-0.00300502
-0.00321327
-0.00360844
-0.00396799
-0.00432476
-0.00467285
-0.00507697
-0.00547886
-0.00586348
-0.00619465
-0.00644885
-0.00662729
-0.00677135
-0.00692815
-0.00709208
-0.00728014
-0.00743727
-0.00754383
-0.0076354
-0.00774725
-0.00309599
-0.00331431
-0.00372101
-0.00409486
-0.00446659
-0.00482765
-0.00523209
-0.00559751
-0.00591673
-0.00617761
-0.00637625
-0.00657557
-0.00679202
-0.00702414
-0.00727637
-0.00759126
-0.00797268
-0.00836795
-0.00875972
-0.00910872
-0.00316302
-0.00338105
-0.00380701
-0.00420718
-0.00460723
-0.00500204
-0.00545051
-0.00585454
-0.00616113
-0.00638557
-0.00654277
-0.00669504
-0.0068862
-0.00707952
-0.00723006
-0.00734461
-0.00744884
-0.00754611
-0.00765265
-0.00781406
-0.00323841
-0.00347348
-0.00390196
-0.00429945
-0.00469846
-0.00509166
-0.00553534
-0.00596029
-0.0063477
-0.00668465
-0.00691606
-0.00701651
-0.00706991
-0.00714876
-0.00723387
-0.00734781
-0.00752988
-0.00778036
-0.00806031
-0.00836094
0.028257
0.0183143
0.00552553
-0.0025315
-0.00505235
-0.00490166
-0.00426577
-0.00397975
-0.00428451
-0.00515064
-0.00633517
-0.00745674
-0.00821393
-0.00867759
-0.00919744
-0.0098749
-0.0105632
-0.0111769
-0.0116034
-0.0118801
-0.0122644
-0.0127986
-0.0132719
-0.0136782
-0.0141815
-0.0147366
-0.0152853
-0.0158411
-0.0163385
-0.0167892
-0.0173053
-0.0179604
-0.0187682
-0.0196235
-0.0203518
-0.0209043
-0.021393
-0.0219183
-0.0224774
-0.0230683
-0.0236967
-0.0243408
-0.0249465
-0.0255856
-0.0262911
-0.0269418
-0.0275587
-0.0282338
-0.0289183
-0.0295832
-0.0302766
-0.0310061
-0.0317467
-0.0324765
-0.0332191
-0.0339702
-0.0347226
-0.0354736
-0.036231
-0.0370201
-0.0378495
-0.0387083
-0.0395603
-0.0404019
-0.041272
-0.0421491
-0.0430355
-0.0439677
-0.0449159
-0.0458415
-0.046799
-0.0478072
-0.0488437
-0.0498703
-0.0508932
-0.0519208
-0.0529908
-0.0540975
-0.0552312
-0.0563655
-0.0575478
-0.0587599
-0.0599858
-0.0612192
-0.0624486
-0.0637111
-0.0649894
-0.0663355
-0.0676314
-0.0689903
-0.0703913
-0.0718666
-0.073299
-0.0747091
-0.0761566
-0.0775306
-0.079021
-0.0804752
-0.0815005
-0.0825953
0.0267772
0.0181745
0.0056278
-0.0024159
-0.00497961
-0.00486265
-0.00424047
-0.0039595
-0.0042669
-0.00513561
-0.00632368
-0.00744888
-0.0082084
-0.00867286
-0.00919289
-0.00987075
-0.0105595
-0.0111738
-0.0116008
-0.0118772
-0.0122613
-0.0127959
-0.0132694
-0.0136756
-0.014179
-0.0147342
-0.015283
-0.015839
-0.0163367
-0.0167874
-0.0173035
-0.0179586
-0.0187666
-0.0196222
-0.0203507
-0.0209033
-0.021392
-0.0219173
-0.0224765
-0.0230675
-0.0236959
-0.0243401
-0.0249458
-0.0255849
-0.0262905
-0.0269413
-0.0275582
-0.0282333
-0.0289178
-0.0295828
-0.0302762
-0.0310057
-0.0317463
-0.0324762
-0.0332188
-0.0339699
-0.0347223
-0.0354733
-0.0362307
-0.0370198
-0.0378492
-0.0387081
-0.0395601
-0.0404016
-0.0412718
-0.0421489
-0.0430353
-0.0439675
-0.0449156
-0.0458413
-0.0467988
-0.047807
-0.0488435
-0.0498701
-0.050893
-0.0519206
-0.0529906
-0.0540973
-0.055231
-0.0563653
-0.0575477
-0.0587598
-0.0599856
-0.061219
-0.0624485
-0.063711
-0.0649892
-0.0663353
-0.0676313
-0.0689902
-0.0703911
-0.0718665
-0.0732989
-0.074709
-0.0761565
-0.0775305
-0.0790209
-0.0804751
-0.0815003
-0.082595
0.0257661
0.0181813
0.00589638
-0.0021785
-0.00485656
-0.00481175
-0.00421976
-0.00394833
-0.00425769
-0.00512504
-0.00631109
-0.00743649
-0.00819879
-0.00866641
-0.00918862
-0.00986742
-0.0105563
-0.011171
-0.0115985
-0.011875
-0.012259
-0.0127938
-0.0132674
-0.0136735
-0.014177
-0.0147324
-0.0152812
-0.0158374
-0.0163351
-0.0167858
-0.0173018
-0.0179569
-0.0187651
-0.0196213
-0.02035
-0.0209025
-0.021391
-0.0219164
-0.0224757
-0.0230667
-0.0236952
-0.0243395
-0.0249453
-0.0255843
-0.0262901
-0.0269409
-0.0275577
-0.0282329
-0.0289175
-0.0295824
-0.0302758
-0.0310054
-0.031746
-0.0324759
-0.0332185
-0.0339696
-0.0347221
-0.0354731
-0.0362305
-0.0370196
-0.037849
-0.0387079
-0.0395599
-0.0404014
-0.0412716
-0.0421487
-0.0430351
-0.0439673
-0.0449155
-0.0458411
-0.0467986
-0.0478069
-0.0488434
-0.0498699
-0.0508929
-0.0519204
-0.0529905
-0.0540972
-0.0552309
-0.0563652
-0.0575475
-0.0587597
-0.0599855
-0.0612189
-0.0624484
-0.0637109
-0.0649891
-0.0663352
-0.0676312
-0.0689901
-0.070391
-0.0718664
-0.0732988
-0.0747089
-0.0761564
-0.0775304
-0.0790208
-0.0804751
-0.0815003
-0.0825947
0.0247392
0.0181125
0.00618469
-0.00189938
-0.00470177
-0.00474502
-0.00419253
-0.00393554
-0.00424977
-0.00511602
-0.00629624
-0.00741679
-0.00818039
-0.00865419
-0.00918222
-0.00986332
-0.0105518
-0.0111665
-0.0115952
-0.0118727
-0.012257
-0.0127916
-0.0132651
-0.0136714
-0.0141754
-0.014731
-0.0152795
-0.0158356
-0.0163334
-0.0167841
-0.0173
-0.017955
-0.0187635
-0.0196202
-0.0203493
-0.0209016
-0.02139
-0.0219153
-0.0224747
-0.0230659
-0.0236945
-0.0243388
-0.0249446
-0.0255837
-0.0262896
-0.0269405
-0.0275572
-0.0282324
-0.0289171
-0.029582
-0.0302754
-0.031005
-0.0317457
-0.0324756
-0.0332182
-0.0339693
-0.0347218
-0.0354728
-0.0362302
-0.0370193
-0.0378487
-0.0387077
-0.0395597
-0.0404012
-0.0412714
-0.0421485
-0.0430349
-0.0439671
-0.0449153
-0.045841
-0.0467984
-0.0478067
-0.0488432
-0.0498698
-0.0508927
-0.0519203
-0.0529903
-0.054097
-0.0552308
-0.056365
-0.0575474
-0.0587595
-0.0599854
-0.0612188
-0.0624482
-0.0637108
-0.064989
-0.0663352
-0.0676311
-0.06899
-0.0703909
-0.0718663
-0.0732987
-0.0747089
-0.0761564
-0.0775303
-0.0790208
-0.0804751
-0.0815004
-0.0825944
0.0236489
0.0179512
0.00648025
-0.00158977
-0.00452482
-0.00466619
-0.0041599
-0.0039209
-0.00424232
-0.0051084
-0.00627952
-0.0073896
-0.00815234
-0.00863497
-0.00917251
-0.00985763
-0.0105455
-0.0111596
-0.0115903
-0.0118703
-0.0122551
-0.0127887
-0.0132618
-0.0136689
-0.014174
-0.01473
-0.0152781
-0.0158337
-0.0163314
-0.0167822
-0.017298
-0.0179528
-0.0187614
-0.0196187
-0.0203483
-0.0209005
-0.0213886
-0.0219139
-0.0224734
-0.0230648
-0.0236935
-0.0243379
-0.0249437
-0.0255829
-0.026289
-0.0269399
-0.0275566
-0.0282319
-0.0289166
-0.0295815
-0.030275
-0.0310046
-0.0317453
-0.0324752
-0.0332178
-0.033969
-0.0347215
-0.0354725
-0.0362299
-0.037019
-0.0378485
-0.0387074
-0.0395595
-0.040401
-0.0412711
-0.0421483
-0.0430347
-0.0439669
-0.0449151
-0.0458408
-0.0467982
-0.0478065
-0.0488431
-0.0498697
-0.0508926
-0.0519201
-0.0529901
-0.0540969
-0.0552306
-0.0563649
-0.0575472
-0.0587594
-0.0599853
-0.0612187
-0.0624481
-0.0637106
-0.0649889
-0.0663351
-0.067631
-0.0689899
-0.0703908
-0.0718662
-0.0732987
-0.0747088
-0.0761563
-0.0775302
-0.0790207
-0.0804753
-0.0815007
-0.082594
0.0225378
0.0177332
0.0067958
-0.00124982
-0.00433427
-0.0045829
-0.00412657
-0.00390655
-0.00423519
-0.00510123
-0.00626191
-0.00735858
-0.00811858
-0.00861091
-0.0091599
-0.00984997
-0.0105369
-0.0111501
-0.0115838
-0.0118682
-0.0122536
-0.0127848
-0.0132568
-0.0136654
-0.0141724
-0.0147293
-0.0152771
-0.015832
-0.0163296
-0.0167806
-0.0172962
-0.0179502
-0.0187586
-0.0196167
-0.0203468
-0.0208989
-0.0213867
-0.021912
-0.0224718
-0.0230634
-0.0236921
-0.0243367
-0.0249426
-0.0255818
-0.0262882
-0.0269391
-0.0275558
-0.0282312
-0.028916
-0.0295809
-0.0302744
-0.0310041
-0.0317449
-0.0324748
-0.0332174
-0.0339687
-0.0347212
-0.0354722
-0.0362296
-0.0370187
-0.0378482
-0.0387072
-0.0395593
-0.0404008
-0.0412709
-0.0421481
-0.0430344
-0.0439667
-0.044915
-0.0458406
-0.046798
-0.0478063
-0.0488429
-0.0498695
-0.0508924
-0.0519199
-0.0529899
-0.0540967
-0.0552305
-0.0563647
-0.0575471
-0.0587593
-0.0599852
-0.0612186
-0.062448
-0.0637105
-0.0649888
-0.066335
-0.0676309
-0.0689897
-0.0703907
-0.0718661
-0.0732986
-0.0747087
-0.0761563
-0.0775302
-0.0790207
-0.0804755
-0.0815012
-0.0825936
0.0214349
0.017463
0.00712119
-0.000892628
-0.00413903
-0.0045002
-0.00409506
-0.00389336
-0.00422782
-0.00509339
-0.00624362
-0.00732625
-0.00808291
-0.0085851
-0.00914587
-0.0098408
-0.0105264
-0.0111386
-0.0115763
-0.0118666
-0.0122529
-0.0127802
-0.0132503
-0.0136604
-0.0141698
-0.0147282
-0.0152759
-0.0158302
-0.0163282
-0.0167799
-0.0172952
-0.0179479
-0.0187555
-0.0196139
-0.0203447
-0.0208968
-0.0213842
-0.0219094
-0.0224696
-0.0230616
-0.0236904
-0.024335
-0.0249411
-0.0255805
-0.0262869
-0.0269379
-0.0275548
-0.0282304
-0.0289151
-0.0295801
-0.0302738
-0.0310035
-0.0317443
-0.0324743
-0.0332169
-0.0339682
-0.0347207
-0.0354718
-0.0362291
-0.0370183
-0.0378478
-0.0387069
-0.039559
-0.0404005
-0.0412707
-0.0421478
-0.0430342
-0.0439665
-0.0449148
-0.0458403
-0.0467977
-0.0478061
-0.0488427
-0.0498693
-0.0508922
-0.0519197
-0.0529897
-0.0540965
-0.0552303
-0.0563646
-0.0575469
-0.0587591
-0.059985
-0.0612184
-0.0624479
-0.0637104
-0.0649886
-0.0663349
-0.0676308
-0.0689896
-0.0703906
-0.0718661
-0.0732985
-0.0747086
-0.0761562
-0.0775301
-0.0790207
-0.0804759
-0.081502
-0.0825932
0.0203533
0.0171287
0.00743828
-0.000524629
-0.00393954
-0.00441724
-0.00406438
-0.00388067
-0.00421963
-0.00508461
-0.006225
-0.00729369
-0.00804668
-0.00855864
-0.00913115
-0.00983067
-0.0105147
-0.0111258
-0.0115684
-0.0118658
-0.012253
-0.0127755
-0.0132426
-0.013654
-0.0141659
-0.0147262
-0.0152741
-0.0158278
-0.0163268
-0.0167802
-0.0172954
-0.0179464
-0.0187525
-0.0196107
-0.0203421
-0.0208942
-0.021381
-0.021906
-0.0224668
-0.0230594
-0.0236882
-0.0243328
-0.0249393
-0.025579
-0.0262853
-0.0269363
-0.0275535
-0.0282292
-0.028914
-0.0295791
-0.0302728
-0.0310026
-0.0317435
-0.0324736
-0.0332163
-0.0339677
-0.0347202
-0.0354712
-0.0362286
-0.0370178
-0.0378474
-0.0387065
-0.0395587
-0.0404002
-0.0412704
-0.0421475
-0.0430339
-0.0439662
-0.0449145
-0.0458401
-0.0467975
-0.0478059
-0.0488426
-0.0498691
-0.050892
-0.0519195
-0.0529895
-0.0540963
-0.0552301
-0.0563644
-0.0575467
-0.058759
-0.0599849
-0.0612183
-0.0624477
-0.0637102
-0.0649884
-0.0663347
-0.0676307
-0.0689894
-0.0703904
-0.071866
-0.0732984
-0.0747085
-0.0761562
-0.07753
-0.0790208
-0.0804764
-0.0815031
-0.0825928
0.0192985
0.0167219
0.00773887
-0.000144422
-0.00373099
-0.00433156
-0.00403351
-0.00386843
-0.00421103
-0.00507525
-0.00620639
-0.0072613
-0.00801018
-0.00853159
-0.00911585
-0.00981993
-0.0105022
-0.0111124
-0.0115603
-0.0118655
-0.012254
-0.0127711
-0.0132345
-0.0136469
-0.0141611
-0.0147232
-0.0152714
-0.0158247
-0.0163253
-0.0167812
-0.0172971
-0.0179462
-0.0187502
-0.0196077
-0.0203393
-0.0208912
-0.0213772
-0.0219017
-0.0224633
-0.0230566
-0.0236853
-0.02433
-0.0249373
-0.0255772
-0.0262832
-0.0269342
-0.0275519
-0.0282277
-0.0289124
-0.0295778
-0.0302717
-0.0310014
-0.0317423
-0.0324726
-0.0332155
-0.033967
-0.0347195
-0.0354705
-0.0362279
-0.0370172
-0.0378469
-0.038706
-0.0395583
-0.0403999
-0.0412701
-0.0421472
-0.0430336
-0.0439659
-0.0449142
-0.0458398
-0.0467973
-0.0478057
-0.0488424
-0.0498689
-0.0508918
-0.0519193
-0.0529893
-0.054096
-0.0552299
-0.0563642
-0.0575465
-0.0587588
-0.0599847
-0.0612181
-0.0624475
-0.06371
-0.0649882
-0.0663346
-0.0676305
-0.0689893
-0.0703903
-0.0718659
-0.0732983
-0.0747084
-0.0761562
-0.07753
-0.0790209
-0.0804771
-0.0815046
-0.0825926
0.018279
0.0162459
0.00801814
0.000248666
-0.00351058
-0.00424237
-0.00400225
-0.0038571
-0.00420272
-0.00506559
-0.00618786
-0.00722913
-0.00797341
-0.00850394
-0.00910007
-0.00980886
-0.0104894
-0.0110987
-0.0115523
-0.0118657
-0.0122556
-0.0127671
-0.0132266
-0.0136396
-0.0141558
-0.0147197
-0.0152681
-0.015821
-0.0163236
-0.0167829
-0.0173001
-0.0179475
-0.018749
-0.0196054
-0.0203368
-0.020888
-0.0213729
-0.0218968
-0.0224591
-0.0230534
-0.0236819
-0.0243268
-0.0249351
-0.0255755
-0.0262808
-0.0269318
-0.0275499
-0.0282258
-0.0289105
-0.0295762
-0.0302704
-0.0309998
-0.0317408
-0.0324712
-0.0332144
-0.0339662
-0.0347187
-0.0354697
-0.0362271