/*--------------------------------*- C++ -*----------------------------------*\
| =========                 |                                                 |
| \\      /  F ield         | OpenFOAM: The Open Source CFD Toolbox           |
|  \\    /   O peration     | Version:  v1912                                 |
|   \\  /    A nd           | Website:  www.openfoam.com                      |
|    \\/     M anipulation  |                                                 |
\*---------------------------------------------------------------------------*/
FoamFile
{
    version     2.0;
    format      ascii;
    class       volScalarField;
    location    "7.15";
    object      p;
}
// * * * * * * * * * * * * * * * * * * * * * * * * * * * * * * * * * * * * * //

dimensions      [0 2 -2 0 0 0 0];


internalField   nonuniform List<scalar> 
9600
(
-8.21619e-11
0.00968971
0.00776509
0.00760594
0.00485781
0.0132502
0.0138618
0.0125393
0.0121626
0.0136316
0.0140727
0.0170318
0.0144692
0.0158343
0.0158653
0.0152262
0.016381
0.0176406
0.0192494
0.022357
-2.94253e-07
0.0097192
0.00775847
0.00747498
0.00487487
0.0133152
0.0138154
0.0125338
0.0121811
0.0136756
0.0140663
0.0169707
0.0144777
0.0158353
0.0158678
0.0152408
0.0163791
0.0176364
0.0192712
0.0220287
2.82824e-06
0.00974709
0.00773248
0.00739579
0.00491477
0.0133352
0.0137491
0.012541
0.0121971
0.0137
0.0140501
0.0168816
0.0145029
0.0158236
0.0158807
0.0152681
0.0163746
0.0176304
0.0192579
0.0216715
1.21979e-05
0.00976322
0.00769968
0.00734349
0.00498527
0.0133273
0.013676
0.0125566
0.0122075
0.0137315
0.014029
0.016768
0.0145326
0.0157949
0.0158957
0.0153017
0.016361
0.0176148
0.0192169
0.0213334
3.13356e-05
0.00976708
0.00766119
0.00732642
0.00509688
0.0132792
0.0135964
0.0125804
0.0122168
0.0137654
0.0140053
0.0166295
0.0145624
0.0157514
0.0159095
0.0153366
0.0163418
0.0175921
0.0191629
0.0210069
6.38282e-05
0.00975654
0.00761762
0.00735245
0.00525312
0.0131841
0.0135143
0.0126172
0.0122304
0.0137973
0.013981
0.0164732
0.0145904
0.0156977
0.0159234
0.0153712
0.0163232
0.0175676
0.019095
0.0206841
0.000111303
0.00973033
0.00757229
0.00741726
0.00544451
0.0130485
0.0134407
0.0126692
0.0122537
0.0138257
0.0139596
0.0163121
0.0146152
0.0156388
0.0159387
0.0154061
0.0163078
0.0175411
0.0190088
0.0203677
0.000172952
0.0096901
0.00752956
0.00750805
0.0056523
0.012886
0.0133849
0.012733
0.0122872
0.0138514
0.0139467
0.0161574
0.014637
0.0155788
0.0159553
0.0154419
0.0162937
0.0175109
0.0189059
0.020063
0.000245978
0.00963964
0.00749362
0.00761125
0.00585679
0.0127118
0.013348
0.0128012
0.0123269
0.0138743
0.0139469
0.0160166
0.0146578
0.0155199
0.0159722
0.0154785
0.0162784
0.017478
0.0187892
0.0197679
0.000327013
0.00958361
0.00746799
0.00771858
0.00604487
0.0125376
0.0133252
0.0128659
0.0123643
0.013893
0.0139621
0.015893
0.0146792
0.0154626
0.015988
0.0155149
0.0162603
0.0174433
0.0186587
0.0194784
0.000413418
0.00952657
0.00745505
0.00782773
0.0062116
0.0123704
0.0133113
0.0129222
0.0123908
0.0139059
0.0139911
0.0157851
0.0147011
0.0154068
0.0160009
0.0155492
0.0162365
0.0174051
0.0185146
0.0191942
0.000503647
0.00947166
0.00745552
0.00793933
0.00635772
0.0122132
0.0133037
0.0129685
0.0124017
0.0139122
0.0140298
0.0156878
0.0147218
0.0153531
0.0160094
0.0155789
0.0162041
0.0173617
0.0183603
0.0189163
0.000597024
0.00942012
0.00746847
0.0080537
0.00648686
0.0120665
0.0133017
0.0130063
0.0123975
0.0139122
0.0140738
0.0155958
0.0147401
0.0153027
0.0160132
0.0156026
0.0161618
0.0173123
0.0181998
0.0186431
0.000693351
0.00937165
0.00749186
0.00816947
0.00660372
0.0119291
0.0133046
0.0130379
0.0123818
0.0139067
0.0141198
0.0155059
0.0147554
0.0152569
0.0160125
0.0156212
0.0161102
0.0172563
0.0180366
0.0183726
0.000792656
0.00932517
0.00752333
0.00828417
0.00671298
0.0117987
0.0133107
0.0130654
0.0123589
0.0138969
0.0141661
0.015417
0.0147676
0.0152162
0.0160076
0.0156365
0.0160507
0.0171925
0.0178732
0.0181036
0.000895092
0.00927973
0.00756092
0.0083956
0.00681869
0.0116737
0.0133178
0.0130898
0.0123325
0.0138833
0.0142122
0.0153289
0.0147762
0.0151801
0.0159981
0.0156495
0.0159852
0.0171198
0.0177119
0.0178357
0.00100082
0.00923475
0.00760334
0.00850259
0.00692392
0.0115528
0.0133245
0.013112
0.0123054
0.0138664
0.0142575
0.0152419
0.0147807
0.0151481
0.0159834
0.0156605
0.015915
0.0170371
0.0175541
0.0175698
0.00110999
0.00918995
0.00764987
0.00860472
0.00703079
0.0114356
0.0133296
0.0131324
0.012279
0.0138464
0.0143018
0.0151563
0.0147804
0.0151196
0.0159632
0.0156694
0.0158412
0.0169434
0.0174007
0.0173074
0.00122272
0.00914517
0.00770018
0.00870196
0.00714061
0.011322
0.0133329
0.0131511
0.0122543
0.0138238
0.0143446
0.0150722
0.0147746
0.015094
0.0159378
0.0156757
0.0157644
0.0168381
0.017252
0.0170508
0.00133913
0.0091004
0.00775421
0.00879426
0.007254
0.0112124
0.0133338
0.0131683
0.0122313
0.0137986
0.0143852
0.0149899
0.0147631
0.0150709
0.0159073
0.015679
0.0156854
0.0167209
0.0171081
0.016803
0.00145935
0.00905564
0.00781204
0.00888148
0.0073711
0.0111069
0.0133322
0.013184
0.0122099
0.0137711
0.014424
0.0149097
0.0147455
0.0150499
0.0158718
0.0156786
0.015605
0.0165919
0.0169681
0.0165675
0.0015835
0.00901094
0.00787387
0.00896343
0.0074917
0.0110062
0.0133276
0.0131981
0.0121899
0.0137412
0.0144605
0.014832
0.0147217
0.0150305
0.0158314
0.0156738
0.0155244
0.0164512
0.0168311
0.0163485
0.00171166
0.0089663
0.00793993
0.00903987
0.00761529
0.0109105
0.0133197
0.0132106
0.0121711
0.0137089
0.0144948
0.014757
0.0146914
0.0150127
0.015786
0.0156638
0.0154452
0.0162991
0.0166952
0.0161501
0.00184396
0.00892172
0.00801039
0.00911049
0.00774124
0.0108203
0.0133079
0.0132218
0.0121535
0.0136741
0.0145269
0.0146851
0.0146543
0.0149964
0.0157358
0.0156471
0.0153695
0.0161368
0.0165571
0.0159754
0.00198054
0.00887719
0.00808536
0.00917503
0.00786873
0.010736
0.0132918
0.0132319
0.0121368
0.0136365
0.014557
0.0146167
0.0146097
0.0149817
0.0156816
0.015622
0.0152991
0.0159669
0.0164119
0.0158254
0.0021215
0.00883266
0.00816493
0.00923337
0.00799682
0.0106582
0.013271
0.013241
0.0121212
0.0135959
0.0145853
0.0145524
0.0145571
0.0149681
0.0156248
0.0155865
0.0152346
0.0157941
0.0162549
0.0156973
0.00226698
0.00878807
0.00824912
0.00928555
0.00812456
0.0105872
0.0132449
0.0132495
0.0121068
0.0135517
0.0146118
0.0144932
0.0144959
0.0149547
0.0155679
0.015539
0.0151745
0.0156238
0.0160829
0.0155836
0.00241716
0.00874344
0.0083378
0.00933181
0.00825094
0.0105236
0.0132133
0.0132574
0.0120938
0.0135033
0.0146362
0.0144401
0.0144257
0.0149395
0.0155133
0.0154792
0.0151156
0.0154616
0.0158971
0.0154733
0.00257218
0.00869872
0.00843085
0.00937275
0.0083748
0.0104679
0.0131762
0.0132645
0.0120825
0.0134504
0.014658
0.0143941
0.0143466
0.0149201
0.0154631
0.0154083
0.0150542
0.0153116
0.0157033
0.0153545
0.00273222
0.00865393
0.008528
0.00940917
0.00849502
0.0104203
0.0131338
0.0132708
0.0120731
0.0133927
0.0146762
0.014356
0.0142594
0.0148941
0.0154188
0.0153286
0.0149866
0.0151756
0.0155101
0.0152192
0.00289751
0.00860913
0.00862875
0.00944206
0.00861042
0.010381
0.0130864
0.013276
0.0120658
0.01333
0.0146903
0.0143263
0.0141647
0.014859
0.0153816
0.0152432
0.014909
0.015052
0.0153262
0.0150683
0.00306823
0.00856442
0.00873247
0.00947266
0.00871996
0.0103501
0.0130346
0.0132801
0.0120609
0.0132619
0.0146992
0.0143058
0.0140633
0.0148119
0.0153524
0.0151571
0.0148187
0.0149355
0.0151582
0.0149122
0.00324458
0.00851996
0.00883829
0.00950234
0.00882288
0.010327
0.0129792
0.013283
0.0120586
0.013188
0.0147019
0.0142952
0.0139566
0.0147497
0.0153303
0.0150755
0.0147155
0.0148206
0.0150075
0.0147627
0.00342677
0.00847596
0.00894525
0.00953251
0.00891869
0.0103111
0.0129212
0.0132847
0.0120595
0.0131083
0.0146969
0.014295
0.0138467
0.0146701
0.0153129
0.015002
0.0146012
0.014704
0.0148718
0.0146275
0.00361495
0.00843267
0.00905239
0.00956461
0.00900716
0.0103017
0.0128615
0.0132854
0.0120639
0.0130228
0.0146826
0.0143051
0.0137357
0.0145711
0.0152984
0.0149409
0.0144767
0.0145831
0.01475
0.01451
0.00380925
0.00839048
0.00915858
0.0095999
0.00908831
0.0102977
0.0128005
0.013285
0.0120725
0.0129319
0.014657
0.0143263
0.0136269
0.014449
0.0152837
0.0148988
0.0143431
0.0144517
0.0146418
0.0144118
0.00400976
0.00834996
0.00926267
0.00963934
0.00916278
0.0102981
0.0127389
0.0132839
0.0120861
0.0128359
0.014617
0.0143583
0.0135263
0.0143008
0.0152603
0.0148827
0.0142076
0.0143012
0.0145444
0.0143364
0.00421649
0.00831166
0.00936358
0.00968357
0.00923153
0.0103022
0.012677
0.0132819
0.0121055
0.0127362
0.0145597
0.0143982
0.0134403
0.0141279
0.0152178
0.0148935
0.0140827
0.0141254
0.0144495
0.0142897
0.00442946
0.00827623
0.00946026
0.00973306
0.00929553
0.0103091
0.0126151
0.0132787
0.012131
0.0126348
0.0144835
0.0144424
0.0133732
0.0139344
0.0151477
0.0149276
0.0139821
0.0139241
0.0143434
0.0142736
0.00464853
0.00824456
0.00955162
0.00978783
0.00935614
0.0103181
0.0125544
0.0132744
0.0121632
0.0125329
0.0143871
0.0144874
0.0133302
0.0137252
0.0150398
0.0149756
0.0139198
0.0137084
0.0142129
0.0142809
0.00487356
0.00821737
0.00963665
0.00984798
0.00941432
0.0103288
0.0124995
0.0132679
0.0122034
0.0124334
0.0142682
0.0145277
0.0133159
0.0135109
0.0148858
0.0150207
0.0139015
0.0134949
0.0140526
0.0143022
0.00510435
0.00819555
0.00971437
0.00991354
0.00947109
0.0103404
0.0124347
0.0132585
0.0122498
0.0123395
0.0141284
0.0145564
0.0133304
0.0133015
0.0146874
0.0150482
0.0139228
0.0132967
0.0138596
0.0143284
0.00534053
0.00818
0.00978394
0.00998462
0.00952771
0.0103522
0.0123702
0.0132469
0.0123013
0.0122529
0.0139719
0.0145684
0.0133709
0.0131083
0.0144496
0.0150442
0.0139791
0.0131248
0.0136224
0.0143476
0.00558175
0.00817166
0.00984436
0.0100631
0.00958473
0.0103633
0.012307
0.0132313
0.0123575
0.0121754
0.013801
0.0145616
0.0134284
0.0129477
0.014188
0.0149979
0.0140815
0.0130328
0.0133535
0.0142431
0.00582743
0.00817154
0.00989489
0.0101453
0.0096438
0.0103732
0.0122455
0.013212
0.0124166
0.0121104
0.0136208
0.0145296
0.0134996
0.0128231
0.0139178
0.0149182
0.0142067
0.0130074
0.0130698
0.0140141
0.00607697
0.0081804
0.00993517
0.0102314
0.00970661
0.0103806
0.0121864
0.0131901
0.0124746
0.0120598
0.0134363
0.0144702
0.0135796
0.0127346
0.0136508
0.0148058
0.0143268
0.0130309
0.0128095
0.0136741
0.00632963
0.00819938
0.00996482
0.0103215
0.00977449
0.0103852
0.0121289
0.0131655
0.0125318
0.0120222
0.013252
0.0143884
0.0136549
0.0126832
0.0133988
0.0146377
0.0143887
0.0130708
0.0125684
0.0133458
0.00658438
0.00822926
0.00998395
0.0104144
0.00985005
0.0103866
0.0120704
0.0131409
0.0125898
0.0119949
0.0130718
0.0142848
0.0137257
0.0126657
0.0131675
0.0144288
0.0144246
0.0131601
0.0124088
0.0129408
0.00684021
0.00827098
0.00999313
0.0105082
0.00993536
0.0103842
0.0120103
0.0131176
0.012646
0.0119794
0.0129006
0.0141572
0.0137823
0.0126813
0.012959
0.0141681
0.0143941
0.0132716
0.0123189
0.0125969
0.00709594
0.00832537
0.00999358
0.0106001
0.010032
0.0103802
0.0119447
0.0130944
0.0127044
0.0119774
0.0127331
0.0140031
0.013826
0.0127297
0.0127653
0.0138681
0.0143051
0.0133803
0.0123179
0.0123516
0.00735014
0.00839305
0.00998712
0.0106872
0.0101412
0.0103767
0.0118698
0.013071
0.0127692
0.0119848
0.0125686
0.0138317
0.0138531
0.0127926
0.0125998
0.0135625
0.0141557
0.013466
0.0123881
0.0122044
0.00760167
0.00847468
0.00997591
0.0107666
0.0102625
0.0103769
0.0117848
0.0130439
0.0128387
0.0120063
0.0124111
0.0136386
0.0138475
0.0128748
0.0124868
0.0132603
0.0139452
0.0135198
0.0125073
0.0121383
0.00784921
0.00857047
0.0099629
0.0108353
0.010394
0.0103858
0.0116893
0.0130064
0.0129129
0.0120473
0.0122617
0.0134227
0.0138116
0.012973
0.0124229
0.0129745
0.0136938
0.0135286
0.0126475
0.0121358
0.00809152
0.00868044
0.00995103
0.010891
0.0105333
0.010408
0.0115847
0.0129525
0.0129881
0.0121095
0.0121278
0.0131933
0.0137384
0.0130675
0.0124114
0.0127351
0.0134201
0.0134708
0.0127808
0.0121898
0.00832755
0.00880399
0.00994396
0.0109321
0.0106755
0.0104483
0.0114753
0.0128739
0.0130578
0.0121967
0.0120203
0.0129558
0.0136242
0.0131501
0.012447
0.0125526
0.0131401
0.0133437
0.0128874
0.012297
0.00855638
0.00894027
0.00994506
0.0109576
0.0108155
0.01051
0.0113665
0.0127671
0.0131131
0.0123059
0.0119493
0.0127201
0.0134712
0.0132072
0.0125111
0.0124299
0.012887
0.0131665
0.0129355
0.0124351
0.00877722
0.0090878
0.00995738
0.0109682
0.0109474
0.0105942
0.0112662
0.0126315
0.0131423
0.0124303
0.0119252
0.0125018
0.0132824
0.0132251
0.0125939
0.0123643
0.012681
0.0129683
0.0129034
0.0125656
0.00898932
0.00924465
0.00998371
0.0109656
0.0110655
0.0107002
0.0111826
0.0124705
0.0131364
0.0125609
0.0119483
0.012318
0.0130706
0.0131947
0.0126817
0.0123444
0.0125197
0.0127813
0.0128116
0.0126488
0.00919241
0.00940798
0.0100256
0.0109536
0.0111647
0.0108236
0.0111243
0.0122895
0.0130879
0.0126838
0.0120123
0.0121806
0.0128547
0.0131145
0.0127536
0.0123637
0.0123998
0.0126251
0.0127019
0.0126595
0.00938664
0.00957456
0.0100835
0.0109379
0.0112411
0.0109562
0.0111
0.0121052
0.0129918
0.012784
0.0121124
0.0120944
0.0126524
0.012995
0.0127905
0.012414
0.0123244
0.0124898
0.0125976
0.0126196
0.00957199
0.0097416
0.0101567
0.0109237
0.0112943
0.0110864
0.0111139
0.0119389
0.0128523
0.012844
0.0122356
0.0120604
0.012476
0.0128511
0.0127845
0.0124734
0.0122977
0.0123729
0.0125024
0.0125698
0.00974861
0.00990614
0.0102437
0.0109157
0.0113268
0.0112042
0.0111626
0.0118028
0.012683
0.0128534
0.0123596
0.0120736
0.0123382
0.0127004
0.0127405
0.0125156
0.012312
0.0122903
0.0124073
0.0125225
0.00991707
0.0100655
0.0103419
0.0109176
0.0113431
0.0113048
0.0112338
0.0117072
0.0125112
0.0128156
0.0124636
0.0121237
0.012247
0.0125584
0.0126701
0.0125275
0.0123423
0.0122557
0.0123191
0.0124675
0.0100777
0.0102179
0.0104479
0.010932
0.011349
0.0113859
0.0113167
0.0116799
0.0123563
0.0127409
0.0125352
0.0121916
0.0121979
0.012437
0.0125861
0.0125148
0.0123663
0.0122615
0.0122623
0.0124061
0.0102309
0.0103622
0.0105576
0.0109596
0.0113502
0.0114472
0.0113989
0.0116589
0.0122256
0.0126436
0.0125711
0.0122624
0.0121839
0.0123437
0.0125002
0.0124853
0.0123735
0.0122819
0.012247
0.0123533
0.0103768
0.0104979
0.0106677
0.0109998
0.0113515
0.0114909
0.0114744
0.0116633
0.0121247
0.0125387
0.0125723
0.0123266
0.0121989
0.0122809
0.0124205
0.012446
0.0123659
0.0122946
0.0122581
0.0123272
0.0105154
0.0106248
0.0107755
0.0110511
0.011356
0.0115201
0.0115399
0.0116844
0.0120543
0.0124402
0.0125467
0.0123731
0.0122324
0.0122487
0.0123531
0.0124031
0.0123513
0.012295
0.0122758
0.0123296
0.0106465
0.0107427
0.0108785
0.0111106
0.0113668
0.0115388
0.011593
0.0117148
0.0120109
0.0123579
0.012506
0.0123991
0.0122725
0.0122451
0.0123036
0.0123609
0.0123368
0.0122894
0.0122859
0.0123436
0.0107698
0.0108523
0.010975
0.0111746
0.0113844
0.0115519
0.0116346
0.0117475
0.01199
0.0122944
0.0124618
0.0124094
0.0123087
0.0122625
0.0122782
0.0123252
0.0123259
0.012287
0.0122893
0.0123569
0.0108849
0.010953
0.0110637
0.0112409
0.0114087
0.0115618
0.0116657
0.0117807
0.011986
0.0122483
0.0124199
0.0124113
0.0123386
0.0122911
0.0122783
0.0123028
0.012319
0.0122923
0.0122947
0.0123684
0.010991
0.0110458
0.0111436
0.0113055
0.0114393
0.0115721
0.0116869
0.0118117
0.0119961
0.0122195
0.0123833
0.0124099
0.0123647
0.0123243
0.0122993
0.0122999
0.0123189
0.0123069
0.0123087
0.0123811
0.011087
0.0111296
0.0112151
0.0113657
0.0114734
0.0115854
0.0117021
0.0118347
0.0120134
0.0122075
0.0123566
0.0124093
0.01239
0.01236
0.0123365
0.0123208
0.0123323
0.0123305
0.0123342
0.0124017
0.0111719
0.0112049
0.0112772
0.0114199
0.0115084
0.0116004
0.0117154
0.0118542
0.0120294
0.0122064
0.0123446
0.0124133
0.0124181
0.012401
0.0123866
0.012367
0.012368
0.0123691
0.0123764
0.0124381
0.011244
0.0112708
0.0113304
0.0114655
0.0115428
0.0116184
0.0117256
0.0118714
0.0120463
0.0122074
0.0123427
0.0124253
0.0124499
0.0124503
0.01245
0.01244
0.0124373
0.0124393
0.0124515
0.0125092
0.011301
0.0113252
0.0113762
0.0115027
0.0115721
0.0116385
0.0117361
0.0118819
0.0120627
0.0122121
0.0123384
0.0124345
0.0124738
0.0124938
0.0125082
0.0125055
0.0125068
0.0125141
0.0125456
0.0126232
0.0113428
0.0113698
0.0114122
0.0115339
0.0115997
0.0116573
0.0117482
0.011897
0.0120923
0.0122587
0.0124011
0.0125328
0.012613
0.0126665
0.0127031
0.0126888
0.0126436
0.0125762
0.0125196
0.0125069
0.0113669
0.0113849
0.0114238
0.0115487
0.0116269
0.0116753
0.0117289
0.0118281
0.0119528
0.01207
0.0122203
0.0124161
0.0125928
0.0127396
0.0128877
0.0130221
0.0131847
0.0133785
0.0135873
0.0137632
0.0113804
0.0114016
0.0114533
0.0115767
0.0116598
0.0117213
0.0118037
0.011954
0.0121551
0.0123338
0.012486
0.0126355
0.0127497
0.012819
0.012886
0.0128892
0.0128294
0.0127327
0.0126313
0.0125694
0.0113105
0.0113311
0.0114285
0.0116094
0.0117184
0.0117737
0.0118394
0.0119597
0.0121076
0.0122595
0.0123894
0.0125091
0.0126597
0.0127913
0.0129655
0.0131818
0.0134012
0.0136138
0.013797
0.0139213
0.011317
0.0113403
0.0114482
0.0116322
0.011744
0.0118016
0.0118601
0.0119879
0.0121566
0.0123395
0.0125198
0.0126571
0.0128115
0.0129528
0.0130907
0.0132432
0.0133797
0.0134863
0.0135531
0.0135635
0.0255809
0.0202503
0.0123353
0.00637664
0.00489314
0.00600586
0.00756418
0.00891846
0.00990545
0.0104772
0.0107795
0.0110055
0.0112209
0.0114345
0.0115697
0.0116889
0.0120312
0.0124827
0.01275
0.0128899
0.0130772
0.0133897
0.0137802
0.0140937
0.014303
0.0145431
0.0148251
0.0150372
0.0152769
0.0156471
0.016006
0.016337
0.0167234
0.0171345
0.0174907
0.017748
0.0179614
0.0181783
0.018373
0.0185521
0.0188163
0.0191826
0.0195161
0.0198314
0.02018
0.0205214
0.020873
0.0212804
0.021757
0.0222376
0.0226154
0.0227944
0.0226985
0.0226055
0.0230181
0.0238475
0.0245717
0.0250805
0.0254993
0.0258941
0.026265
0.0266105
0.0270316
0.0275288
0.0279412
0.0283646
0.0288531
0.0293062
0.0298005
0.0303259
0.030816
0.0313228
0.0319351
0.0325041
0.0330708
0.0336408
0.0342457
0.0348478
0.0354645
0.0360938
0.036716
0.0373653
0.0380261
0.0387603
0.0394473
0.0401678
0.0408474
0.0415453
0.0422933
0.0430479
0.0438602
0.0446313
0.0454005
0.0462328
0.046987
0.0477997
0.0485974
0.0493942
0.0501501
0.0506678
0.0249051
0.0201011
0.0124221
0.00653933
0.00498904
0.0060476
0.00758871
0.0089368
0.00992053
0.0104897
0.0107897
0.0110138
0.0112278
0.0114404
0.0115747
0.0116927
0.0120345
0.0124862
0.0127534
0.0128927
0.0130796
0.0133917
0.0137823
0.0140957
0.0143047
0.0145446
0.0148267
0.0150386
0.0152781
0.0156483
0.0160072
0.0163381
0.0167244
0.0171355
0.0174917
0.0177491
0.0179623
0.0181793
0.018374
0.018553
0.0188171
0.0191835
0.019517
0.0198322
0.0201808
0.0205221
0.0208736
0.0212809
0.0217575
0.0222381
0.022616
0.0227952
0.0226992
0.0226058
0.0230183
0.0238478
0.0245721
0.0250809
0.0254996
0.0258944
0.0262654
0.0266108
0.0270318
0.0275291
0.0279415
0.0283649
0.0288534
0.0293064
0.0298007
0.0303261
0.0308162
0.031323
0.0319352
0.0325042
0.0330709
0.033641
0.0342459
0.034848
0.0354647
0.036094
0.0367162
0.0373655
0.0380262
0.0387604
0.0394475
0.0401679
0.0408476
0.0415454
0.0422934
0.043048
0.0438603
0.0446314
0.0454006
0.0462329
0.0469871
0.0477998
0.0485975
0.0493943
0.0501502
0.0506679
0.024283
0.0199149
0.0125718
0.00682822
0.00515742
0.00610873
0.00761516
0.00895385
0.00993408
0.0105016
0.0108005
0.0110234
0.0112359
0.0114472
0.0115803
0.0116968
0.0120377
0.0124893
0.0127562
0.0128953
0.0130819
0.0133937
0.0137842
0.0140975
0.0143062
0.0145459
0.0148281
0.0150398
0.015279
0.0156492
0.0160082
0.0163389
0.0167252
0.0171363
0.0174927
0.01775
0.017963
0.0181801
0.0183748
0.0185536
0.0188176
0.0191842
0.0195177
0.0198328
0.0201813
0.0205227
0.0208741
0.0212814
0.021758
0.0222387
0.0226167
0.0227959
0.0226997
0.0226058
0.0230182
0.0238481
0.0245726
0.0250812
0.0255
0.0258947
0.0262657
0.026611
0.027032
0.0275293
0.0279417
0.028365
0.0288535
0.0293066
0.0298009
0.0303263
0.0308164
0.0313231
0.0319354
0.0325044
0.0330711
0.0336411
0.034246
0.0348481
0.0354648
0.0360941
0.0367163
0.0373656
0.0380264
0.0387605
0.0394476
0.040168
0.0408477
0.0415455
0.0422935
0.0430481
0.0438604
0.0446315
0.0454006
0.046233
0.0469872
0.0477999
0.0485976
0.0493944
0.0501503
0.0506679
0.0236806
0.0197109
0.0127591
0.00719865
0.00540115
0.00620639
0.00766027
0.00898185
0.00995357
0.0105166
0.0108137
0.0110355
0.0112467
0.0114572
0.0115896
0.0117047
0.0120433
0.0124931
0.0127593
0.0128986
0.0130855
0.0133968
0.0137868
0.0140998
0.0143082
0.0145477
0.0148297
0.0150412
0.01528
0.0156503
0.0160092
0.0163399
0.0167262
0.0171373
0.0174937
0.0177509
0.0179638
0.0181809
0.0183756
0.0185541
0.018818
0.0191849
0.0195185
0.0198334
0.020182
0.0205233
0.0208746
0.0212818
0.0217584
0.0222393
0.0226175
0.0227968
0.0227003
0.0226056
0.0230179
0.0238486
0.0245732
0.0250817
0.0255003
0.0258951
0.026266
0.0266112
0.0270322
0.0275296
0.0279419
0.0283652
0.0288538
0.0293067
0.029801
0.0303265
0.0308166
0.0313232
0.0319355
0.0325046
0.0330712
0.0336413
0.0342462
0.0348483
0.0354649
0.0360942
0.0367164
0.0373657
0.0380265
0.0387606
0.0394477
0.0401681
0.0408478
0.0415456
0.0422936
0.0430482
0.0438605
0.0446316
0.0454007
0.0462331
0.0469873
0.0478
0.0485977
0.0493945
0.0501504
0.0506681
0.0230751
0.0194895
0.0129619
0.00759696
0.00567676
0.00632361
0.0077169
0.00901875
0.00997916
0.0105351
0.0108296
0.0110505
0.0112604
0.0114701
0.0116033
0.0117179
0.0120529
0.0124981
0.0127628
0.0129034
0.0130912
0.0134017
0.0137903
0.0141029
0.0143113
0.0145505
0.0148321
0.0150431
0.0152815
0.0156514
0.0160102
0.016341
0.0167274
0.0171385
0.0174949
0.0177519
0.0179646
0.0181818
0.0183766
0.0185546
0.0188183
0.0191856
0.0195193
0.0198341
0.0201826
0.020524
0.0208753
0.0212824
0.021759
0.02224
0.0226184
0.0227979
0.0227008
0.0226052
0.0230176
0.0238491
0.024574
0.0250822
0.0255007
0.0258955
0.0262663
0.0266114
0.0270324
0.0275299
0.0279422
0.0283654
0.028854
0.0293069
0.0298012
0.0303267
0.0308167
0.0313233
0.0319357
0.0325048
0.0330714
0.0336414
0.0342463
0.0348484
0.0354651
0.0360944
0.0367165
0.0373658
0.0380266
0.0387608
0.0394478
0.0401683
0.0408479
0.0415456
0.0422937
0.0430483
0.0438606
0.0446317
0.0454008
0.0462332
0.0469874
0.0478001
0.0485978
0.0493946
0.0501507
0.0506682
0.022473
0.0192552
0.0131604
0.00799927
0.00596704
0.00644997
0.00777767
0.00906023
0.0100093
0.0105566
0.0108476
0.0110672
0.0112754
0.0114845
0.01162
0.0117361
0.0120666
0.012505
0.0127672
0.0129101
0.0130996
0.0134086
0.0137947
0.0141067
0.0143157
0.0145548
0.0148356
0.0150461
0.0152837
0.0156527
0.0160111
0.016342
0.0167286
0.0171397
0.0174961
0.0177528
0.0179655
0.0181831
0.0183778
0.0185552
0.0188186
0.0191864
0.0195203
0.0198347
0.0201831
0.0205247
0.020876
0.0212831
0.0217597
0.0222408
0.0226196
0.0227992
0.0227014
0.0226048
0.0230173
0.0238498
0.0245749
0.0250827
0.0255012
0.025896
0.0262668
0.0266117
0.0270326
0.0275303
0.0279426
0.0283656
0.0288543
0.0293071
0.0298014
0.0303269
0.0308169
0.0313234
0.0319359
0.032505
0.0330715
0.0336416
0.0342465
0.0348486
0.0354652
0.0360945
0.0367167
0.0373659
0.0380267
0.0387609
0.039448
0.0401684
0.0408481
0.0415457
0.0422938
0.0430484
0.0438607
0.0446318
0.0454009
0.0462333
0.0469875
0.0478001
0.048598
0.0493948
0.050151
0.0506683
0.0218882
0.0190051
0.0133393
0.0083974
0.00627073
0.00658568
0.00784142
0.00910476
0.0100434
0.0105812
0.0108674
0.011085
0.0112911
0.0114993
0.0116379
0.011757
0.0120833
0.0125135
0.0127727
0.0129186
0.0131107
0.0134175
0.0137999
0.0141109
0.0143212
0.0145605
0.0148406
0.0150506
0.0152873
0.0156545
0.0160118
0.0163429
0.0167296
0.0171408
0.0174971
0.0177536
0.0179664
0.0181846
0.0183794
0.018556
0.018819
0.0191874
0.0195217
0.0198355
0.0201836
0.0205253
0.0208768
0.0212837
0.0217604
0.0222418
0.0226211
0.0228008
0.0227021
0.0226043
0.0230169
0.0238506
0.0245759
0.0250834
0.0255017
0.0258966
0.0262673
0.0266121
0.027033
0.0275307
0.027943
0.0283659
0.0288546
0.0293074
0.0298017
0.0303272
0.0308171
0.0313236
0.0319362
0.0325052
0.0330717
0.0336418
0.0342466
0.0348488
0.0354654
0.0360947
0.0367168
0.0373661
0.0380268
0.0387611
0.0394482
0.0401686
0.0408482
0.0415458
0.0422939
0.0430485
0.0438609
0.0446319
0.045401
0.0462334
0.0469876
0.0478002
0.0485982
0.049395
0.0501514
0.0506685
0.0213257
0.0187333
0.0134933
0.00879264
0.00659148
0.00673357
0.00790861
0.00915173
0.0100812
0.0106091
0.0108893
0.011104
0.0113074
0.0115144
0.0116562
0.0117789
0.0121015
0.0125234
0.0127794
0.0129288
0.013124
0.0134283
0.0138058
0.0141152
0.014327
0.0145671
0.0148469
0.0150569
0.0152926
0.0156571
0.0160129
0.0163438
0.0167304
0.0171413
0.0174976
0.0177539
0.017967
0.0181863
0.0183814
0.0185572
0.0188197
0.0191888
0.0195236
0.0198367
0.020184
0.0205259
0.0208774
0.0212842
0.0217608
0.0222427
0.0226228
0.0228027
0.0227031
0.022604
0.0230168
0.0238516
0.0245769
0.0250839
0.0255023
0.0258973
0.026268
0.0266126
0.0270335
0.0275313
0.0279435
0.0283664
0.028855
0.0293078
0.0298021
0.0303276
0.0308173
0.0313237
0.0319365
0.0325055
0.0330719
0.0336419
0.0342468
0.034849
0.0354656
0.0360949
0.0367169
0.0373662
0.0380269
0.0387612
0.0394483
0.0401687
0.0408484
0.0415459
0.0422941
0.0430486
0.043861
0.0446321
0.045401
0.0462336
0.0469877
0.0478003
0.0485984
0.0493953
0.050152
0.0506687
0.0207868
0.0184466
0.0136278
0.00918644
0.00692864
0.00689403
0.00797918
0.0092004
0.0101223
0.0106403
0.0109133
0.0111243
0.0113247
0.0115302
0.011675
0.0118016
0.0121205
0.0125342
0.0127871
0.0129401
0.0131387
0.0134405
0.0138124
0.0141196
0.0143327
0.0145738
0.0148538
0.0150645
0.0152994
0.0156609
0.0160145
0.016345
0.0167309
0.0171411
0.0174974
0.0177535
0.0179671
0.0181878
0.0183835
0.0185585
0.0188207
0.0191909
0.0195262
0.0198386
0.0201849
0.0205267
0.0208782
0.0212843
0.0217607
0.0222431
0.0226244
0.0228048
0.0227045
0.0226042
0.0230171
0.0238528
0.0245779
0.0250844
0.0255028
0.025898
0.0262687
0.0266132
0.0270342
0.027532
0.0279441
0.0283669
0.0288555
0.0293082
0.0298026
0.0303281
0.0308176
0.031324
0.0319369
0.0325058
0.0330721
0.0336422
0.034247
0.0348492
0.0354658
0.036095
0.0367171
0.0373664
0.0380271
0.0387614
0.0394485
0.0401689
0.0408485
0.041546
0.0422942
0.0430487
0.0438612
0.0446323
0.0454012
0.0462337
0.0469879
0.0478004
0.0485988
0.0493957
0.0501526
0.050669
0.0202791
0.01816
0.0137466
0.00957279
0.00727704
0.00706693
0.00805345
0.00924991
0.0101655
0.0106744
0.0109397
0.011146
0.0113428
0.0115467
0.0116946
0.0118251
0.0121406
0.0125458
0.0127954
0.0129522
0.0131543
0.0134537
0.0138197
0.0141242
0.0143383
0.0145804
0.0148608
0.0150728
0.0153073
0.0156655
0.0160166
0.0163464
0.0167313
0.0171405
0.0174964
0.0177523
0.0179666
0.018189
0.0183853
0.0185597
0.0188219
0.0191934
0.0195296
0.0198412
0.0201865
0.0205281
0.0208792
0.0212843
0.0217599
0.0222426
0.0226252
0.0228067
0.022706
0.0226049
0.0230181
0.0238546
0.0245791
0.0250846
0.0255031
0.0258986
0.0262693
0.026614
0.027035
0.0275328
0.0279449
0.0283677
0.0288561
0.0293087
0.0298032
0.0303287
0.030818
0.0313244
0.0319374
0.0325062
0.0330724
0.0336424
0.0342473
0.0348494
0.035466
0.0360952
0.0367172
0.0373665
0.0380273
0.0387616
0.0394487
0.040169
0.0408487
0.0415461
0.0422944
0.0430489
0.0438614
0.0446325
0.0454013
0.0462339
0.0469881
0.0478005
0.0485991
0.0493963
0.0501534
0.0506693
0.0198121
0.0178831
0.0138476
0.00994419
0.00763241
0.00725288
0.00813182
0.00929878
0.0102088
0.0107102
0.0109679
0.0111691
0.0113618
0.0115641
0.0117151
0.0118497
0.0121617
0.0125581
0.0128042
0.0129648
0.0131707
0.0134677
0.0138276
0.0141291
0.0143441
0.0145869
0.0148676
0.0150812
0.0153159
0.0156709
0.0160193
0.0163482
0.0167318
0.0171394
0.0174946
0.0177504
0.0179655
0.0181898
0.0183866
0.0185604
0.018823
0.0191963
0.0195335
0.0198444
0.0201887
0.0205302
0.0208807
0.0212842
0.0217584
0.0222409
0.0226249
0.0228076
0.022707
0.0226058
0.02302
0.0238574
0.0245808
0.0250848
0.0255032
0.0258988
0.0262698
0.0266147
0.0270359
0.0275336
0.0279459
0.0283686
0.0288568
0.0293094
0.029804
0.0303294
0.0308186
0.031325
0.031938
0.0325066
0.0330728
0.0336428
0.0342476
0.0348498
0.0354663
0.0360954
0.0367173
0.0373667
0.0380274
0.0387619
0.0394489
0.0401692
0.0408489
0.0415462
0.0422946
0.043049
0.0438617
0.0446327
0.0454014
0.046234
0.0469883
0.0478006
0.0485996
0.049397
0.0501542
0.0506697
0.0193875
0.0176186
0.0139285
0.0102967
0.00799126
0.0074512
0.00821381
0.00934527
0.01025
0.0107465
0.0109977
0.0111933
0.0113817
0.0115822
0.0117367
0.0118755
0.0121838
0.0125712
0.0128134
0.0129778
0.0131876
0.0134822
0.0138358
0.0141344
0.0143502
0.0145937
0.0148745
0.0150896
0.0153248
0.0156769
0.0160223
0.0163501
0.0167322
0.0171379
0.017492
0.0177476
0.0179638
0.0181903
0.0183875
0.0185604
0.0188238
0.0191995
0.0195378
0.0198478
0.0201913
0.020533
0.0208828
0.0212843
0.0217564
0.0222381
0.0226231
0.022807
0.0227068
0.0226061
0.0230224
0.0238614
0.0245834
0.0250854
0.025503
0.0258987
0.0262698
0.0266152
0.0270367
0.0275344
0.0279469
0.0283698
0.0288575
0.0293101
0.0298049
0.0303302
0.0308193
0.0313258
0.0319389
0.0325073
0.0330732
0.0336432
0.0342479
0.0348502
0.0354668
0.0360957
0.0367175
0.0373669
0.0380276
0.0387621
0.0394491
0.0401695
0.0408491
0.0415463
0.0422947
0.0430492
0.0438619
0.0446329
0.0454016
0.0462342
0.0469886
0.0478007
0.0486002
0.0493979
0.0501552
0.0506702
0.0190003
0.017367
0.0139903
0.010628
0.00834928
0.00765986
0.0082988
0.00938839
0.0102879
0.0107824
0.0110289
0.0112191
0.0114026
0.0116013
0.0117591
0.0119024
0.0122072
0.012585
0.012823
0.0129912
0.0132051
0.0134973
0.0138445
0.01414
0.0143568
0.014601
0.0148815
0.0150982
0.0153342
0.0156835
0.0160259
0.0163525
0.0167328
0.017136
0.0174886
0.0177441
0.0179617
0.0181906
0.0183881
0.0185598
0.0188241
0.0192028
0.0195422
0.0198511
0.020194
0.0205363
0.0208854
0.0212844
0.0217538
0.0222341
0.0226198
0.0228046
0.0227048
0.022605
0.0230244
0.0238663
0.0245872
0.0250865
0.0255028
0.0258981
0.0262693
0.0266153
0.0270375
0.0275351
0.0279479
0.028371
0.0288583
0.0293109
0.0298059
0.0303309
0.03082
0.0313269
0.0319401
0.0325081
0.0330739
0.0336437
0.0342484
0.0348507
0.0354673
0.0360961
0.0367177
0.0373671
0.0380278
0.0387623
0.0394493
0.0401697
0.0408493
0.0415464
0.0422949
0.0430493
0.0438621
0.0446332
0.0454018
0.0462344
0.046989
0.0478007
0.0486008
0.0493991
0.0501564
0.0506707
0.0186439
0.0171293
0.0140343
0.0109353
0.00870229
0.00787756
0.00838761
0.00942867
0.010322