/*--------------------------------*- C++ -*----------------------------------*\
| =========                 |                                                 |
| \\      /  F ield         | OpenFOAM: The Open Source CFD Toolbox           |
|  \\    /   O peration     | Version:  v1912                                 |
|   \\  /    A nd           | Website:  www.openfoam.com                      |
|    \\/     M anipulation  |                                                 |
\*---------------------------------------------------------------------------*/
FoamFile
{
    version     2.0;
    format      ascii;
    class       surfaceScalarField;
    location    "7.15";
    object      phi;
}
// * * * * * * * * * * * * * * * * * * * * * * * * * * * * * * * * * * * * * //

dimensions      [0 3 -1 0 0 0 0];
oriented        oriented;


internalField   nonuniform List<scalar> 
19000
(
1.18635e-06
-1.70245e-06
1.29323e-06
6.63589e-07
1.26572e-06
1.14428e-06
1.05746e-06
3.26259e-07
1.15745e-06
-2.242e-06
1.25032e-06
1.12849e-07
1.16729e-06
5.56543e-07
1.19647e-06
1.08814e-06
1.23282e-06
-1.50088e-07
1.24504e-06
3.90558e-09
1.22068e-06
-3.937e-07
1.17121e-06
1.74385e-07
1.1866e-06
2.43816e-07
1.18698e-06
5.26082e-07
1.19078e-06
5.37743e-07
1.20391e-06
6.11205e-07
1.19464e-06
2.48769e-07
1.21337e-06
2.91416e-07
1.21334e-06
1.9412e-07
1.2921e-07
1.1887e-06
1.25256e-06
-1.73075e-06
1.35975e-06
5.564e-07
1.34324e-06
1.16079e-06
1.14769e-06
5.21811e-07
1.24203e-06
-2.33635e-06
1.3202e-06
3.46827e-08
1.22589e-06
6.50855e-07
1.26881e-06
1.04521e-06
1.31115e-06
-1.92419e-07
1.3285e-06
-1.34462e-08
1.30327e-06
-3.68469e-07
1.24371e-06
2.33939e-07
1.25119e-06
2.36342e-07
1.25632e-06
5.20949e-07
1.24454e-06
5.4952e-07
1.28173e-06
5.74015e-07
1.25095e-06
2.79549e-07
1.29027e-06
2.52097e-07
1.2675e-06
2.1689e-07
1.19529e-07
1.27718e-06
1.31773e-06
-1.76569e-06
1.43273e-06
4.41394e-07
1.43536e-06
1.15816e-06
1.25138e-06
7.05793e-07
1.32812e-06
-2.41308e-06
1.40675e-06
-4.39541e-08
1.2995e-06
7.58105e-07
1.35094e-06
9.93773e-07
1.3962e-06
-2.37676e-07
1.42772e-06
-4.49681e-08
1.39676e-06
-3.37506e-07
1.33975e-06
2.90943e-07
1.32344e-06
2.52658e-07
1.33964e-06
5.04744e-07
1.30921e-06
5.7995e-07
1.3523e-06
5.30926e-07
1.32505e-06
3.06803e-07
1.34794e-06
2.29202e-07
1.3469e-06
2.17932e-07
1.31198e-07
1.33523e-06
1.38093e-06
-1.80252e-06
1.50728e-06
3.15053e-07
1.53459e-06
1.13084e-06
1.36649e-06
8.73897e-07
1.4134e-06
-2.45999e-06
1.50268e-06
-1.33239e-07
1.38901e-06
8.7177e-07
1.4387e-06
9.44083e-07
1.47944e-06
-2.78414e-07
1.52454e-06
-9.00701e-08
1.49013e-06
-3.03095e-07
1.44038e-06
3.40691e-07
1.40322e-06
2.89817e-07
1.41666e-06
4.91312e-07
1.38828e-06
6.08324e-07
1.41762e-06
5.0159e-07
1.40842e-06
3.16e-07
1.41543e-06
2.22196e-07
1.4237e-06
2.09657e-07
1.41963e-07
1.41294e-06
1.44065e-06
-1.83482e-06
1.5788e-06
1.76901e-07
1.63283e-06
1.07681e-06
1.48523e-06
1.0215e-06
1.49007e-06
-2.46483e-06
1.59497e-06
-2.3814e-07
1.4944e-06
9.72343e-07
1.52996e-06
9.08519e-07
1.55712e-06
-3.05571e-07
1.60594e-06
-1.38891e-07
1.57468e-06
-2.71836e-07
1.53165e-06
3.83727e-07
1.4849e-06
3.3656e-07
1.48715e-06
4.89063e-07
1.47172e-06
6.23759e-07
1.48974e-06
4.83573e-07
1.49199e-06
3.13747e-07
1.49459e-06
2.19592e-07
1.50132e-06
2.02934e-07
1.48555e-07
1.49472e-06
1.49659e-06
-1.85574e-06
1.64459e-06
2.89086e-08
1.72328e-06
9.98122e-07
1.59608e-06
1.1487e-06
1.55254e-06
-2.42129e-06
1.67103e-06
-3.56627e-07
1.61036e-06
1.03301e-06
1.62536e-06
8.93514e-07
1.6302e-06
-3.10412e-07
1.66979e-06
-1.78476e-07
1.64654e-06
-2.48586e-07
1.61097e-06
4.19294e-07
1.5641e-06
3.83427e-07
1.55693e-06
4.96233e-07
1.55313e-06
6.27563e-07
1.56852e-06
4.6818e-07
1.57579e-06
3.06474e-07
1.57809e-06
2.173e-07
1.58182e-06
1.99199e-07
1.54546e-07
1.57583e-06
1.55112e-06
-1.86064e-06
1.70417e-06
-1.2414e-07
1.80126e-06
9.01039e-07
1.68987e-06
1.26008e-06
1.60289e-06
-2.3343e-06
1.72812e-06
-4.81862e-07
1.72565e-06
1.03548e-06
1.72323e-06
8.95939e-07
1.70032e-06
-2.875e-07
1.72048e-06
-1.98641e-07
1.70456e-06
-2.32663e-07
1.67994e-06
4.43916e-07
1.63943e-06
4.23935e-07
1.62993e-06
5.05735e-07
1.63432e-06
6.23168e-07
1.65162e-06
4.50881e-07
1.66129e-06
2.96804e-07
1.66274e-06
2.15858e-07
1.66325e-06
1.98686e-07
1.62409e-07
1.65539e-06
1.60904e-06
-1.84955e-06
1.75888e-06
-2.73984e-07
1.86471e-06
7.9521e-07
1.76565e-06
1.35914e-06
1.65056e-06
-2.21922e-06
1.77369e-06
-6.04989e-07
1.82819e-06
9.80976e-07
1.8174e-06
9.0673e-07
1.76763e-06
-2.37728e-07
1.76358e-06
-1.94596e-07
1.75025e-06
-2.19336e-07
1.74005e-06
4.54119e-07
1.71177e-06
4.52214e-07
1.70818e-06
5.0933e-07
1.7197e-06
6.11642e-07
1.73852e-06
4.32061e-07
1.74804e-06
2.87289e-07
1.74668e-06
2.17211e-07
1.74309e-06
2.02281e-07
1.73463e-07
1.73203e-06
1.6749e-06
-1.82688e-06
1.81036e-06
-4.09446e-07
1.91428e-06
6.91291e-07
1.82976e-06
1.44366e-06
1.70538e-06
-2.09483e-06
1.81746e-06
-7.17076e-07
1.91126e-06
8.87179e-07
1.90092e-06
9.17074e-07
1.8316e-06
-1.68409e-07
1.80472e-06
-1.67718e-07
1.78892e-06
-2.03539e-07
1.79407e-06
4.48972e-07
1.78257e-06
4.63712e-07
1.79114e-06
5.00763e-07
1.8099e-06
5.92883e-07
1.82736e-06
4.14597e-07
1.83336e-06
2.81295e-07
1.82718e-06
2.23386e-07
1.81881e-06
2.10647e-07
1.88047e-07
1.80423e-06
1.75036e-06
-1.79852e-06
1.86018e-06
-5.19258e-07
1.95351e-06
5.97961e-07
1.89065e-06
1.50653e-06
1.77184e-06
-1.97603e-06
1.86544e-06
-8.10675e-07
1.9753e-06
7.77316e-07
1.97032e-06
9.22056e-07
1.89252e-06
-9.06103e-08
1.84985e-06
-1.25044e-07
1.82916e-06
-1.82849e-07
1.8473e-06
4.30823e-07
1.85303e-06
4.57989e-07
1.87511e-06
4.78676e-07
1.90001e-06
5.67988e-07
1.91327e-06
4.01335e-07
1.91343e-06
2.81139e-07
1.9017e-06
2.35111e-07
1.88903e-06
2.2332e-07
2.05344e-07
1.87173e-06
1.83415e-06
-1.76892e-06
1.91111e-06
-5.96223e-07
1.98892e-06
5.20153e-07
1.95461e-06
1.54084e-06
1.84937e-06
-1.87079e-06
1.91985e-06
-8.81155e-07
2.02599e-06
6.71179e-07
2.02749e-06
9.20555e-07
1.95244e-06
-1.55638e-08
1.90422e-06
-7.68177e-08
1.87961e-06
-1.58241e-07
1.90593e-06
4.04502e-07
1.92409e-06
4.3983e-07
1.95541e-06
4.47349e-07
1.98338e-06
5.4002e-07
1.99133e-06
3.93384e-07
1.98601e-06
2.86463e-07
1.9702e-06
2.50919e-07
1.95505e-06
2.38471e-07
2.23573e-07
1.93682e-06
1.92405e-06
-1.74013e-06
1.96786e-06
-6.40033e-07
2.02882e-06
4.59189e-07
2.02483e-06
1.54483e-06
1.93535e-06
-1.78131e-06
1.98183e-06
-9.2763e-07
2.07189e-06
5.81121e-07
2.07908e-06
9.13362e-07
2.01501e-06
4.85046e-08
1.97069e-06
-3.24936e-08
1.94501e-06
-1.32566e-07
1.97392e-06
3.75598e-07
1.99675e-06
4.16994e-07
2.03001e-06
4.14091e-07
2.05729e-06
5.12739e-07
2.06096e-06
3.89717e-07
2.05291e-06
2.94513e-07
2.03608e-06
2.6775e-07
2.021e-06
2.53551e-07
2.4067e-07
2.0039e-06
2.01859e-06
-1.71253e-06
2.0353e-06
-6.56738e-07
2.08054e-06
4.13942e-07
2.10241e-06
1.52296e-06
2.02735e-06
-1.70625e-06
2.05274e-06
-9.53016e-07
2.12221e-06
5.11643e-07
2.13384e-06
9.01733e-07
2.08423e-06
9.81174e-08
2.04918e-06
2.55305e-09
2.02493e-06
-1.08314e-07
2.05198e-06
3.48546e-07
2.07269e-06
3.96291e-07
2.10159e-06
3.85187e-07
2.12554e-06
4.88796e-07
2.12715e-06
3.88104e-07
2.11973e-06
3.01933e-07
2.1049e-06
2.82581e-07
2.09201e-06
2.66436e-07
2.55068e-07
2.07761e-06
2.11723e-06
-1.68576e-06
2.11588e-06
-6.55393e-07
2.14788e-06
3.81945e-07
2.18762e-06
1.48322e-06
2.12393e-06
-1.64256e-06
2.13371e-06
-9.62794e-07
2.1842e-06
4.61152e-07
2.19905e-06
8.86882e-07
2.16293e-06
1.34234e-07
2.13787e-06
2.76132e-08
2.11606e-06
-8.65014e-08
2.13916e-06
3.25448e-07
2.1545e-06
3.80949e-07
2.17625e-06
3.63439e-07
2.19608e-06
4.68964e-07
2.19764e-06
3.86545e-07
2.19302e-06
3.06553e-07
2.18184e-06
2.93758e-07
2.17205e-06
2.76233e-07
2.6611e-07
2.161e-06
2.2199e-06
-1.65917e-06
2.20888e-06
-6.44374e-07
2.23073e-06
3.60097e-07
2.28056e-06
1.4334e-06
2.22469e-06
-1.58669e-06
2.2248e-06
-9.62902e-07
2.26111e-06
4.24835e-07
2.27813e-06
8.69864e-07
2.25207e-06
1.60297e-07
2.23483e-06
4.48568e-08
2.21532e-06
-6.69974e-08
2.23457e-06
3.06198e-07
2.24483e-06
3.70695e-07
2.25989e-06
3.48374e-07
2.27627e-06
4.52587e-07
2.27869e-06
3.84119e-07
2.27726e-06
3.07989e-07
2.2698e-06
3.01216e-07
2.26276e-06
2.83273e-07
2.73967e-07
2.2549e-06
2.32671e-06
-1.63201e-06
2.31182e-06
-6.29484e-07
2.32677e-06
3.45151e-07
2.38138e-06
1.37878e-06
2.32994e-06
-1.53525e-06
2.3249e-06
-9.57864e-07
2.35234e-06
3.97393e-07
2.37085e-06
8.51356e-07
2.35115e-06
1.79992e-07
2.33892e-06
5.70918e-08
2.32121e-06
-4.92856e-08
2.33782e-06
2.89584e-07
2.34493e-06
3.63586e-07
2.3553e-06
3.38e-07
2.36944e-06
4.38451e-07
2.3727e-06
3.80857e-07
2.37359e-06
3.07102e-07
2.369e-06
3.05805e-07
2.36376e-06
2.88509e-07
2.79242e-07
2.35849e-06
2.4379e-06
-1.60351e-06
2.42245e-06
-6.14037e-07
2.43346e-06
3.3414e-07
2.49014e-06
1.3221e-06
2.44024e-06
-1.48535e-06
2.43245e-06
-9.50073e-07
2.45521e-06
3.74633e-07
2.4751e-06
8.31461e-07
2.45919e-06
1.95905e-07
2.44978e-06
6.65061e-08
2.43335e-06
-3.28631e-08
2.4485e-06
2.74441e-07
2.45433e-06
3.5775e-07
2.46192e-06
3.30418e-07
2.47488e-06
4.25483e-07
2.47859e-06
3.77153e-07
2.48061e-06
3.05076e-07
2.47794e-06
3.0848e-07
2.47361e-06
2.92843e-07
2.82587e-07
2.47026e-06
2.55389e-06
-1.57311e-06
2.53962e-06
-5.9977e-07
2.54901e-06
3.24758e-07
2.60665e-06
1.26446e-06
2.5561e-06
-1.4348e-06
2.54627e-06
-9.40247e-07
2.56704e-06
3.53866e-07
2.58865e-06
8.09846e-07
2.57523e-06
2.0933e-07
2.56731e-06
7.44253e-08
2.55177e-06
-1.73232e-08
2.56601e-06
2.60199e-07
2.57164e-06
3.52124e-07
2.57755e-06
3.24511e-07
2.58997e-06
4.13058e-07
2.59379e-06
3.73332e-07
2.59607e-06
3.02802e-07
2.59469e-06
3.09853e-07
2.59077e-06
2.96761e-07
2.84532e-07
2.58883e-06
2.67521e-06
-1.54049e-06
2.66299e-06
-5.87543e-07
2.67224e-06
3.15505e-07
2.73047e-06
1.20623e-06
2.67789e-06
-1.38221e-06
2.66596e-06
-9.28317e-07
2.68616e-06
3.33658e-07
2.70979e-06
7.86221e-07
2.69838e-06
2.20735e-07
2.69135e-06
8.14559e-08
2.67648e-06
-2.44821e-09
2.6899e-06
2.46774e-07
2.69567e-06
3.46355e-07
2.70031e-06
3.19876e-07
2.71235e-06
4.01013e-07
2.7161e-06
3.69589e-07
2.71813e-06
3.00771e-07
2.71779e-06
3.10195e-07
2.71419e-06
3.00355e-07
2.85491e-07
2.71323e-06
2.80233e-06
-1.50555e-06
2.79243e-06
-5.77646e-07
2.80241e-06
3.0553e-07
2.86118e-06
1.14745e-06
2.8059e-06
-1.32694e-06
2.79165e-06
-9.14065e-07
2.81192e-06
3.13394e-07
2.83744e-06
7.60696e-07
2.82789e-06
2.30282e-07
2.82168e-06
8.76687e-08
2.80757e-06
1.16684e-08
2.82012e-06
2.3422e-07
2.82605e-06
3.40421e-07
2.82942e-06
3.16511e-07
2.8409e-06
3.89527e-07
2.84438e-06
3.66113e-07
2.8459e-06
2.9925e-07
2.84646e-06
3.09634e-07
2.8433e-06
3.03514e-07
2.8582e-07
2.84297e-06
2.93558e-06
-1.46823e-06
2.9279e-06
-5.69971e-07
2.93909e-06
2.94339e-07
2.99856e-06
1.08799e-06
2.94045e-06
-1.26883e-06
2.9237e-06
-8.97318e-07
2.94423e-06
2.92867e-07
2.97118e-06
7.3374e-07
2.96336e-06
2.38103e-07
2.9582e-06
9.28324e-08
2.94518e-06
2.46919e-08
2.95687e-06
2.22523e-07
2.96292e-06
3.34376e-07
2.96488e-06
3.14549e-07
2.97545e-06
3.78955e-07
2.97842e-06
3.63141e-07
2.97925e-06
2.98422e-07
2.98058e-06
3.08307e-07
2.978e-06
3.06091e-07
2.85813e-07
2.97801e-06
3.07529e-06
-1.42851e-06
3.06955e-06
-5.64229e-07
3.08223e-06
2.81654e-07
3.14257e-06
1.02765e-06
3.08179e-06
-1.20805e-06
3.06245e-06
-8.77975e-07
3.08332e-06
2.72001e-07
3.11115e-06
7.05903e-07
3.10492e-06
2.44337e-07
3.10107e-06
9.66879e-08
3.08943e-06
3.63287e-08
3.10031e-06
2.11643e-07
3.10644e-06
3.28246e-07
3.1069e-06
3.14092e-07
3.11623e-06
3.69624e-07
3.11853e-06
3.60842e-07
3.11855e-06
2.984e-07
3.12047e-06
3.06387e-07
3.11862e-06
3.0794e-07
2.85705e-07
3.11873e-06
3.22185e-06
-1.38645e-06
3.21777e-06
-5.6015e-07
3.23199e-06
2.67436e-07
3.29324e-06
9.66402e-07
3.23022e-06
-1.14503e-06
3.20828e-06
-8.5604e-07
3.22953e-06
2.50751e-07
3.25785e-06
6.77587e-07
3.25308e-06
2.49102e-07
3.25061e-06
9.91563e-08
3.24037e-06
4.65693e-08
3.2504e-06
2.01618e-07
3.25663e-06
3.22011e-07
3.25564e-06
3.15086e-07
3.26358e-06
3.61678e-07
3.26524e-06
3.59191e-07
3.26444e-06
2.9919e-07
3.26678e-06
3.0405e-07
3.26581e-06
3.08907e-07
2.85614e-07
3.26591e-06
3.37569e-06
-1.34221e-06
3.37309e-06
-5.57554e-07
3.38864e-06
2.51889e-07
3.45061e-06
9.04437e-07
3.38601e-06
-1.08044e-06
3.36164e-06
-8.31666e-07
3.38325e-06
2.29142e-07
3.41184e-06
6.48994e-07
3.40847e-06
2.52474e-07
3.40721e-06
1.00411e-07
3.39805e-06
5.57258e-08
3.4071e-06
1.92577e-07
3.41353e-06
3.15582e-07
3.41135e-06
3.17263e-07
3.41798e-06
3.55048e-07
3.41924e-06
3.57925e-07
3.41772e-06
3.00709e-07
3.42032e-06
3.01455e-07
3.42038e-06
3.08846e-07
2.85578e-07
3.42042e-06
3.53722e-06
-1.29602e-06
3.53598e-06
-5.56313e-07
3.55249e-06
2.35373e-07
3.61483e-06
8.42103e-07
3.54953e-06
-1.01514e-06
3.52298e-06
-8.05115e-07
3.54479e-06
2.07331e-07
3.57364e-06
6.20152e-07
3.57163e-06
2.54477e-07
3.57121e-06
1.00838e-07
3.56262e-06
6.43116e-08
3.57053e-06
1.84662e-07
3.57734e-06
3.08773e-07
3.57446e-06
3.20148e-07
3.57999e-06
3.49519e-07
3.58127e-06
3.5664e-07
3.57917e-06
3.02815e-07
3.58183e-06
2.98797e-07
3.58298e-06
3.0769e-07
2.85562e-07
3.583e-06
3.70683e-06
-1.24815e-06
3.70678e-06
-5.56258e-07
3.72388e-06
2.18277e-07
3.78621e-06
7.79774e-07
3.7212e-06
-9.50133e-07
3.69276e-06
-7.76677e-07
3.71445e-06
1.8564e-07
3.74364e-06
5.90966e-07
3.74305e-06
2.55068e-07
3.74297e-06
1.00919e-07
3.73439e-06
7.28854e-08
3.74105e-06
1.78e-07
3.74847e-06
3.01361e-07
3.74546e-06
3.23152e-07
3.75017e-06
3.44811e-07
3.75188e-06
3.54925e-07
3.74942e-06
3.0528e-07
3.75186e-06
2.96359e-07
3.75406e-06
3.05489e-07
2.85457e-07
3.75416e-06
3.88495e-06
-1.19891e-06
3.8858e-06
-5.57114e-07
3.90311e-06
2.00969e-07
3.96515e-06
7.17738e-07
3.90141e-06
-8.86399e-07
3.87135e-06
-7.46619e-07
3.89249e-06
1.64504e-07
3.92213e-06
5.61329e-07
3.92306e-06
2.54137e-07
3.9229e-06
1.01071e-07
3.91387e-06
8.19204e-08
3.91915e-06
1.72721e-07
3.92731e-06
2.93195e-07
3.92475e-06
3.25717e-07
3.92891e-06
3.40645e-07
3.93139e-06
3.52452e-07
3.92887e-06
3.07795e-07
3.93082e-06
2.94415e-07
3.93388e-06
3.02425e-07
2.8502e-07
3.93432e-06
4.07198e-06
-1.14864e-06
4.07336e-06
-5.58491e-07
4.09051e-06
1.83819e-07
4.15207e-06
6.56179e-07
4.09055e-06
-8.24881e-07
4.05912e-06
-7.15192e-07
4.07924e-06
1.44382e-07
4.10931e-06
5.31262e-07
4.1119e-06
2.5155e-07
4.11145e-06
1.01518e-07
4.10166e-06
9.17124e-08
4.1054e-06
1.68978e-07
4.1143e-06
2.84301e-07
4.11259e-06
3.27419e-07
4.11643e-06
3.36814e-07
4.11988e-06
3.48998e-07
4.11773e-06
3.09944e-07
4.11902e-06
2.93127e-07
4.12269e-06
2.9875e-07
2.83973e-07
4.12374e-06
4.26838e-06
-1.09772e-06
4.26983e-06
-5.59942e-07
4.28643e-06
1.67225e-07
4.34737e-06
5.95231e-07
4.28892e-06
-7.66428e-07
4.2564e-06
-6.82669e-07
4.27514e-06
1.25642e-07
4.30541e-06
5.00987e-07
4.30973e-06
2.47235e-07
4.30901e-06
1.02237e-07
4.29839e-06
1.02337e-07
4.30045e-06
1.66913e-07
4.30987e-06
2.74886e-07
4.30927e-06
3.28012e-07
4.31287e-06
3.33221e-07
4.31741e-06
3.44459e-07
4.31606e-06
3.11284e-07
4.31678e-06
2.92416e-07
4.32077e-06
2.94756e-07
2.82087e-07
4.32265e-06
4.47456e-06
-1.0465e-06
4.47567e-06
-5.6105e-07
4.49131e-06
1.51582e-07
4.55149e-06
5.35057e-07
4.49682e-06
-7.11762e-07
4.46351e-06
-6.49356e-07
4.48068e-06
1.08467e-07
4.51075e-06
4.7092e-07
4.51672e-06
2.41266e-07
4.51594e-06
1.03015e-07
4.50462e-06
1.13657e-07
4.50493e-06
1.66607e-07
4.51456e-06
2.65254e-07
4.51517e-06
3.27403e-07
4.51851e-06
3.29881e-07
4.52409e-06
3.38875e-07
4.52398e-06
3.11395e-07
4.52438e-06
2.92019e-07
4.52839e-06
2.9075e-07
2.79235e-07
4.53124e-06
4.69091e-06
-9.95298e-07
4.69139e-06
-5.61529e-07
4.70577e-06
1.37204e-07
4.76489e-06
4.75932e-07
4.71454e-06
-6.61407e-07
4.68076e-06
-6.15581e-07
4.69638e-06
9.28455e-08
4.72578e-06
4.41522e-07
4.73313e-06
2.33911e-07
4.73259e-06
1.0356e-07
4.72089e-06
1.2536e-07
4.71945e-06
1.68041e-07
4.72899e-06
2.55718e-07
4.73083e-06
3.2556e-07
4.73381e-06
3.26903e-07
4.74026e-06
3.32421e-07
4.74167e-06
3.09989e-07
4.7421e-06
2.91587e-07
4.746e-06
2.86851e-07
2.7559e-07
4.74965e-06
4.9178e-06
-9.44298e-07
4.91753e-06
-5.61263e-07
4.9305e-06
1.24234e-07
4.98817e-06
4.18268e-07
4.9424e-06
-6.15644e-07
4.9085e-06
-5.81674e-07
4.92273e-06
7.86135e-08
4.95108e-06
4.1317e-07
4.95938e-06
2.25608e-07
4.95932e-06
1.03625e-07
4.94766e-06
1.37022e-07
4.94461e-06
1.71088e-07
4.9538e-06
2.46526e-07
4.95689e-06
3.22473e-07
4.9594e-06
3.24391e-07
4.96639e-06
3.25429e-07
4.96946e-06
3.06924e-07
4.97024e-06
2.90799e-07
4.97402e-06
2.83073e-07
2.71478e-07
4.97813e-06
5.15562e-06
-8.93596e-07
5.15464e-06
-5.60292e-07
5.1663e-06
1.12583e-07
5.22197e-06
3.62591e-07
5.1808e-06
-5.74472e-07
5.14708e-06
-5.47957e-07
5.16017e-06
6.55227e-08
5.18727e-06
3.86077e-07
5.19602e-06
2.16859e-07
5.19656e-06
1.03076e-07
5.18542e-06
1.48172e-07
5.18095e-06
1.75549e-07
5.18963e-06
2.37853e-07
5.194e-06
3.181e-07
5.19602e-06
3.22373e-07
5.20306e-06
3.18386e-07
5.20778e-06
3.02207e-07
5.20915e-06
2.89427e-07
5.21274e-06
2.79484e-07
2.67048e-07
5.21717e-06
5.4048e-06
-8.43207e-07
5.40326e-06
-5.58753e-07
5.4139e-06
1.01941e-07
5.46701e-06
3.09479e-07
5.43019e-06
-5.37643e-07
5.39696e-06
-5.1473e-07
5.40916e-06
5.33221e-08
5.43495e-06
3.60289e-07
5.44368e-06
2.08125e-07
5.44484e-06
1.01915e-07
5.43468e-06
1.58338e-07
5.42902e-06
1.81206e-07
5.43705e-06
2.29826e-07
5.44277e-06
3.12373e-07
5.44438e-06
3.20764e-07
5.45089e-06
3.11875e-07
5.45707e-06
2.9603e-07
5.45924e-06
2.87254e-07
5.46268e-06
2.76049e-07
2.62459e-07
5.46727e-06
5.66586e-06
-7.93105e-07
5.66389e-06
-5.56788e-07
5.674e-06
9.18334e-08
5.72401e-06
2.59467e-07
5.69109e-06
-5.04727e-07
5.65866e-06
-4.82292e-07
5.67013e-06
4.18457e-08
5.69469e-06
3.35733e-07
5.70307e-06
1.99745e-07
5.70475e-06
1.00239e-07
5.69598e-06
1.67102e-07
5.68936e-06
1.8783e-07
5.69658e-06
2.226e-07
5.70374e-06
3.05222e-07
5.70515e-06
3.19345e-07
5.71064e-06
3.0639e-07
5.71789e-06
2.8878e-07
5.72106e-06
2.84087e-07
5.7243e-06
2.72802e-07
2.57732e-07
5.72903e-06
5.93937e-06
-7.43277e-07
5.93706e-06
-5.54486e-07
5.94717e-06
8.17226e-08
5.99366e-06
2.12984e-07
5.96413e-06
-4.75206e-07
5.93275e-06
-4.50906e-07
5.94358e-06
3.10195e-08
5.96702e-06
3.12289e-07
5.97486e-06
1.91899e-07
5.9769e-06
9.81986e-08
5.96987e-06
1.7414e-07
5.96255e-06
1.95143e-07
5.96876e-06
2.16394e-07
5.97737e-06
2.96614e-07
5.97894e-06
3.17768e-07
5.98312e-06
3.0221e-07
5.99087e-06
2.81031e-07
5.99521e-06
2.79745e-07
5.9982e-06
2.69812e-07
2.5289e-07
6.00305e-06
6.22597e-06
-6.93754e-07
6.22332e-06
-5.51844e-07
6.23395e-06
7.10949e-08
6.2766e-06
1.70337e-07
6.24997e-06
-4.48579e-07
6.21984e-06
-4.20775e-07
6.23003e-06
2.08265e-08
6.25248e-06
2.89847e-07
6.25975e-06
1.84628e-07
6.26199e-06
9.59578e-08
6.25688e-06
1.79245e-07
6.2492e-06
2.02822e-07
6.25414e-06
2.11457e-07
6.2641e-06
2.86658e-07
6.26632e-06
3.15549e-07
6.26911e-06
2.99418e-07
6.27673e-06
2.73414e-07
6.28241e-06
2.74066e-07
6.28524e-06
2.66977e-07
2.4829e-07
6.28984e-06
6.52634e-06
-6.44628e-07
6.52327e-06
-5.48771e-07
6.53479e-06
5.95727e-08
6.57347e-06
1.31656e-07
6.54929e-06
-4.24395e-07
6.52057e-06
-3.92053e-07
6.5301e-06
1.12911e-08
6.55163e-06
2.68316e-07
6.55837e-06
1.77892e-07
6.56066e-06
9.36679e-08
6.5576e-06
1.82303e-07
6.54993e-06
2.10494e-07
6.5534e-06
2.07987e-07
6.5644e-06
2.75661e-07
6.56776e-06
3.1219e-07
6.56932e-06
2.97855e-07
6.57614e-06
2.66591e-07
6.58316e-06
2.67046e-07
6.58623e-06
2.63904e-07
2.44356e-07
6.59017e-06
6.84122e-06
-5.96054e-07
6.83755e-06
-5.45104e-07
6.85017e-06
4.69482e-08
6.8849e-06
9.69255e-08
6.86282e-06
-4.02309e-07
6.83558e-06
-3.6482e-07
6.84444e-06
2.43202e-09
6.86513e-06
2.47631e-07
6.87138e-06
1.71638e-07
6.87358e-06
9.14749e-08
6.87259e-06
1.83292e-07
6.86537e-06
2.17713e-07
6.86723e-06
2.06121e-07
6.87883e-06
2.64062e-07
6.88371e-06
3.07311e-07
6.88439e-06
2.97179e-07
6.88988e-06
2.61102e-07
6.89797e-06
2.5895e-07
6.90186e-06
2.60022e-07
2.4126e-07
6.90495e-06
7.17132e-06
-5.4824e-07
7.16687e-06
-5.40648e-07
7.18065e-06
3.31647e-08
7.21152e-06
6.60519e-08
7.19132e-06
-3.82107e-07
7.16559e-06
-3.39091e-07
7.1738e-06
-5.7731e-09
7.19366e-06
2.27768e-07
7.19948e-06
1.65815e-07
7.20143e-06
8.95299e-08
7.20243e-06
1.82292e-07
7.19617e-06
2.23971e-07
7.19647e-06
2.0582e-07
7.20809e-06
2.52445e-07
7.21473e-06
3.00668e-07
7.21492e-06
2.96996e-07
7.21863e-06
2.57384e-07
7.22717e-06
2.50417e-07
7.2325e-06
2.54689e-07
2.38639e-07
7.23512e-06
7.51741e-06
-5.01428e-07
7.51196e-06
-5.35195e-07
7.52688e-06
1.82497e-08
7.554e-06
3.89243e-08
7.53555e-06
-3.63655e-07
7.51134e-06
-3.14885e-07
7.51892e-06
-1.33491e-08
7.53791e-06
2.08778e-07
7.5434e-06
1.60323e-07
7.54494e-06
8.79881e-08
7.54774e-06
1.795e-07
7.54292e-06
2.28785e-07
7.54185e-06
2.06896e-07
7.55304e-06
2.41253e-07
7.56158e-06
2.9213e-07
7.56182e-06
2.96756e-07
7.5633e-06
2.55905e-07
7.57079e-06
2.42925e-07
7.57787e-06
2.47605e-07
2.35422e-07
7.58109e-06
7.88026e-06
-4.5588e-07
7.87361e-06
-5.28545e-07
7.88956e-06
2.30425e-09
7.91305e-06
1.54375e-08
7.89631e-06
-3.46921e-07
7.87359e-06
-2.92159e-07
7.88051e-06
-2.0275e-08
7.89864e-06
1.90646e-07
7.9039e-06
1.55068e-07
7.90494e-06
8.69493e-08
7.90923e-06
1.75203e-07
7.90626e-06
2.31755e-07
7.90418e-06
2.08979e-07
7.91444e-06
2.30997e-07
7.92517e-06
2.81394e-07
7.92631e-06
2.95618e-07
7.92525e-06
2.56971e-07
7.92938e-06
2.38794e-07
7.93693e-06
2.40047e-07
2.29565e-07
7.94279e-06
8.26066e-06
-4.11863e-07
8.25263e-06
-5.20513e-07
8.26951e-06
-1.45734e-08
8.28943e-06
-4.4841e-09
8.27435e-06
-3.31843e-07
8.25319e-06
-2.70991e-07
8.25936e-06
-2.64537e-08
8.27658e-06
1.7343e-07
8.28174e-06
1.49912e-07
8.28226e-06
8.6425e-08
8.2877e-06
1.69763e-07
8.28673e-06
2.32722e-07
8.28415e-06
2.1156e-07
8.29309e-06
2.22061e-07
8.30647e-06
2.68012e-07
8.31391e-06
2.88175e-07
8.31896e-06
2.51924e-07
8.33095e-06
2.26809e-07
8.34219e-06
2.28808e-07
2.27503e-07
8.34425e-06
8.65944e-06
-3.69643e-07
8.64985e-06
-5.10921e-07
8.66752e-06
-3.22456e-08
8.68403e-06
-2.09939e-08
8.67047e-06
-3.18283e-07
8.65095e-06
-2.51471e-07
8.65626e-06
-3.17624e-08
8.67261e-06
1.57077e-07
8.67773e-06
1.44798e-07
8.67776e-06
8.63959e-08
8.68412e-06
1.63401e-07
8.68514e-06
2.31698e-07
8.68251e-06
2.14192e-07
8.69059e-06
2.13979e-07
8.70535e-06
2.5326e-07
8.71486e-06
2.7866e-07
8.71835e-06
2.4843e-07
8.72641e-06
2.18757e-07
8.73659e-06
2.18622e-07
2.22357e-07
8.74174e-06
9.07744e-06
-3.29464e-07
9.06612e-06
-4.99599e-07
9.0845e-06
-5.06295e-08
9.0978e-06
-3.42906e-08
9.08542e-06
-3.05902e-07
9.06784e-06
-2.33895e-07
9.07213e-06
-3.60483e-08
9.08754e-06
1.41661e-07
9.09271e-06
1.39635e-07
9.09228e-06
8.68273e-08
9.09929e-06
1.56386e-07
9.10235e-06
2.28636e-07
9.10029e-06
2.16256e-07
9.10687e-06
2.07398e-07
9.12123e-06
2.38898e-07
9.13268e-06
2.67211e-07
9.13705e-06
2.44061e-07
9.14411e-06
2.11699e-07
9.15538e-06
2.07352e-07
2.17384e-07
9.16035e-06
9.51556e-06
-2.91568e-07
9.50234e-06
-4.86373e-07
9.52132e-06
-6.96108e-08
9.53168e-06
-4.46473e-08
9.52008e-06
-2.94307e-07
9.50466e-06
-2.18473e-07
9.50796e-06
-3.93493e-08
9.52227e-06
1.27348e-07
9.52753e-06
1.34376e-07
9.52687e-06
8.74904e-08
9.53428e-06
1.48973e-07
9.53918e-06
2.23739e-07
9.53826e-06
2.17174e-07
9.54315e-06
2.02512e-07
9.55419e-06
2.27855e-07
9.56099e-06
2.60415e-07
9.55829e-06
2.46755e-07
9.55449e-06
2.155e-07
9.55881e-06
2.03035e-07
2.01243e-07
9.57495e-06
9.97474e-06
-2.56171e-07
9.95942e-06
-4.71056e-07
9.97894e-06
-8.91317e-08
9.98672e-06
-5.24268e-08
9.97537e-06
-2.82956e-07
9.96235e-06
-2.05453e-07
9.96472e-06
-4.17168e-08
9.97768e-06
1.14381e-07
9.98317e-06
1.2889e-07
9.98237e-06
8.82949e-08
9.98979e-06
1.41546e-07
9.99632e-06
2.1721e-07
9.99584e-06
2.17658e-07
9.99993e-06
1.98417e-07
1.00142e-05
2.1354e-07
1.00303e-05
2.44319e-07
1.00393e-05
2.37756e-07
1.00453e-05
2.09531e-07
1.00542e-05
1.94177e-07
1.99926e-07
1.00555e-05
1.04559e-05
-2.23474e-07
1.04384e-05
-4.53542e-07
1.04583e-05
-1.08972e-07
1.0464e-05
-5.81766e-08
1.04523e-05
-2.71265e-07
1.04418e-05
-1.94904e-07
1.04435e-05
-4.34123e-08
1.04549e-05
1.02932e-07
1.04604e-05
1.23377e-07
1.04597e-05
8.90209e-08
1.04672e-05
1.34052e-07
1.04751e-05
2.09351e-07
1.04753e-05
2.17444e-07
1.04775e-05
1.96229e-07
1.04865e-05
2.04458e-07
1.04959e-05
2.34942e-07
1.04972e-05
2.36521e-07
1.04951e-05
2.11566e-07
1.04977e-05
1.91581e-07
1.88174e-07
1.05095e-05
1.09602e-05
-1.93632e-07
1.09404e-05
-4.33783e-07
1.09603e-05
-1.28881e-07
1.09647e-05
-6.25356e-08
1.09522e-05
-2.58786e-07
1.09438e-05
-1.86497e-07
1.09452e-05
-4.48576e-08
1.0955e-05
9.31968e-08
1.09605e-05
1.17891e-07
1.09598e-05
8.968e-08
1.09667e-05
1.27143e-07
1.09753e-05
2.00809e-07
1.09761e-05
2.1656e-07
1.09767e-05
1.95664e-07
1.09847e-05
1.96443e-07
1.09952e-05
2.24415e-07
1.09997e-05
2.3208e-07
1.10004e-05
2.10859e-07
1.10044e-05
1.87616e-07
1.79988e-07
1.10125e-05
1.14885e-05
-1.66775e-07
1.14666e-05
-4.11879e-07
1.14862e-05
-1.48434e-07
1.14898e-05
-6.61859e-08
1.14762e-05
-2.45172e-07
1.14694e-05
-1.79694e-07
1.14712e-05
-4.67082e-08
1.14792e-05
8.52579e-08
1.14842e-05
1.12893e-07
1.14835e-05
9.03462e-08
1.14897e-05
1.20981e-07
1.14983e-05
1.92139e-07
1.15e-05
2.14923e-07
1.15004e-05
1.9528e-07
1.15072e-05
1.8956e-07
1.15184e-05
2.13276e-07
1.15254e-05
2.25073e-07
1.15274e-05
2.08834e-07
1.15304e-05
1.84648e-07
1.73219e-07
1.15372e-05
1.2042e-05
-1.42975e-07
1.20182e-05
-3.88043e-07
1.20369e-05
-1.67113e-07
1.20405e-05
-6.98287e-08
1.20256e-05
-2.30286e-07
1.20197e-05
-1.73819e-07
1.20224e-05
-4.93709e-08
1.20287e-05
7.89999e-08
1.20329e-05
1.08645e-07
1.20322e-05
9.10526e-08
1.20373e-05
1.15858e-07
1.20461e-05
1.83404e-07
1.20493e-05
2.11714e-07
1.20497e-05
1.94818e-07
1.20552e-05
1.84075e-07
1.20664e-05
2.0208e-07
1.20752e-05
2.16322e-07
1.20784e-05
2.05602e-07
1.20809e-05
1.82126e-07
1.67277e-07
1.20869e-05
1.26219e-05
-1.22253e-07
1.25964e-05
-3.62589e-07
1.26137e-05
-1.84378e-07
1.26178e-05
-7.39615e-08
1.26018e-05
-2.14296e-07
1.2596e-05
-1.6799e-07
1.25999e-05
-5.32493e-08
1.2605e-05
7.38958e-08
1.2608e-05
1.05607e-07
1.26071e-05
9.19808e-08
1.26116e-05
1.11382e-07
1.26206e-05
1.74384e-07
1.26249e-05
2.07368e-07
1.26255e-05
1.94236e-07
1.26299e-05
1.79719e-07
1.26405e-05
1.91418e-07
1.26505e-05
2.06308e-07
1.26554e-05
2.00746e-07
1.26579e-05
1.79637e-07
1.6208e-07
1.26631e-05
1.32293e-05
-1.04573e-07
1.32026e-05
-3.35898e-07
1.32179e-05
-1.99674e-07
1.32229e-05
-7.89618e-08
1.32062e-05
-1.97624e-07
1.31996e-05
-1.6138e-07
1.32047e-05
-5.83286e-08
1.32093e-05
6.92093e-08
1.32109e-05
1.04023e-07
1.32095e-05
9.34159e-08
1.32136e-05
1.07312e-07
1.32229e-05
1.65031e-07
1.32282e-05
2.02057e-07
1.32294e-05
1.93023e-07
1.32328e-05
1.76315e-07
1.32424e-05
1.81861e-07
1.32531e-05
1.95566e-07
1.32597e-05
1.94163e-07
1.32625e-05
1.76823e-07
1.57533e-07
1.32671e-05
1.38654e-05
-8.98223e-08
1.38379e-05
-3.08433e-07
1.38508e-05
-2.12496e-07
1.38568e-05
-8.49901e-08
1.384e-05
-1.8079e-07
1.3832e-05
-1.53413e-07
1.38379e-05
-6.42248e-08
1.38431e-05
6.39966e-08
1.38434e-05
1.0377e-07
1.3841e-05
9.57599e-08
1.38444e-05
1.03969e-07
1.38542e-05
1.55218e-07
1.38609e-05
1.9534e-07
1.38627e-05
1.91175e-07
1.38654e-05
1.73698e-07
1.38735e-05
1.73673e-07
1.38844e-05
1.84732e-07
1.38927e-05
1.85867e-07
1.38964e-05
1.73127e-07
1.53801e-07
1.39001e-05
1.45317e-05
-7.78317e-08
1.45039e-05
-2.80677e-07
1.45138e-05
-2.22379e-07
1.45208e-05
-9.20239e-08
1.45045e-05
-1.64484e-07
1.44948e-05
-1.43698e-07
1.4501e-05
-7.03674e-08
1.45073e-05
5.76691e-08
1.45068e-05
1.04239e-07
1.45034e-05
9.91735e-08
1.45055e-05
1.01847e-07
1.45155e-05
1.45247e-07
1.45238e-05
1.87057e-07
1.45265e-05
1.8846e-07
1.45289e-05
1.71315e-07
1.45358e-05
1.66749e-07
1.4546e-05
1.74503e-07
1.45554e-05
1.76486e-07
1.45605e-05
1.68039e-07
1.50594e-07
1.45637e-05
1.52294e-05
-6.83406e-08
1.52019e-05
-2.53166e-07
1.52085e-05
-2.2896e-07
1.52162e-05
-9.9804e-08
1.52011e-05
-1.49369e-07
1.51896e-05
-1.32197e-07
1.51952e-05
-7.59404e-08
1.52029e-05
4.99563e-08
1.52026e-05
1.04568e-07
1.51984e-05
1.03365e-07
1.5199e-05
1.01238e-07
1.52084e-05
1.35813e-07
1.52183e-05
1.77212e-07
1.52222e-05
1.84488e-07
1.52246e-05
1.69004e-07
1.52305e-05
1.60803e-07
1.52397e-05
1.6534e-07
1.52492e-05
1.66914e-07
1.52561e-05
1.61221e-07
1.47231e-07
1.52594e-05
1.596e-05
-6.10251e-08
1.59333e-05
-2.2646e-07
1.59362e-05
-2.31892e-07
1.59444e-05
-1.07979e-07
1.59311e-05
-1.36019e-07
1.5918e-05
-1.19153e-07
1.59219e-05
-7.9773e-08
1.59311e-05
4.0744e-08
1.59319e-05
1.03692e-07
1.59272e-05
1.08073e-07
1.59265e-05
1.0194e-07
1.59347e-05
1.27644e-07
1.59456e-05
1.66295e-07
1.59512e-05
1.78859e-07
1.59537e-05
1.66593e-07
1.59589e-05
1.55604e-07
1.59672e-05
1.57009e-07
1.59762e-05
1.57872e-07
1.59843e-05
1.53191e-07
1.42848e-07
1.59886e-05
1.67251e-05
-5.54736e-08
1.66998e-05
-2.01166e-07
1.66988e-05
-2.3094e-07
1.67068e-05
-1.15981e-07
1.66956e-05
-1.24778e-07
1.66814e-05
-1.04966e-07
1.66823e-05
-8.07404e-08
1.6693e-05
3.00582e-08
1.6696e-05
1.00745e-07
1.66913e-05
1.12706e-07
1.66898e-05
1.03538e-07
1.66961e-05
1.21245e-07
1.67074e-05
1.55019e-07
1.67149e-05
1.71405e-07
1.67179e-05
1.63546e-07
1.67224e-05
1.51137e-07
1.67302e-05
1.49235e-07
1.67385e-05
1.49573e-07
1.67464e-05
1.45211e-07
1.36902e-07
1.67524e-05
1.75261e-05
-5.1253e-08
1.75028e-05
-1.77804e-07
1.74979e-05
-2.26062e-07
1.75049e-05
-1.23018e-07
1.74961e-05
-1.15936e-07
1.74814e-05
-9.03169e-08
1.74788e-05
-7.8096e-08
1.74903e-05
1.85776e-08
1.7496e-05
9.5018e-08
1.74923e-05
1.164e-07
1.74901e-05
1.05746e-07
1.74948e-05
1.16542e-07
1.75056e-05
1.44265e-07
1.75145e-05
1.62477e-07
1.75188e-05
1.59225e-07
1.75227e-05
1.47286e-07
1.75296e-05
1.42289e-07
1.75377e-05
1.41479e-07
1.75449e-05
1.37973e-07
1.2977e-07
1.75521e-05
1.8365e-05
-4.79418e-08
1.83439e-05
-1.56698e-07
1.83355e-05
-2.17644e-07
1.83408e-05
-1.28354e-07
1.83344e-05
-1.09473e-07
1.83204e-05
-7.63343e-08
1.83141e-05
-7.17484e-08
1.83247e-05
7.96204e-09
1.83333e-05
8.63563e-08
1.83316e-05
1.18089e-07
1.83292e-05
1.08227e-07
1.83324e-05
1.13272e-07
1.83421e-05
1.34591e-07
1.83518e-05
1.52777e-07
1.83576e-05
1.53393e-07
1.83616e-05
1.43308e-07
1.83674e-05
1.36501e-07
1.83756e-05
1.33326e-07
1.83823e-05
1.31257e-07
1.22719e-07
1.83893e-05
1.92436e-05
-4.51528e-08
1.92249e-05
-1.38018e-07
1.92136e-05
-2.06348e-07
1.92168e-05
-1.3148e-07
1.92123e-05
-1.05066e-07
1.92002e-05
-6.41953e-08
1.91911e-05
-6.26026e-08
1.91983e-05
7.4757e-10
1.92096e-05
7.50704e-08
1.92108e-05
1.16864e-07