/*--------------------------------*- C++ -*----------------------------------*\
| =========                 |                                                 |
| \\      /  F ield         | OpenFOAM: The Open Source CFD Toolbox           |
|  \\    /   O peration     | Version:  v1912                                 |
|   \\  /    A nd           | Website:  www.openfoam.com                      |
|    \\/     M anipulation  |                                                 |
\*---------------------------------------------------------------------------*/
FoamFile
{
    version     2.0;
    format      ascii;
    class       volScalarField;
    location    "6.8";
    object      p;
}
// * * * * * * * * * * * * * * * * * * * * * * * * * * * * * * * * * * * * * //

dimensions      [0 2 -2 0 0 0 0];


internalField   nonuniform List<scalar> 
9600
(
-1.9867e-11
-0.00260473
-0.00068044
0.00548685
-0.00379916
-0.00660348
-0.00292437
-0.00100459
-0.000738441
-0.00413372
-0.00621353
-0.00665551
-0.00725708
-0.00811691
-0.0102724
-0.0112587
-0.0135064
-0.014252
-0.0150641
-0.0158341
4.55569e-07
-0.00260194
-0.000677024
0.00545241
-0.00375596
-0.00661133
-0.0029407
-0.000951803
-0.000822797
-0.0041341
-0.00614876
-0.00667131
-0.00725232
-0.00818556
-0.0102485
-0.0113003
-0.0134816
-0.0142664
-0.0150526
-0.0158957
1.78015e-06
-0.00259786
-0.000680073
0.00541188
-0.00369231
-0.00661604
-0.00294625
-0.000884112
-0.000882585
-0.00413698
-0.00610191
-0.00670347
-0.00725092
-0.0082641
-0.0102099
-0.0113551
-0.0134379
-0.0142916
-0.0150422
-0.0159601
3.27178e-06
-0.0025947
-0.000688183
0.00535559
-0.0036373
-0.00659714
-0.00294098
-0.000841741
-0.000962155
-0.00414159
-0.00605695
-0.00675644
-0.00725517
-0.00834852
-0.0101829
-0.0114047
-0.0133994
-0.0143102
-0.0150422
-0.0160294
4.61694e-06
-0.00259232
-0.000701357
0.00527948
-0.00358879
-0.00655155
-0.00292918
-0.000831385
-0.00106108
-0.00414657
-0.00601385
-0.00683328
-0.00725476
-0.00844193
-0.0101642
-0.0114489
-0.0133651
-0.0143168
-0.0150581
-0.0160832
5.87603e-06
-0.0025905
-0.000719776
0.00518078
-0.00354033
-0.00648082
-0.00291683
-0.000849683
-0.00117715
-0.00415244
-0.00597322
-0.00692601
-0.00724129
-0.00854085
-0.0101449
-0.0114886
-0.0133267
-0.0143186
-0.0150838
-0.0161117
7.10283e-06
-0.0025893
-0.000743213
0.00506003
-0.00348849
-0.00639251
-0.00291133
-0.000890446
-0.00130634
-0.00416002
-0.00593519
-0.00702225
-0.00721474
-0.00864058
-0.0101245
-0.0115215
-0.0132882
-0.0143183
-0.0151129
-0.0161286
8.271e-06
-0.00258881
-0.000771143
0.00491984
-0.00343293
-0.00629628
-0.00291653
-0.000946198
-0.00144409
-0.00417003
-0.00589934
-0.00711307
-0.00718013
-0.00873936
-0.0101046
-0.0115484
-0.0132561
-0.0143124
-0.0151492
-0.0161446
9.34981e-06
-0.00258907
-0.000802986
0.00476356
-0.00337434
-0.00619841
-0.00293187
-0.0010103
-0.00158694
-0.00418249
-0.00586469
-0.00719454
-0.00714363
-0.00883649
-0.0100858
-0.0115716
-0.0132311
-0.0142999
-0.0151968
-0.0161587
1.03133e-05
-0.00259015
-0.000838233
0.00459438
-0.00331342
-0.0061016
-0.00295482
-0.0010785
-0.00173281
-0.0041971
-0.00583024
-0.0072675
-0.00711002
-0.00893085
-0.0100694
-0.0115906
-0.0132134
-0.0142809
-0.0152535
-0.016169
1.11152e-05
-0.00259213
-0.000876439
0.00441483
-0.00325075
-0.00600653
-0.00298241
-0.00114869
-0.00188084
-0.0042138
-0.00579558
-0.00733532
-0.0070814
-0.00902115
-0.0100566
-0.0116033
-0.0132044
-0.0142543
-0.015316
-0.0161796
1.16832e-05
-0.0025951
-0.000917218
0.00422674
-0.00318677
-0.00591315
-0.00301246
-0.00122006
-0.00203084
-0.00423274
-0.00576085
-0.00740122
-0.00705819
-0.00910575
-0.010049
-0.011608
-0.0132055
-0.01422
-0.0153819
-0.0161968
1.19299e-05
-0.00259913
-0.000960237
0.00403146
-0.00312186
-0.00582136
-0.00304378
-0.00129236
-0.002183
-0.00425428
-0.00572633
-0.00746721
-0.00704034
-0.00918313
-0.0100484
-0.0116036
-0.013218
-0.0141792
-0.0154478
-0.0162248
1.17617e-05
-0.0026043
-0.00100523
0.00383012
-0.00305636
-0.00573118
-0.00307598
-0.00136549
-0.00233774
-0.00427894
-0.0056921
-0.00753426
-0.00702814
-0.00925208
-0.0100571
-0.0115891
-0.0132419
-0.0141346
-0.0155084
-0.0162661
1.10761e-05
-0.00261065
-0.00105201
0.00362374
-0.00299051
-0.00564274
-0.00310917
-0.00143936
-0.00249516
-0.00430715
-0.00565809
-0.00760279
-0.00702215
-0.00931145
-0.0100769
-0.0115645
-0.0132765
-0.0140899
-0.0155577
-0.0163215
9.76202e-06
-0.00261823
-0.00110048
0.00341324
-0.00292449
-0.00555633
-0.00314375
-0.00151379
-0.00265527
-0.00433938
-0.00562424
-0.00767273
-0.00702293
-0.00936027
-0.0101096
-0.0115299
-0.0133199
-0.0140501
-0.0155895
-0.0163898
7.70479e-06
-0.00262704
-0.00115064
0.00319937
-0.00285848
-0.00547234
-0.00318032
-0.00158845
-0.0028179
-0.00437605
-0.00559067
-0.00774376
-0.00703106
-0.00939764
-0.0101561
-0.0114865
-0.0133686
-0.0140211
-0.0155989
-0.0164679
4.77852e-06
-0.0026371
-0.00120256
0.00298267
-0.00279272
-0.00539114
-0.00321958
-0.00166296
-0.0029826
-0.00441758
-0.00555755
-0.00781533
-0.00704763
-0.00942256
-0.0102167
-0.0114366
-0.0134182
-0.014008
-0.0155829
-0.0165508
8.35603e-07
-0.00264837
-0.00125636
0.00276359
-0.00272761
-0.00531302
-0.00326211
-0.00173697
-0.00314889
-0.00446453
-0.00552482
-0.0078866
-0.00707429
-0.00943422
-0.0102905
-0.0113835
-0.0134635
-0.0140148
-0.0155418
-0.0166317
-4.28384e-06
-0.00266083
-0.00131221
0.00254254
-0.0026636
-0.00523813
-0.00330832
-0.0018102
-0.00331625
-0.00451751
-0.00549248
-0.00795669
-0.00711267
-0.00943225
-0.0103759
-0.0113308
-0.0134994
-0.0140435
-0.0154785
-0.0167024
-1.07518e-05
-0.00267442
-0.00137036
0.00231998
-0.00260118
-0.00516652
-0.00335848
-0.00188254
-0.00348406
-0.00457717
-0.00546082
-0.00802485
-0.00716402
-0.0094168
-0.0104704
-0.0112827
-0.0135217
-0.0140938
-0.0153982
-0.0167545
-1.87658e-05
-0.00268905
-0.00143107
0.00209638
-0.00254084
-0.00509821
-0.00341276
-0.00195392
-0.00365166
-0.00464432
-0.00542997
-0.00809038
-0.0072294
-0.00938833
-0.010571
-0.0112438
-0.0135262
-0.0141636
-0.0153085
-0.0167792
-2.85464e-05
-0.00270465
-0.00149465
0.00187224
-0.00248312
-0.0050332
-0.00347133
-0.00202436
-0.00381833
-0.00471976
-0.0054001
-0.00815257
-0.00730957
-0.00934771
-0.0106749
-0.0112185
-0.0135097
-0.0142497
-0.0152187
-0.0167679
-4.03326e-05
-0.00272108
-0.00156146
0.00164809
-0.00242855
-0.00497149
-0.00353431
-0.00209411
-0.00398319
-0.00480385
-0.00537143
-0.00821066
-0.00740521
-0.00929641
-0.0107787
-0.0112102
-0.0134703
-0.0143475
-0.0151384
-0.0167132
-5.43916e-05
-0.0027382
-0.00163185
0.00142438
-0.00237772
-0.00491301
-0.00360183
-0.00216349
-0.0041453
-0.00489764
-0.00534418
-0.00826383
-0.00751709
-0.00923607
-0.0108787
-0.0112219
-0.0134075
-0.0144504
-0.0150773
-0.0166119
-7.10184e-05
-0.00275584
-0.00170618
0.00120159
-0.00233124
-0.00485777
-0.00367391
-0.00223275
-0.00430366
-0.00500188
-0.00531878
-0.00831138
-0.00764559
-0.00916851
-0.010971
-0.0112568
-0.0133228
-0.0145494
-0.0150449
-0.0164685
-9.05315e-05
-0.0027738
-0.00178483
0.000980172
-0.00228972
-0.00480583
-0.00375046
-0.00230226
-0.00445718
-0.00511752
-0.00529598
-0.00835237
-0.00779097
-0.0090964
-0.0110512
-0.0113177
-0.0132197
-0.0146336
-0.0150482
-0.016295
-0.000113277
-0.00279188
-0.00186816
0.000760522
-0.00225375
-0.00475716
-0.00383151
-0.00237273
-0.00460453
-0.00524528
-0.00527677
-0.00838434
-0.0079537
-0.00902298
-0.0111148
-0.0114061
-0.0131045
-0.0146906
-0.0150894
-0.0161092
-0.000139625
-0.00280985
-0.00195651
0.000543004
-0.00222381
-0.00471184
-0.00391701
-0.0024449
-0.00474445
-0.00538544
-0.00526246
-0.00840526
-0.00813375
-0.00895231
-0.0111561
-0.0115219
-0.0129862
-0.0147076
-0.0151628
-0.0159345
-0.000169968
-0.00282746
-0.00205023
0.00032802
-0.00220037
-0.00467012
-0.00400673
-0.00251971
-0.00487556
-0.005538
-0.00525486
-0.00841311
-0.00833015
-0.0088898
-0.0111697
-0.0116618
-0.0128768
-0.0146741
-0.0152553
-0.0157982
-0.000204746
-0.00284443
-0.00214956
0.000115861
-0.00218387
-0.00463222
-0.0041005
-0.00259821
-0.00499643
-0.00570217
-0.00525646
-0.0084061
-0.00854107
-0.00884158
-0.011151
-0.0118198
-0.0127898
-0.0145862
-0.0153482
-0.0157219
-0.000244415
-0.00286047
-0.0022547
-9.32384e-05
-0.00217455
-0.00459859
-0.00419796
-0.00268126
-0.00510619
-0.0058775
-0.00527016
-0.0083824
-0.00876334
-0.00881426
-0.0110968
-0.011987
-0.0127386
-0.0144492
-0.0154181
-0.015711
-0.000289436
-0.00287535
-0.00236578
-0.000299127
-0.00217248
-0.00456976
-0.00429714
-0.00276985
-0.00520433
-0.00606251
-0.00529891
-0.00834093
-0.00899212
-0.00881506
-0.0110071
-0.0121512
-0.0127334
-0.0142772
-0.0154394
-0.0157527
-0.000340311
-0.00288874
-0.00248278
-0.000501949
-0.00217743
-0.00454615
-0.00439829
-0.00286519
-0.00529076
-0.00625454
-0.00534583
-0.00828139
-0.0092212
-0.00885103
-0.0108862
-0.0122988
-0.0127776
-0.0140897
-0.0153923
-0.0158216
-0.000397538
-0.00290044
-0.00260554
-0.00070198
-0.00218888
-0.00452834
-0.00450095
-0.00296812
-0.00536565
-0.00645114
-0.00541423
-0.00820493
-0.0094437
-0.00892755
-0.0107421
-0.0124158
-0.0128666
-0.0139091
-0.0152722
-0.0158847
-0.000461606
-0.00291027
-0.00273369
-0.000899776
-0.00220626
-0.0045169
-0.00460525
-0.00307927
-0.00542898
-0.0066494
-0.00550701
-0.00811427
-0.00965226
-0.00904763
-0.0105857
-0.0124888
-0.0129905
-0.0137568
-0.0150896
-0.0159052
-0.000533037
-0.00291807
-0.00286673
-0.00109631
-0.00222887
-0.00451207
-0.00471118
-0.00319881
-0.00548168
-0.00684596
-0.00562608
-0.00801296
-0.00984012
-0.00921101
-0.010429
-0.0125073
-0.0131374
-0.0136495
-0.0148627
-0.0158555
-0.000612331
-0.00292379
-0.00300383
-0.00129277
-0.00225603
-0.00451385
-0.00481886
-0.00332688
-0.0055248
-0.00703786
-0.00577316
-0.0079061
-0.0100007
-0.00941472
-0.010285
-0.0124646
-0.0132928
-0.0135972
-0.0146123
-0.0157249
-0.000699962
-0.0029275
-0.00314398
-0.00149048
-0.0022871
-0.00452163
-0.00492935
-0.00346352
-0.00555981
-0.00722241
-0.00594824
-0.00779938
-0.0101268
-0.00965367
-0.0101689
-0.012359
-0.0134384
-0.0136032
-0.0143613
-0.0155159
-0.00079641
-0.0029294
-0.0032858
-0.0016912
-0.00232199
-0.00453439
-0.00504307
-0.00360823
-0.0055882
-0.00739859
-0.00615024
-0.00769892
-0.0102132
-0.00991882
-0.0100964
-0.0121994
-0.0135516
-0.0136609
-0.0141295
-0.0152372
-0.000901967
-0.00292999
-0.00342799
-0.00189599
-0.00236044
-0.00455101
-0.00516115
-0.00376122
-0.00561086
-0.00756401
-0.0063772
-0.00761095
-0.0102573
-0.0101992
-0.0100785
-0.0120037
-0.0136157
-0.0137599
-0.0139312
-0.014897
-0.00101692
-0.0029298
-0.00356891
-0.00210545
-0.00240314
-0.00456953
-0.00528391
-0.00392316
-0.00562931
-0.00771597
-0.00662716
-0.00754172
-0.0102555
-0.0104839
-0.0101208
-0.0117925
-0.0136235
-0.0138881
-0.0137817
-0.0145101
-0.00114153
-0.00292976
-0.00370649
-0.00232233
-0.00245123
-0.00458848
-0.00541118
-0.00409441
-0.00564435
-0.0078523
-0.00689683
-0.00749701
-0.0102093
-0.0107575
-0.0102243
-0.0115823
-0.0135661
-0.0140328
-0.0137112
-0.0141039
-0.00127577
-0.00293097
-0.00383877
-0.00254606
-0.00250629
-0.00460584
-0.00554286
-0.00427619
-0.00565782
-0.00797006
-0.00718135
-0.00748283
-0.0101229
-0.0110006
-0.0103887
-0.0113819
-0.0134045
-0.0141417
-0.0137437
-0.0138237
-0.00141979
-0.00293473
-0.00396284
-0.00277767
-0.00257145
-0.00461984
-0.00567698
-0.00446939
-0.00567169
-0.00806577
-0.00747752
-0.00750373
-0.00999929
-0.0111997
-0.0105996
-0.0112041
-0.0131624
-0.0141899
-0.0138692
-0.0137
-0.00157341
-0.00294267
-0.00407635
-0.00301629
-0.00264967
-0.00462996
-0.00581204
-0.00467471
-0.00568824
-0.00813706
-0.00777677
-0.00756462
-0.00985089
-0.0113449
-0.010836
-0.0110707
-0.0128782
-0.0141737
-0.0140503
-0.0137267
-0.00173593
-0.00295637
-0.00417733
-0.00326139
-0.00274511
-0.00463559
-0.00594476
-0.00489314
-0.00571002
-0.00818118
-0.00807292
-0.00767152
-0.00968635
-0.0114235
-0.0111047
-0.0110307
-0.0125975
-0.0141062
-0.0142429
-0.0138309
-0.00190709
-0.00297782
-0.00426425
-0.00351025
-0.00286144
-0.00463808
-0.00607158
-0.00512459
-0.00574061
-0.00819427
-0.00835774
-0.00783013
-0.00952185
-0.0114248
-0.0113621
-0.0110799
-0.0123205
-0.0139408
-0.0143833
-0.0140544
-0.00208567
-0.00300855
-0.00433643
-0.00376021
-0.00300213
-0.00463954
-0.00618775
-0.00536766
-0.00578497
-0.00817567
-0.00862261
-0.00804165
-0.00937832
-0.011352
-0.0115996
-0.0112357
-0.012109
-0.0137037
-0.0144335
-0.0142557
-0.00227042
-0.00305059
-0.0043941
-0.00400702
-0.00316972
-0.00464467
-0.00628923
-0.00561922
-0.00584857
-0.00812871
-0.00885941
-0.00829722
-0.00927994
-0.0112228
-0.0117939
-0.0114551
-0.0119819
-0.0134362
-0.0143779
-0.0143915
-0.00246018
-0.00310535
-0.00443856
-0.00424677
-0.00336506
-0.0046586
-0.00637382
-0.00587415
-0.00593733
-0.00806199
-0.00905787
-0.0085826
-0.00924639
-0.0110608
-0.011905
-0.0116964
-0.0119593
-0.0131714
-0.0142311
-0.01444
-0.00265284
-0.00317396
-0.00447271
-0.00447548
-0.00358702
-0.00468619
-0.00644153
-0.00612784
-0.00605467
-0.00798591
-0.00920994
-0.00888073
-0.00927922
-0.0108867
-0.0119345
-0.0119268
-0.0120209
-0.0129412
-0.0140173
-0.0144092
-0.00284703
-0.00325756
-0.0045
-0.00468979
-0.00383296
-0.00473231
-0.00649347
-0.00637565
-0.00620087
-0.00791176
-0.00931123
-0.00917226
-0.00937362
-0.0107313
-0.0118971
-0.0121012
-0.0121327
-0.0127901
-0.0137793
-0.0143161
-0.00304103
-0.00335636
-0.00452498
-0.00488772
-0.00409712
-0.00480013
-0.0065325
-0.00661373
-0.00637539
-0.00785067
-0.00936203
-0.00943904
-0.00951882
-0.010614
-0.0118072
-0.012208
-0.0122708
-0.0127286
-0.0135543
-0.0141624
-0.00323367
-0.00347045
-0.00455227
-0.0050669
-0.00437281
-0.00489329
-0.00656288
-0.00683907
-0.00657656
-0.00780977
-0.00936775
-0.00966704
-0.00969859
-0.0105466
-0.0116937
-0.0122554
-0.0123925
-0.0127258
-0.0133785
-0.013967
-0.00342419
-0.00359884
-0.00458607
-0.00522674
-0.00465384
-0.00501361
-0.00658784
-0.00704845
-0.00680182
-0.00779781
-0.00933826
-0.00984553
-0.00989483
-0.0105327
-0.0115788
-0.0122529
-0.0124757
-0.012747
-0.0132687
-0.0137754
-0.00361186
-0.00374042
-0.00463026
-0.0053669
-0.00493372
-0.00516244
-0.00661189
-0.00723869
-0.00704798
-0.00782159
-0.00928238
-0.00996821
-0.0100897
-0.0105692
-0.0114776
-0.012211
-0.0125261
-0.0127689
-0.0132008
-0.0136229
-0.00379628
-0.00389344
-0.00468781
-0.00548894
-0.00520703
-0.00534006
-0.00663999
-0.00740403
-0.00730778
-0.00788776
-0.00921563
-0.0100368
-0.0102642
-0.0106446
-0.0114057
-0.0121413
-0.0125465
-0.0127837
-0.0131451
-0.013513
-0.00397751
-0.00405585
-0.00476112
-0.00559655
-0.00546784
-0.00554336
-0.00667881
-0.00753934
-0.00756895
-0.00799988
-0.00915697
-0.0100583
-0.0104027
-0.0107411
-0.0113741
-0.0120627
-0.0125347
-0.0127943
-0.0130921
-0.013422
-0.00415589
-0.00422538
-0.00485137
-0.00569511
-0.00571234
-0.00576587
-0.00673601
-0.00764627
-0.00781451
-0.00814997
-0.00912429
-0.0100465
-0.0105011
-0.0108395
-0.0113778
-0.0119974
-0.0124943
-0.0127942
-0.013043
-0.0133297
-0.00433202
-0.00440016
-0.00495835
-0.00579004
-0.00593928
-0.00599906
-0.00681651
-0.00773165
-0.00803185
-0.00832596
-0.00912925
-0.0100192
-0.0105617
-0.010925
-0.0114011
-0.0119554
-0.0124407
-0.0127765
-0.0130035
-0.0132388
-0.00450655
-0.00457858
-0.00508111
-0.00588567
-0.00614804
-0.00623559
-0.00692092
-0.00780434
-0.00821642
-0.00851234
-0.00917286
-0.00999266
-0.0105906
-0.0109912
-0.0114319
-0.0119331
-0.0123916
-0.0127459
-0.0129716
-0.0131546
-0.00468011
-0.00475912
-0.00521811
-0.0059854
-0.00633913
-0.00646941
-0.00704679
-0.00787404
-0.00836978
-0.00869372
-0.00924831
-0.00998156
-0.0105976
-0.0110346
-0.0114623
-0.0119241
-0.0123509
-0.0127061
-0.0129402
-0.0130829
-0.00485342
-0.00494069
-0.00536688
-0.00609172
-0.00651462
-0.0066953
-0.00718985
-0.00794884
-0.00849791
-0.0088589
-0.00934455
-0.00999332
-0.010597
-0.0110561
-0.0114825
-0.0119241
-0.0123199
-0.0126613
-0.0129071
-0.0130281
-0.00502702
-0.00512231
-0.005525
-0.00620599
-0.00667683
-0.00691015
-0.00734533
-0.00803262
-0.00860742
-0.00900444
-0.00944937
-0.0100252
-0.010601
-0.0110644
-0.011486
-0.0119237
-0.0123022
-0.0126172
-0.0128684
-0.0129853
-0.00520125
-0.00530316
-0.00568992
-0.00632905
-0.00682872
-0.00711179
-0.0075081
-0.00812696
-0.00870426
-0.00913113
-0.00955438
-0.0100703
-0.0106125
-0.0110725
-0.0114795
-0.0119091
-0.0122915
-0.0125817
-0.0128228
-0.0129467
-0.00537638
-0.00548278
-0.00585889
-0.00646077
-0.00697367
-0.00729924
-0.00767299
-0.00823197
-0.00879403
-0.00923972
-0.00965483
-0.0101249
-0.0106282
-0.011082
-0.0114756
-0.0118818
-0.012273
-0.0125573
-0.0127764
-0.0129056
-0.00555234
-0.00566097
-0.00602971
-0.0066002
-0.00711415
-0.007473
-0.00783587
-0.00834541
-0.00888194
-0.00933344
-0.00974602
-0.0101858
-0.0106498
-0.0110871
-0.0114769
-0.0118553
-0.0122385
-0.0125348
-0.0127352
-0.0128597
-0.00572882
-0.00583741
-0.00620059
-0.00674601
-0.00725274
-0.00763381
-0.00799314
-0.00846438
-0.00897108
-0.00941747
-0.00982484
-0.0102447
-0.0106806
-0.0110918
-0.0114755
-0.0118378
-0.0121961
-0.0125032
-0.0126984
-0.0128101
-0.00590545
-0.00601239
-0.00636943
-0.00689568
-0.00739188
-0.00778416
-0.00814182
-0.00858491
-0.0090616
-0.00949708
-0.00989525
-0.0102926
-0.010712
-0.0111019
-0.011468
-0.011827
-0.0121609
-0.012464
-0.0126658
-0.0127642
-0.00608122
-0.00618575
-0.00653612
-0.0070469
-0.0075309
-0.00792667
-0.00828304
-0.00870426
-0.00915122
-0.00957328
-0.00996276
-0.0103326
-0.0107326
-0.0111128
-0.0114534
-0.0118067
-0.0121332
-0.0124226
-0.0126332
-0.012728
-0.00625551
-0.00635695
-0.00669966
-0.00719848
-0.00766957
-0.00806155
-0.00841599
-0.00882209
-0.0092415
-0.00964496
-0.010027
-0.0103726
-0.0107429
-0.0111164
-0.0114363
-0.0117682
-0.0120947
-0.0123731
-0.0125887
-0.0126904
-0.00642754
-0.00652609
-0.00685978
-0.00734702
-0.00780731
-0.00819235
-0.00854047
-0.0089327
-0.00933295
-0.00971649
-0.0100855
-0.0104152
-0.010751
-0.011109
-0.0114181
-0.0117173
-0.0120347
-0.0123069
-0.0125193
-0.012633
-0.00659599
-0.00669209
-0.00701791
-0.00749177
-0.00793961
-0.00831853
-0.008662
-0.00903663
-0.00941968
-0.00978834
-0.0101362
-0.0104541
-0.0107629
-0.0110935
-0.0113948
-0.0116634
-0.01196
-0.0122272
-0.0124265
-0.0125387
-0.00676099
-0.00685419
-0.00717183
-0.00763271
-0.00806763
-0.00843706
-0.00877843
-0.00914117
-0.00950539
-0.00985984
-0.0101811
-0.0104763
-0.010764
-0.011064
-0.0113593
-0.0116157
-0.0118918
-0.0121573
-0.0123566
-0.0124562
-0.00692087
-0.00701078
-0.00732138
-0.00776757
-0.00818881
-0.00854903
-0.00888748
-0.00925105
-0.00960703
-0.00993836
-0.010223
-0.0104631
-0.0106887
-0.0109335
-0.0112022
-0.0114522
-0.0117208
-0.0120306
-0.0123208
-0.0125296
-0.00707567
-0.0071612
-0.0074632
-0.00789293
-0.00829724
-0.00864858
-0.00898751
-0.00936545
-0.00976416
-0.0101407
-0.0104335
-0.0106284
-0.0107519
-0.0108834
-0.0110656
-0.0112047
-0.0112769
-0.0113093
-0.0113133
-0.01131
-0.00723527
-0.00730984
-0.00758943
-0.0079961
-0.00837902
-0.00871915
-0.00905427
-0.00940007
-0.00973602
-0.0100508
-0.0102897
-0.0104888
-0.0106789
-0.01085
-0.0110652
-0.0113201
-0.011599
-0.0119096
-0.0122302
-0.0125015
-0.00739869
-0.00748115
-0.0077197
-0.00807142
-0.00841634
-0.00874548
-0.00908212
-0.00943484
-0.00977036
-0.0100996
-0.0103843
-0.0105982
-0.0107798
-0.0109203
-0.0110253
-0.0111003
-0.0111192
-0.0111069
-0.0111065
-0.0111576
-0.00751426
-0.00759929
-0.00784319
-0.00818499
-0.00851011
-0.00882763
-0.0091593
-0.00951083
-0.00984776
-0.0101636
-0.0104388
-0.0106417
-0.0107817
-0.0108944
-0.010988
-0.0110768
-0.01117
-0.0112727
-0.0114038
-0.0115801
-0.0168316
-0.0181496
-0.022794
-0.0267028
-0.0270856
-0.0252956
-0.0231324
-0.0213213
-0.0200412
-0.0192379
-0.0188478
-0.0188279
-0.018894
-0.0186756
-0.0181742
-0.0177563
-0.0175756
-0.0174208
-0.0172279
-0.0170218
-0.0166877
-0.0163068
-0.0160512
-0.0158614
-0.0156096
-0.015351
-0.0151928
-0.0150586
-0.014868
-0.0146741
-0.0144619
-0.0142672
-0.0141603
-0.0140058
-0.0137905
-0.0137954
-0.0139612
-0.014057
-0.0140732
-0.0139608
-0.013742
-0.0135131
-0.0132657
-0.013043
-0.0129052
-0.012819
-0.0126908
-0.0125052
-0.0123871
-0.0123421
-0.0122258
-0.0120007
-0.0118306
-0.0117155
-0.0116074
-0.0115166
-0.011474
-0.0113795
-0.011174
-0.0109587
-0.0107788
-0.0105989
-0.0104335
-0.0102989
-0.0101764
-0.0100121
-0.009781
-0.00956969
-0.00936418
-0.00916298
-0.00891569
-0.00860513
-0.00846062
-0.00841956
-0.0082605
-0.00797044
-0.00770608
-0.00741431
-0.00706723
-0.00687404
-0.00676444
-0.00662564
-0.00631451
-0.00596022
-0.00561514
-0.00536158
-0.00518196
-0.00491733
-0.00458389
-0.00428247
-0.00402267
-0.00370324
-0.00339382
-0.00310664
-0.00285519
-0.00248994
-0.00202234
-0.00157003
-0.000927155
-0.000281127
-0.0168908
-0.0181915
-0.0226804
-0.026569
-0.0270126
-0.0252607
-0.0231101
-0.021304
-0.0200265
-0.0192246
-0.0188356
-0.0188178
-0.018887
-0.0186707
-0.0181701
-0.0177523
-0.0175721
-0.0174177
-0.0172251
-0.0170196
-0.0166857
-0.0163046
-0.0160491
-0.0158595
-0.0156079
-0.0153491
-0.0151909
-0.015057
-0.0148664
-0.0146726
-0.0144605
-0.0142656
-0.0141589
-0.0140047
-0.0137892
-0.013794
-0.0139601
-0.014056
-0.0140723
-0.01396
-0.0137413
-0.0135123
-0.013265
-0.0130423
-0.0129045
-0.0128184
-0.0126903
-0.0125047
-0.0123865
-0.0123416
-0.0122254
-0.0120003
-0.0118302
-0.0117151
-0.011607
-0.0115162
-0.0114736
-0.0113792
-0.0111737
-0.0109584
-0.0107785
-0.0105986
-0.0104332
-0.0102986
-0.0101761
-0.0100119
-0.00978076
-0.00956944
-0.00936393
-0.00916275
-0.0089155
-0.0086049
-0.00846034
-0.00841934
-0.00826032
-0.00797025
-0.0077059
-0.00741416
-0.00706704
-0.00687383
-0.00676427
-0.0066255
-0.00631439
-0.00596009
-0.00561501
-0.00536144
-0.00518183
-0.00491723
-0.00458378
-0.00428236
-0.00402256
-0.00370314
-0.00339372
-0.00310654
-0.00285508
-0.00248985
-0.00202223
-0.00156992
-0.000926977
-0.000280863
-0.0170909
-0.0182794
-0.0224588
-0.0263016
-0.0268787
-0.025209
-0.0230863
-0.0212892
-0.0200158
-0.0192158
-0.0188266
-0.0188077
-0.0188769
-0.0186624
-0.018164
-0.0177479
-0.017569
-0.017415
-0.0172225
-0.0170175
-0.0166838
-0.0163027
-0.0160473
-0.015858
-0.0156064
-0.0153476
-0.0151895
-0.0150557
-0.0148651
-0.0146713
-0.0144593
-0.0142644
-0.0141578
-0.0140037
-0.0137879
-0.0137927
-0.0139592
-0.0140553
-0.0140717
-0.0139594
-0.0137406
-0.0135117
-0.0132643
-0.0130417
-0.0129039
-0.0128179
-0.0126899
-0.0125042
-0.012386
-0.0123412
-0.0122251
-0.0119999
-0.0118298
-0.0117147
-0.0116066
-0.0115158
-0.0114733
-0.011379
-0.0111734
-0.0109581
-0.0107783
-0.0105984
-0.010433
-0.0102983
-0.0101759
-0.0100117
-0.00978055
-0.00956923
-0.00936373
-0.00916257
-0.00891535
-0.00860467
-0.00846007
-0.00841919
-0.00826021
-0.00797009
-0.00770575
-0.00741405
-0.00706686
-0.00687363
-0.00676413
-0.00662542
-0.0063143
-0.00595998
-0.00561488
-0.0053613
-0.00518174
-0.00491716
-0.00458369
-0.00428226
-0.00402248
-0.00370307
-0.00339363
-0.00310645
-0.00285501
-0.0024898
-0.00202216
-0.00156984
-0.000926863
-0.000280542
-0.0172929
-0.0183393
-0.0221649
-0.0259493
-0.0266863
-0.0251319
-0.0230502
-0.0212678
-0.0200022
-0.0192079
-0.01882
-0.0187972
-0.0188618
-0.018647
-0.0181525
-0.0177407
-0.0175641
-0.0174106
-0.0172181
-0.017014
-0.0166814
-0.0163005
-0.0160451
-0.0158559
-0.0156047
-0.0153463
-0.0151883
-0.0150544
-0.0148638
-0.0146701
-0.0144581
-0.014263
-0.0141564
-0.0140025
-0.0137864
-0.0137912
-0.0139582
-0.0140545
-0.0140711
-0.0139588
-0.0137399
-0.013511
-0.0132635
-0.0130409
-0.0129033
-0.0128173
-0.0126894
-0.0125037
-0.0123855
-0.0123408
-0.0122249
-0.0119995
-0.0118293
-0.0117143
-0.0116062
-0.0115154
-0.0114731
-0.0113788
-0.0111731
-0.0109578
-0.010778
-0.0105981
-0.0104327
-0.0102981
-0.0101757
-0.0100115
-0.00978034
-0.00956901
-0.00936353
-0.00916239
-0.00891521
-0.00860441
-0.00845977
-0.00841907
-0.00826012
-0.00796992
-0.00770559
-0.00741395
-0.00706664
-0.00687339
-0.006764
-0.00662537
-0.00631422
-0.00595985
-0.00561474
-0.00536115
-0.00518165
-0.0049171
-0.00458359
-0.00428215
-0.0040224
-0.00370299
-0.00339354
-0.00310636
-0.00285495
-0.00248977
-0.0020221
-0.00156979
-0.000926797
-0.000280093
-0.0174632
-0.0183853
-0.0218584
-0.0255711
-0.0264698
-0.0250422
-0.0230067
-0.0212408
-0.0199851
-0.0191997
-0.0188155
-0.0187863
-0.0188408
-0.0186235
-0.018135
-0.0177303
-0.0175568
-0.0174033
-0.0172106
-0.0170079
-0.0166775
-0.016298
-0.0160424
-0.0158529
-0.0156024
-0.0153449
-0.0151872
-0.0150531
-0.0148623
-0.014669
-0.0144572
-0.0142618
-0.0141549
-0.014001
-0.0137848
-0.0137896
-0.0139569
-0.0140534
-0.0140704
-0.0139581
-0.0137391
-0.0135101
-0.0132625
-0.01304
-0.0129025
-0.0128167
-0.0126888
-0.0125031
-0.0123849
-0.0123403
-0.0122245
-0.0119991
-0.0118288
-0.0117138
-0.0116058
-0.011515
-0.0114728
-0.0113787
-0.0111728
-0.0109575
-0.0107778
-0.0105979
-0.0104324
-0.0102978
-0.0101755
-0.0100113
-0.00978011
-0.00956878
-0.00936331
-0.00916219
-0.00891507
-0.00860412
-0.00845943
-0.00841896
-0.00826004
-0.00796972
-0.00770544
-0.00741386
-0.00706638
-0.00687311
-0.00676387
-0.00662532
-0.00631414
-0.00595971
-0.00561457
-0.00536098
-0.00518156
-0.00491704
-0.00458348
-0.00428203
-0.00402232
-0.00370291
-0.00339344
-0.00310627
-0.0028549
-0.00248975
-0.00202205
-0.00156977
-0.000926798
-0.000279501
-0.0176169
-0.0184494
-0.0215609
-0.0251792
-0.0262365
-0.0249448
-0.02296
-0.0212106
-0.019965
-0.0191903
-0.0188117
-0.018775
-0.0188161
-0.0185945
-0.0181136
-0.0177179
-0.0175475
-0.0173929
-0.0171992
-0.0169982
-0.0166717
-0.016295
-0.016039
-0.0158485
-0.0155991
-0.0153433
-0.0151861
-0.0150516
-0.0148607
-0.014668
-0.0144569
-0.0142611
-0.0141532
-0.0139992
-0.0137832
-0.0137879
-0.0139551
-0.0140519
-0.0140693
-0.0139571
-0.013738
-0.0135089
-0.0132612
-0.0130389
-0.0129017
-0.0128158
-0.012688
-0.0125023
-0.0123841
-0.0123397
-0.0122241
-0.0119986
-0.0118282
-0.0117132
-0.0116052
-0.0115146
-0.0114726
-0.0113784
-0.0111724
-0.010957
-0.0107775
-0.0105976
-0.010432
-0.0102975
-0.0101753
-0.0100111
-0.00977987
-0.00956854
-0.00936306
-0.00916198
-0.00891493
-0.00860381
-0.00845906
-0.00841886
-0.00825994
-0.00796949
-0.00770527
-0.00741378
-0.00706608
-0.00687278
-0.00676372
-0.0066253
-0.00631406
-0.00595953
-0.00561437
-0.00536077
-0.00518146
-0.00491698
-0.00458335
-0.0042819
-0.00402223
-0.00370283
-0.00339333
-0.00310617
-0.00285485
-0.00248976
-0.00202202
-0.0015698
-0.000926905
-0.000278766
-0.0177672
-0.0185326
-0.0212688
-0.0247713
-0.0259862
-0.0248412
-0.022912
-0.0211789
-0.0199425
-0.0191791
-0.018807
-0.018763
-0.0187894
-0.0185629
-0.0180906
-0.017705
-0.0175375
-0.0173804
-0.0171843
-0.0169846
-0.0166636
-0.0162913
-0.016035
-0.015843
-0.0155949
-0.0153412
-0.0151844
-0.0150494
-0.0148587
-0.014667
-0.0144571
-0.014261
-0.0141515
-0.0139974
-0.0137819
-0.0137862
-0.0139529
-0.0140496
-0.0140675
-0.0139555
-0.0137365
-0.0135074
-0.0132596
-0.0130378
-0.0129008
-0.0128147
-0.0126869
-0.0125015
-0.0123833
-0.012339
-0.0122235
-0.011998
-0.0118275
-0.0117125
-0.0116045
-0.011514
-0.0114723
-0.0113781
-0.0111718
-0.0109565
-0.0107772
-0.0105972
-0.0104316
-0.0102973
-0.0101751
-0.0100109
-0.00977962
-0.0095683
-0.00936279
-0.00916174
-0.00891479
-0.0086035
-0.00845867
-0.00841875
-0.00825983
-0.00796924
-0.00770512
-0.00741371
-0.00706573
-0.0068724
-0.00676357
-0.00662528
-0.00631397
-0.00595933
-0.00561414
-0.00536054
-0.00518135
-0.00491691
-0.0045832
-0.00428174
-0.00402213
-0.00370273
-0.00339322
-0.00310607
-0.00285481
-0.00248979
-0.00202201
-0.00156993
-0.00092716
-0.00027789
-0.017906
-0.0186224
-0.0209797
-0.0243496
-0.0257201
-0.0247324
-0.0228635
-0.0211462
-0.0199175
-0.0191651
-0.0188006
-0.0187501
-0.0187619
-0.0185301
-0.0180668
-0.0176921
-0.0175274
-0.0173668
-0.0171671
-0.0169683
-0.0166533
-0.0162866
-0.0160303
-0.0158367
-0.0155901
-0.0153388
-0.0151819
-0.0150462
-0.0148559
-0.0146656
-0.0144577
-0.0142615
-0.0141499
-0.0139957
-0.0137815
-0.0137852
-0.0139506
-0.0140469
-0.0140651
-0.0139532
-0.0137343
-0.0135051
-0.0132575
-0.0130366
-0.0128999
-0.0128134
-0.0126857
-0.0125006
-0.0123824
-0.012338
-0.0122229
-0.0119975
-0.0118268
-0.0117115
-0.0116036
-0.0115134
-0.0114719
-0.0113776
-0.011171
-0.0109559
-0.0107768
-0.0105968
-0.0104312
-0.0102969
-0.0101748
-0.0100106
-0.00977936
-0.00956807
-0.00936249
-0.00916144
-0.00891463
-0.0086032
-0.00845827
-0.00841864
-0.00825968
-0.00796894
-0.00770497
-0.00741365
-0.00706534
-0.00687195
-0.0067634
-0.00662527
-0.00631387
-0.00595911
-0.00561388
-0.00536027
-0.00518121
-0.00491681
-0.00458303
-0.00428156
-0.00402201
-0.00370263
-0.0033931
-0.00310596
-0.00285478
-0.00248986
-0.00202202
-0.00157017
-0.000927613
-0.00027688
-0.0180215
-0.0187148
-0.0207016
-0.023919
-0.0254378
-0.0246162
-0.0228133
-0.0211121
-0.0198895
-0.0191478
-0.0187922
-0.0187366
-0.018734
-0.0184967
-0.0180423
-0.0176789
-0.0175171
-0.0173526
-0.0171485
-0.0169501
-0.0166415
-0.016281
-0.0160251
-0.0158298
-0.015585
-0.0153362
-0.0151789
-0.0150418
-0.014852
-0.0146638
-0.0144584
-0.0142624
-0.0141484
-0.0139941
-0.0137819
-0.0137851
-0.0139487
-0.0140443
-0.0140624
-0.0139501
-0.0137311
-0.0135018
-0.0132546
-0.0130353
-0.0128991
-0.0128119
-0.0126843
-0.0124998
-0.0123814
-0.0123367
-0.012222
-0.0119971
-0.0118262
-0.0117103
-0.0116025
-0.0115126
-0.0114714
-0.0113769
-0.01117
-0.0109552
-0.0107763
-0.0105962
-0.0104306
-0.0102965
-0.0101744
-0.0100102
-0.00977909
-0.00956785
-0.00936216
-0.0091611
-0.00891445
-0.00860289
-0.00845784
-0.0084185
-0.0082595
-0.00796863
-0.00770484
-0.0074136
-0.00706489
-0.00687144
-0.00676322
-0.00662528
-0.00631376
-0.00595885
-0.00561358
-0.00535997
-0.00518105
-0.00491669
-0.00458281
-0.00428134
-0.00402186
-0.00370249
-0.00339296
-0.00310583
-0.00285475
-0.00248996
-0.00202205
-0.00157056
-0.000928318
-0.000275746
-0.018109
-0.0188121
-0.0204423
-0.0234813
-0.0251354
-0.02449
-0.0227607
-0.0210767
-0.019859
-0.0191274
-0.0187818
-0.0187223
-0.0187057
-0.0184626
-0.0180169
-0.0176648
-0.0175063
-0.0173379
-0.0171291
-0.0169307
-0.0166285
-0.0162745
-0.0160192
-0.0158225
-0.0155799
-0.0153337
-0.0151756
-0.0150368
-0.0148473
-0.0146614
-0.0144591
-0.0142635
-0.0141469
-0.0139926
-0.013783
-0.013786
-0.0139476
-0.0140423
-0.0140599
-0.0139468
-0.0137273
-0.0134973
-0.0132505
-0.0130335
-0.0128982
-0.0128104
-0.0126828
-0.0124991
-0.0123805
-0.0123351