/*--------------------------------*- C++ -*----------------------------------*\
| =========                 |                                                 |
| \\      /  F ield         | OpenFOAM: The Open Source CFD Toolbox           |
|  \\    /   O peration     | Version:  v1912                                 |
|   \\  /    A nd           | Website:  www.openfoam.com                      |
|    \\/     M anipulation  |                                                 |
\*---------------------------------------------------------------------------*/
FoamFile
{
    version     2.0;
    format      ascii;
    class       surfaceScalarField;
    location    "6.8";
    object      phi;
}
// * * * * * * * * * * * * * * * * * * * * * * * * * * * * * * * * * * * * * //

dimensions      [0 3 -1 0 0 0 0];
oriented        oriented;


internalField   nonuniform List<scalar> 
19000
(
1.17777e-06
6.11515e-07
1.19839e-06
6.10286e-07
1.20258e-06
4.09285e-07
1.06164e-06
-2.04803e-06
1.20126e-06
1.39987e-06
1.11184e-06
9.99908e-07
1.07352e-06
-7.58109e-07
1.19941e-06
1.25625e-06
1.13244e-06
-1.3904e-08
1.15868e-06
-7.27274e-08
1.19989e-06
-5.3337e-08
1.16715e-06
-4.24356e-07
1.18608e-06
9.6645e-07
1.13186e-06
2.50872e-07
1.17576e-06
8.55169e-07
1.13367e-06
4.96117e-07
1.15518e-06
5.98916e-07
1.14245e-06
5.25313e-07
1.13244e-06
4.08199e-07
4.16203e-07
1.12489e-06
1.23096e-06
6.04819e-07
1.2549e-06
5.8634e-07
1.258e-06
4.06186e-07
1.1103e-06
-1.90033e-06
1.25631e-06
1.25386e-06
1.17374e-06
1.08248e-06
1.13505e-06
-7.19422e-07
1.26914e-06
1.12216e-06
1.2031e-06
5.21338e-08
1.2245e-06
-9.41343e-08
1.26557e-06
-9.44025e-08
1.22602e-06
-3.84808e-07
1.23707e-06
9.55406e-07
1.19118e-06
2.96757e-07
1.21671e-06
8.29643e-07
1.20346e-06
5.09365e-07
1.19208e-06
6.10293e-07
1.21572e-06
5.01675e-07
1.16861e-06
4.55308e-07
3.7934e-07
1.20547e-06
1.28686e-06
6.00739e-07
1.31115e-06
5.62048e-07
1.31606e-06
4.01281e-07
1.16643e-06
-1.75069e-06
1.30652e-06
1.11376e-06
1.24894e-06
1.14006e-06
1.20315e-06
-6.73638e-07
1.33913e-06
9.86186e-07
1.27823e-06
1.13028e-07
1.29398e-06
-1.09879e-07
1.33142e-06
-1.31839e-07
1.29517e-06
-3.48562e-07
1.29481e-06
9.55764e-07
1.26095e-06
3.30623e-07
1.2675e-06
8.23091e-07
1.27412e-06
5.02739e-07
1.2498e-06
6.34616e-07
1.27173e-06
4.79751e-07
1.24385e-06
4.83184e-07
3.79941e-07
1.24325e-06
1.34511e-06
5.99734e-07
1.36891e-06
5.3825e-07
1.37624e-06
3.93951e-07
1.2314e-06
-1.60586e-06
1.35539e-06
9.89771e-07
1.33291e-06
1.16255e-06
1.27611e-06
-6.16842e-07
1.39951e-06
8.62794e-07
1.35145e-06
1.6108e-07
1.36064e-06
-1.19067e-07
1.38927e-06
-1.60472e-07
1.366e-06
-3.25292e-07
1.36369e-06
9.5808e-07
1.34019e-06
3.54121e-07
1.3358e-06
8.27482e-07
1.34602e-06
4.92519e-07
1.32887e-06
6.51763e-07
1.3342e-06
4.74421e-07
1.32662e-06
4.9077e-07
3.92814e-07
1.31374e-06
1.4069e-06
6.01185e-07
1.42931e-06
5.15848e-07
1.43827e-06
3.84988e-07
1.30628e-06
-1.47387e-06
1.40429e-06
8.91762e-07
1.41689e-06
1.14995e-06
1.35014e-06
-5.50099e-07
1.44778e-06
7.65157e-07
1.42077e-06
1.88085e-07
1.42297e-06
-1.21258e-07
1.43861e-06
-1.76117e-07
1.43249e-06
-3.19169e-07
1.43924e-06
9.51331e-07
1.42173e-06
3.71629e-07
1.4152e-06
8.34013e-07
1.41913e-06
4.88591e-07
1.41224e-06
6.58654e-07
1.40636e-06
4.80295e-07
1.40451e-06
4.92625e-07
4.06151e-07
1.39117e-06
1.47329e-06
6.03568e-07
1.49333e-06
4.95809e-07
1.50204e-06
3.7628e-07
1.38947e-06
-1.3613e-06
1.45613e-06
8.25103e-07
1.49382e-06
1.11226e-06
1.42429e-06
-4.80565e-07
1.49162e-06
6.97819e-07
1.4876e-06
1.92106e-07
1.48435e-06
-1.18007e-07
1.4869e-06
-1.78661e-07
1.49371e-06
-3.25985e-07
1.51287e-06
9.32175e-07
1.49928e-06
3.85219e-07
1.49386e-06
8.39433e-07
1.48974e-06
4.92703e-07
1.48798e-06
6.60421e-07
1.477e-06
4.91273e-07
1.47574e-06
4.93881e-07
4.19012e-07
1.46288e-06
1.54481e-06
6.04972e-07
1.56173e-06
4.78888e-07
1.56794e-06
3.70073e-07
1.47741e-06
-1.27077e-06
1.51451e-06
7.88009e-07
1.56383e-06
1.06294e-06
1.50054e-06
-4.17279e-07
1.54212e-06
6.56241e-07
1.55511e-06
1.79116e-07
1.54944e-06
-1.1233e-07
1.54281e-06
-1.72031e-07
1.55308e-06
-3.36262e-07
1.58007e-06
9.05191e-07
1.57019e-06
3.95097e-07
1.56644e-06
8.43178e-07
1.55624e-06
5.02904e-07
1.55588e-06
6.60786e-07
1.54278e-06
5.0437e-07
1.54269e-06
4.93971e-07
4.3056e-07
1.53114e-06
1.6213e-06
6.03804e-07
1.63488e-06
4.65302e-07
1.63677e-06
3.68181e-07
1.56674e-06
-1.20074e-06
1.58198e-06
7.7277e-07
1.6322e-06
1.01272e-06
1.58083e-06
-3.65907e-07
1.6056e-06
6.31465e-07
1.62636e-06
1.58361e-07
1.62078e-06
-1.06754e-07
1.6099e-06
-1.6115e-07
1.61508e-06
-3.4144e-07
1.64284e-06
8.77429e-07
1.63641e-06
4.01527e-07
1.63499e-06
8.44601e-07
1.62167e-06
5.16225e-07
1.62224e-06
6.60208e-07
1.6089e-06
5.17715e-07
1.6113e-06
4.91568e-07
4.3961e-07
1.60225e-06
1.7021e-06
5.99276e-07
1.71275e-06
4.54656e-07
1.70944e-06
3.71492e-07
1.65589e-06
-1.14719e-06
1.65903e-06
7.69627e-07
1.70434e-06
9.67412e-07
1.66527e-06
-3.26836e-07
1.68182e-06
6.14913e-07
1.70313e-06
1.37051e-07
1.69849e-06
-1.0211e-07
1.68633e-06
-1.48993e-07
1.6828e-06
-3.37913e-07
1.70672e-06
8.53515e-07
1.70271e-06
4.05531e-07
1.70454e-06
8.42768e-07
1.69068e-06
5.30092e-07
1.69345e-06
6.57439e-07
1.68126e-06
5.299e-07
1.68669e-06
4.86144e-07
4.45854e-07
1.68044e-06
1.78654e-06
5.91453e-07
1.79503e-06
4.4617e-07
1.78666e-06
3.79867e-07
1.74518e-06
-1.10572e-06
1.7444e-06
7.70408e-07
1.78302e-06
9.28788e-07
1.75311e-06
-2.96922e-07
1.76715e-06
6.00869e-07
1.78571e-06
1.18497e-07
1.78155e-06
-9.79533e-08
1.76864e-06
-1.36084e-07
1.75731e-06
-3.26577e-07
1.77641e-06
8.34413e-07
1.77345e-06
4.0849e-07
1.77916e-06
8.37057e-07
1.76616e-06
5.43088e-07
1.77227e-06
6.51336e-07
1.76192e-06
5.4025e-07
1.77002e-06
4.78047e-07
4.49593e-07
1.76628e-06
1.87424e-06
5.80965e-07
1.88138e-06
4.39023e-07
1.8689e-06
3.9235e-07
1.8359e-06
-1.07271e-06
1.83621e-06
7.70098e-07
1.86862e-06
8.96374e-07
1.84395e-06
-2.72255e-07
1.8581e-06
5.86721e-07
1.87332e-06
1.03281e-07
1.86897e-06
-9.36081e-08
1.85477e-06
-1.21882e-07
1.83825e-06
-3.10053e-07
1.85368e-06
8.1898e-07
1.85054e-06
4.11631e-07
1.8602e-06
8.27397e-07
1.84841e-06
5.54876e-07
1.85812e-06
6.41623e-07
1.84967e-06
5.48701e-07
1.85962e-06
4.68103e-07
4.51028e-07
1.85818e-06
1.96513e-06
5.68678e-07
1.9716e-06
4.32552e-07
1.95643e-06
4.07519e-07
1.92928e-06
-1.04557e-06
1.93286e-06
7.66519e-07
1.96043e-06
8.68812e-07
1.93802e-06
-2.49849e-07
1.95269e-06
5.72048e-07
1.96491e-06
9.10598e-08
1.96006e-06
-8.87501e-08
1.9444e-06
-1.06221e-07
1.92489e-06
-2.90546e-07
1.93805e-06
8.05819e-07
1.93388e-06
4.15801e-07
1.94714e-06
8.14137e-07
1.93646e-06
5.65554e-07
1.94942e-06
6.28668e-07
1.9428e-06
5.55314e-07
1.95371e-06
4.57198e-07
4.50012e-07
1.95472e-06
2.05938e-06
5.55486e-07
2.06567e-06
4.26263e-07
2.04937e-06
4.23818e-07
2.02607e-06
-1.02227e-06
2.03331e-06
7.59278e-07
2.05758e-06
8.44544e-07
2.03574e-06
-2.28016e-07
2.05029e-06
5.57507e-07
2.05978e-06
8.15662e-08
2.0544e-06
-8.3367e-08
2.03784e-06
-8.96699e-08
2.01668e-06
-2.69379e-07
2.02855e-06
7.93951e-07
2.02296e-06
4.21384e-07
2.03935e-06
7.97746e-07
2.02979e-06
5.75115e-07
2.04545e-06
6.1301e-07
2.04076e-06
5.60006e-07
2.05178e-06
4.4618e-07
4.4623e-07
2.05556e-06
2.15726e-06
5.42225e-07
2.16376e-06
4.1976e-07
2.14781e-06
4.39777e-07
2.12653e-06
-1.00099e-06
2.13691e-06
7.489e-07
2.15934e-06
8.22115e-07
2.13741e-06
-2.06089e-07
2.15094e-06
5.43972e-07
2.15782e-06
7.4688e-08
2.15194e-06
-7.74883e-08
2.13525e-06
-7.29799e-08
2.11334e-06
-2.47467e-07
2.1248e-06
7.82496e-07
2.11793e-06
4.28254e-07
2.1371e-06
7.78579e-07
2.12884e-06
5.83367e-07
2.14668e-06
5.95175e-07
2.14404e-06
5.62646e-07
2.15418e-06
4.36035e-07
4.39501e-07
2.16091e-06
2.2591e-06
5.2961e-07
2.26613e-06
4.12733e-07
2.25176e-06
4.54147e-07
2.23083e-06
-9.80064e-07
2.24337e-06
7.36361e-07
2.26509e-06
8.00399e-07
2.24307e-06
-1.84072e-07
2.25505e-06
5.32e-07
2.25954e-06
7.01933e-08
2.25309e-06
-7.10414e-08
2.23654e-06
-5.64308e-08
2.21476e-06
-2.25685e-07
2.22693e-06
7.70322e-07
2.21929e-06
4.35895e-07
2.24102e-06
7.56849e-07
2.23424e-06
5.90153e-07
2.25362e-06
5.75788e-07
2.25309e-06
5.63181e-07
2.26126e-06
4.27863e-07
4.30028e-07
2.27074e-06
2.36533e-06
5.18152e-07
2.37308e-06
4.04988e-07
2.36122e-06
4.66007e-07
2.33927e-06
-9.5812e-07
2.35286e-06
7.22773e-07
2.37446e-06
7.78799e-07
2.35279e-06
-1.62401e-07
2.36316e-06
5.21626e-07
2.36574e-06
6.76206e-08
2.35859e-06
-6.38898e-08
2.34186e-06
-3.97091e-08
2.3209e-06
-2.04723e-07
2.335e-06
7.56227e-07
2.32719e-06
4.43702e-07
2.35124e-06
7.32798e-07
2.34587e-06
5.95529e-07
2.36595e-06
5.55705e-07
2.36755e-06
5.6158e-07
2.37295e-06
4.22465e-07
4.18495e-07
2.38448e-06
2.47645e-06
5.08102e-07
2.48493e-06
3.965e-07
2.47613e-06
4.74811e-07
2.45233e-06
-9.34321e-07
2.46599e-06
7.09117e-07
2.48748e-06
7.57303e-07
2.46683e-06
-1.41745e-07
2.47605e-06
5.12408e-07
2.4772e-06
6.64676e-08
2.46925e-06
-5.59366e-08
2.45184e-06
-2.22996e-08
2.43191e-06
-1.84792e-07
2.44869e-06
7.39443e-07
2.44112e-06
4.51271e-07
2.46705e-06
7.06866e-07
2.46288e-06
5.99703e-07
2.4826e-06
5.35983e-07
2.48648e-06
5.57702e-07
2.48892e-06
4.20027e-07
4.05836e-07
2.50158e-06
2.59296e-06
4.9944e-07
2.60203e-06
3.87423e-07
2.59652e-06
4.80323e-07
2.57053e-06
-9.08329e-07
2.58358e-06
6.96066e-07
2.60461e-06
7.36276e-07
2.58564e-06
-1.22782e-07
2.59434e-06
5.03712e-07
2.59444e-06
6.6362e-08
2.58571e-06
-4.72044e-08
2.56732e-06
-3.91035e-09
2.54812e-06
-1.65584e-07
2.56761e-06
7.19946e-07
2.56037e-06
4.58516e-07
2.58755e-06
6.79677e-07
2.58443e-06
6.02825e-07
2.60273e-06
5.17688e-07
2.60912e-06
5.51306e-07
2.60904e-06
4.20107e-07
3.92959e-07
2.62192e-06
2.71534e-06
4.91934e-07
2.72469e-06
3.78065e-07
2.72252e-06
4.82497e-07
2.69426e-06
-8.8007e-07
2.70636e-06
6.83971e-07
2.72653e-06
7.16101e-07
2.70973e-06
-1.05984e-07
2.7184e-06
4.95041e-07
2.71771e-06
6.70595e-08
2.70836e-06
-3.78623e-08
2.68902e-06
1.543e-08
2.66998e-06
-1.46542e-07
2.69159e-06
6.98334e-07
2.68452e-06
4.65591e-07
2.71227e-06
6.51922e-07
2.71027e-06
6.04825e-07
2.72627e-06
5.01687e-07
2.73541e-06
5.4217e-07
2.73365e-06
4.21869e-07
3.80631e-07
2.74597e-06
2.84398e-06
4.85225e-07
2.85325e-06
3.68792e-07
2.85434e-06
4.81405e-07
2.82377e-06
-8.49496e-07
2.83483e-06
6.72908e-07
2.85398e-06
6.96953e-07
2.8395e-06
-9.1506e-08
2.84836e-06
4.86184e-07
2.84706e-06
6.8358e-08
2.83741e-06
-2.82155e-08
2.81731e-06
3.55289e-08
2.79789e-06
-1.27116e-07
2.82078e-06
6.75441e-07
2.81363e-06
4.72739e-07
2.84132e-06
6.24237e-07
2.84072e-06
6.05424e-07
2.85391e-06
4.88493e-07
2.86579e-06
5.30292e-07
2.86338e-06
4.24284e-07
3.69473e-07
2.87453e-06
2.9792e-06
4.78924e-07
2.98805e-06
3.59937e-07
2.99222e-06
4.77233e-07
2.95925e-06
-8.16525e-07
2.96945e-06
6.62711e-07
2.98759e-06
6.78808e-07
2.9753e-06
-7.9213e-08
2.98432e-06
4.7717e-07
2.9826e-06
7.00755e-08
2.97302e-06
-1.86381e-08
2.95235e-06
5.61973e-08
2.93214e-06
-1.06907e-07
2.95557e-06
6.52014e-07
2.94816e-06
4.80146e-07
2.97524e-06
5.97159e-07
2.9764e-06
6.04266e-07
2.9867e-06
4.7819e-07
3.001e-06
5.15997e-07
2.99896e-06
4.26319e-07
3.59936e-07
3.0085e-06
3.12126e-06
4.72671e-07
3.12946e-06
3.51739e-07
3.13642e-06
4.70273e-07
3.10098e-06
-7.81085e-07
3.11069e-06
6.52998e-07
3.12789e-06
6.61604e-07
3.11748e-06
-6.88024e-08
3.12655e-06
4.68109e-07
3.12452e-06
7.21051e-08
3.11535e-06
-9.46932e-09
3.09425e-06
7.72919e-08
3.07307e-06
-8.57231e-08
3.09654e-06
6.28544e-07
3.08881e-06
4.87872e-07
3.11485e-06
5.71117e-07
3.11807e-06
6.01054e-07
3.12569e-06
4.70568e-07
3.14182e-06
4.99868e-07
3.14104e-06
4.27093e-07
3.52315e-07
3.14866e-06
3.27041e-06
4.66171e-07
3.27781e-06
3.44341e-07
3.2872e-06
4.60879e-07
3.24929e-06
-7.43176e-07
3.25904e-06
6.43246e-07
3.2753e-06
6.45343e-07
3.26642e-06
-5.99148e-08
3.27543e-06
4.59098e-07
3.27308e-06
7.445e-08
3.26457e-06
-9.53368e-10
3.24316e-06
9.86966e-08
3.22104e-06
-6.35992e-08
3.24435e-06
6.05234e-07
3.23637e-06
4.95853e-07
3.26106e-06
5.46426e-07
3.26647e-06
5.95641e-07
3.27177e-06
4.6527e-07
3.28898e-06
4.82661e-07
3.29012e-06
4.25951e-07
3.46738e-07
3.2957e-06
3.42691e-06
4.59197e-07
3.43341e-06
3.37835e-07
3.44488e-06
4.49407e-07
3.40459e-06
-7.0288e-07
3.41492e-06
6.32917e-07
3.43023e-06
6.30036e-07
3.42247e-06
-5.21591e-08
3.43135e-06
4.50216e-07
3.4286e-06
7.71984e-08
3.42089e-06
6.75964e-09
3.3993e-06
1.20285e-07
3.37645e-06
-4.07483e-08
3.39964e-06
5.82047e-07
3.39156e-06
5.03929e-07
3.41464e-06
5.23345e-07
3.42231e-06
5.87975e-07
3.42564e-06
4.61935e-07
3.44313e-06
4.65179e-07
3.44658e-06
4.225e-07
3.43135e-07
3.45018e-06
3.59103e-06
4.51574e-07
3.59656e-06
3.32307e-07
3.6098e-06
4.36171e-07
3.56728e-06
-6.60367e-07
3.57866e-06
6.21539e-07
3.59304e-06
6.15657e-07
3.58601e-06
-4.51244e-08
3.59465e-06
4.41575e-07
3.59136e-06
8.04876e-08
3.58456e-06
1.35577e-08
3.56296e-06
1.41886e-07
3.53966e-06
-1.74477e-08
3.56291e-06
5.58795e-07
3.55496e-06
5.11883e-07
3.57617e-06
5.02132e-07
3.5861e-06
5.78048e-07
3.58781e-06
4.60223e-07
3.60479e-06
4.48198e-07
3.61072e-06
4.16569e-07
3.41232e-07
3.61262e-06
3.76312e-06
4.43165e-07
3.76756e-06
3.27865e-07
3.78228e-06
4.21451e-07
3.73782e-06
-6.15907e-07
3.7506e-06
6.08759e-07
3.7641e-06
6.02149e-07
3.75739e-06
-3.8412e-08
3.76563e-06
4.33336e-07
3.76164e-06
8.44813e-08
3.75585e-06
1.9341e-08
3.73448e-06
1.63256e-07
3.71098e-06
6.05938e-09
3.73452e-06
5.35255e-07
3.72695e-06
5.19447e-07
3.74604e-06
4.83044e-07
3.75821e-06
5.65872e-07
3.75865e-06
4.59786e-07
3.77442e-06
4.32428e-07
3.78282e-06
4.0817e-07
3.40521e-07
3.78353e-06
3.94351e-06
4.33845e-07
3.94673e-06
3.24642e-07
3.96266e-06
4.05519e-07
3.91663e-06
-5.69876e-07
3.93103e-06
5.94365e-07
3.94374e-06
5.89439e-07
3.937e-06
-3.1679e-08
3.94467e-06
4.25671e-07
3.93978e-06
8.9372e-08
3.93507e-06
2.40444e-08
3.91427e-06
1.84065e-07
3.89071e-06
2.96142e-08
3.9147e-06
5.11267e-07
3.90785e-06
5.26295e-07
3.92453e-06
4.66368e-07
3.93894e-06
5.51463e-07
3.93855e-06
4.60172e-07
3.95246e-06
4.18516e-07
3.96319e-06
3.97442e-07
3.40274e-07
3.96344e-06
4.13259e-06
4.23501e-07
4.13446e-06
3.22774e-07
4.15132e-06
3.88658e-07
4.10419e-06
-5.22746e-07
4.12028e-06
5.78282e-07
4.13225e-06
5.77463e-07
4.12525e-06
-2.46767e-08
4.13223e-06
4.18691e-07
4.12621e-06
9.53921e-08
4.12257e-06
2.76806e-08
4.10271e-06
2.03924e-07
4.07918e-06
5.31464e-08
4.10367e-06
4.86775e-07
4.09795e-06
5.32022e-07
4.11193e-06
4.52386e-07
4.1285e-06
5.34891e-07
4.12792e-06
4.60756e-07
4.13945e-06
4.06977e-07
4.15218e-06
3.84716e-07
3.39563e-07
4.15289e-06
4.33077e-06
4.12034e-07
4.33117e-06
3.2237e-07
4.34867e-06
3.71165e-07
4.30096e-06
-4.75038e-07
4.31867e-06
5.60566e-07
4.32996e-06
5.66176e-07
4.32255e-06
-1.72659e-08
4.32886e-06
4.12383e-07
4.32145e-06
1.02796e-07
4.31876e-06
3.03764e-08
4.30024e-06
2.22447e-07
4.27673e-06
7.66517e-08
4.30165e-06
4.61852e-07
4.29754e-06
5.36139e-07
4.3086e-06
4.41325e-07
4.32716e-06
5.16331e-07
4.32716e-06
4.60757e-07
4.336e-06
3.98135e-07
4.35009e-06
3.70623e-07
3.37354e-07
4.3523e-06
4.53843e-06
3.99376e-07
4.53732e-06
3.23481e-07
4.55517e-06
3.53316e-07
4.50739e-06
-4.27255e-07
4.52655e-06
5.41408e-07
4.53722e-06
5.55506e-07
4.52934e-06
-9.38692e-09
4.53513e-06
4.06588e-07
4.52612e-06
1.11807e-07
4.52412e-06
3.23761e-08
4.50727e-06
2.39299e-07
4.48374e-06
1.0018e-07
4.5089e-06
4.36694e-07
4.50696e-06
5.38073e-07
4.51497e-06
4.33318e-07
4.53516e-06
4.96144e-07
4.53659e-06
4.59325e-07
4.54278e-06
3.91948e-07
4.55724e-06
3.56161e-07
3.327e-07
4.5619e-06
4.75598e-06
3.85506e-07
4.75339e-06
3.2608e-07
4.77137e-06
3.3533e-07
4.72395e-06
-3.79831e-07
4.74422e-06
5.21135e-07
4.75441e-06
5.45317e-07
4.74604e-06
-1.01671e-09
4.7516e-06
4.01025e-07
4.74085e-06
1.22562e-07
4.73921e-06
3.40152e-08
4.7243e-06
2.54211e-07
4.70067e-06
1.2381e-07
4.72572e-06
4.11635e-07
4.72655e-06
5.37247e-07
4.73151e-06
4.28361e-07
4.75276e-06
4.7489e-07
4.7564e-06
4.55687e-07
4.76036e-06
3.8799e-07
4.77403e-06
3.42487e-07
3.25111e-07
4.78162e-06
4.98384e-06
3.70459e-07
4.97986e-06
3.30067e-07
4.99784e-06
3.17347e-07
4.95111e-06
-3.33102e-07
4.97202e-06
5.00224e-07
4.98197e-06
5.35366e-07
4.97307e-06
7.88288e-09
4.97876e-06
3.9534e-07
4.96625e-06
1.3507e-07
4.96461e-06
3.56621e-08
4.95183e-06
2.66986e-07
4.92804e-06
1.47605e-07
4.9525e-06
3.87167e-07
4.95663e-06
5.33126e-07
4.95871e-06
4.26272e-07
4.98022e-06
4.53388e-07
4.98668e-06
4.4922e-07
4.98913e-06
3.85548e-07
5.00095e-06
3.30663e-07
3.14814e-07
5.01125e-06
5.22246e-06
3.54312e-07
5.21725e-06
3.35279e-07
5.23516e-06
2.99442e-07
5.18939e-06
-2.87336e-07
5.21033e-06
4.79285e-07
5.22037e-06
5.25329e-07
5.21089e-06
1.73626e-08
5.21704e-06
3.89185e-07
5.20292e-06
1.49189e-07
5.2009e-06
3.76847e-08
5.19042e-06
2.77468e-07
5.16646e-06
1.71567e-07
5.18974e-06
3.63882e-07
5.19748e-06
5.25386e-07
5.19715e-06
4.26604e-07
5.21788e-06
4.32655e-07
5.22755e-06
4.39547e-07
5.22935e-06
3.83755e-07
5.23865e-06
3.21363e-07
3.02744e-07
5.25072e-06
5.47233e-06
3.37173e-07
5.46609e-06
3.41514e-07
5.48388e-06
2.81658e-07
5.43933e-06
-2.42784e-07
5.45957e-06
4.59039e-07
5.47009e-06
5.14814e-07
5.45995e-06
2.74998e-08
5.46684e-06
3.82293e-07
5.4514e-06
1.64636e-07
5.44867e-06
4.04124e-08
5.44059e-06
2.85543e-07
5.41657e-06
1.95588e-07
5.43802e-06
3.42434e-07
5.44944e-06
5.13966e-07
5.44744e-06
4.28598e-07
5.46625e-06
4.13846e-07
5.4792e-06
4.26597e-07
5.48123e-06
3.81726e-07
5.48798e-06
3.14617e-07
2.90375e-07
5.50035e-06
5.73397e-06
3.19162e-07
5.72694e-06
3.48545e-07
5.74455e-06
2.64045e-07
5.7015e-06
-1.99739e-07
5.72036e-06
4.40185e-07
5.73166e-06
5.03512e-07
5.72081e-06
3.83463e-08
5.72856e-06
3.74544e-07
5.7122e-06
1.81e-07
5.70848e-06
4.41359e-08
5.70287e-06
2.91146e-07
5.67904e-06
2.19418e-07
5.69802e-06
3.23462e-07
5.71294e-06
4.99036e-07
5.71019e-06
4.31355e-07
5.72623e-06
3.97801e-07
5.74198e-06
4.10848e-07
5.74506e-06
3.78643e-07
5.74978e-06
3.09903e-07
2.79155e-07
5.761e-06
6.00795e-06
3.00406e-07
6.00035e-06
3.56144e-07
6.0177e-06
2.46694e-07
5.97653e-06
-1.58566e-07
5.99335e-06
4.23363e-07
6.00565e-06
4.91214e-07
5.99409e-06
4.99087e-08
6.00265e-06
3.65981e-07
5.98584e-06
1.97808e-07
5.98089e-06
4.90823e-08
5.97779e-06
2.94255e-07
5.95452e-06
2.42683e-07
5.97043e-06
3.07554e-07
5.98851e-06
4.80956e-07
5.98598e-06
4.33882e-07
5.99878e-06
3.85e-07
6.01648e-06
3.93147e-07
6.02127e-06
3.73855e-07
6.02459e-06
3.06584e-07
2.69897e-07
6.03385e-06
6.29486e-06
2.8103e-07
6.28692e-06
3.64088e-07
6.30386e-06
2.29757e-07
6.26496e-06
-1.19666e-07
6.27927e-06
4.09047e-07
6.29261e-06
4.77874e-07
6.28042e-06
6.20984e-08
6.28962e-06
3.56788e-07
6.27285e-06
2.14576e-07
6.26651e-06
5.54197e-08
6.26584e-06
2.94922e-07
6.24361e-06
2.64914e-07
6.25603e-06
2.95136e-07
6.27673e-06
4.60253e-07
6.27539e-06
4.35224e-07
6.28482e-06
3.75573e-07
6.30339e-06
3.74578e-07
6.31036e-06
3.66879e-07
6.3129e-06
3.04046e-07
2.62802e-07
6.32e-06
6.59534e-06
2.61163e-07
6.58726e-06
3.72162e-07
6.60355e-06
2.13465e-07
6.56733e-06
-8.34415e-08
6.57889e-06
3.9749e-07
6.59314e-06
4.63624e-07
6.58053e-06
7.47054e-08
6.59008e-06
3.47241e-07
6.57379e-06
2.30865e-07
6.56598e-06
6.32306e-08
6.56759e-06
2.93304e-07
6.54695e-06
2.85557e-07
6.55569e-06
2.86397e-07
6.57823e-06
4.37711e-07
6.57894e-06
4.34517e-07
6.58522e-06
3.69291e-07
6.60349e-06
3.56307e-07
6.6129e-06
3.57471e-07
6.61518e-06
3.0177e-07
2.57568e-07
6.62041e-06
6.91002e-06
2.40934e-07
6.90202e-06
3.80163e-07
6.91736e-06
1.98127e-07
6.8842e-06
-5.02856e-08
6.89297e-06
3.88721e-07
6.90785e-06
4.48746e-07
6.89512e-06
8.74327e-08
6.9047e-06
3.37658e-07
6.88923e-06
2.46336e-07
6.87996e-06
7.2499e-08
6.88363e-06
2.89642e-07
6.86512e-06
3.0406e-07
6.87029e-06
2.81226e-07
6.89378e-06
4.14228e-07
6.89709e-06
4.31199e-07
6.90075e-06
3.65634e-07
6.91763e-06
3.39427e-07
6.92938e-06
3.45726e-07
6.932e-06
2.99151e-07
2.53805e-07
6.93576e-06
7.23959e-06
2.20481e-07
7.23188e-06
3.87873e-07
7.24588e-06
1.84127e-07
7.21616e-06
-2.05663e-08
7.22232e-06
3.82564e-07
7.23739e-06
4.33673e-07
7.22489e-06
9.99306e-08
7.23426e-06
3.28288e-07
7.21988e-06
2.60724e-07
7.20919e-06
8.3181e-08
7.21461e-06
2.84229e-07
7.19875e-06
3.19919e-07
7.20069e-06
2.79287e-07
7.22417e-06
3.90749e-07
7.23047e-06
4.2489e-07
7.23208e-06
3.64028e-07
7.24658e-06
3.24927e-07
7.26019e-06
3.32115e-07
7.2639e-06
2.95444e-07
2.50915e-07
7.26679e-06
7.58476e-06
1.99945e-07
7.57757e-06
3.95068e-07
7.58981e-06
1.71887e-07
7.56385e-06
5.38602e-09
7.56776e-06
3.78662e-07
7.58249e-06
4.18937e-07
7.57057e-06
1.11847e-07
7.57953e-06
3.19329e-07
7.56636e-06
2.73895e-07
7.55442e-06
9.51241e-08
7.56129e-06
2.77355e-07
7.54846e-06
3.32758e-07
7.54767e-06
2.80071e-07
7.57043e-06
3.67994e-07
7.5798e-06
4.15518e-07
7.57998e-06
3.63853e-07
7.59095e-06
3.13949e-07
7.60559e-06
3.17483e-07
7.61093e-06
2.90103e-07
2.48079e-07
7.61376e-06
7.94627e-06
1.79488e-07
7.93986e-06
4.0148e-07
7.94991e-06
1.61831e-07
7.92793e-06
2.73734e-08
7.93007e-06
3.76517e-07
7.94392e-06
4.05089e-07
7.9329e-06
1.22871e-07
7.94138e-06
3.10847e-07
7.92949e-06
2.85784e-07
7.91641e-06
1.08198e-07
7.92436e-06
2.69408e-07
7.91487e-06
3.42253e-07
7.91197e-06
2.82964e-07
7.93356e-06
3.46411e-07
7.94654e-06
4.02529e-07
7.94576e-06
3.64637e-07
7.95234e-06
3.07373e-07
7.96531e-06
3.04507e-07
7.97257e-06
2.8284e-07
2.43773e-07
7.97688e-06
8.32488e-06
1.59291e-07
8.31951e-06
4.0685e-07
8.32704e-06
1.543e-07
8.30916e-06
4.52577e-08
8.31013e-06
3.75544e-07
8.32248e-06
3.9274e-07
8.31254e-06
1.32806e-07
8.32053e-06
3.02858e-07
8.30998e-06
2.96335e-07
8.29605e-06
1.22131e-07
8.30477e-06
2.6068e-07
8.29859e-06
3.48439e-07
8.29411e-06
2.87439e-07
8.31368e-06
3.26846e-07
8.33175e-06
3.84453e-07
8.33715e-06
3.59244e-07
8.34995e-06
2.94574e-07
8.37005e-06
2.844e-07
8.38172e-06
2.71178e-07
2.43928e-07
8.38156e-06
8.72139e-06
1.39559e-07
8.71737e-06
4.10873e-07
8.72211e-06
1.49565e-07
8.70819e-06
5.91681e-08
8.7087e-06
3.75037e-07
8.71914e-06
3.82306e-07
8.71028e-06
1.41663e-07
8.71791e-06
2.95223e-07
8.70871e-06
3.05535e-07
8.69402e-06
1.36822e-07
8.70324e-06
2.51464e-07
8.70057e-06
3.51109e-07
8.69526e-06
2.92743e-07
8.71367e-06
3.08436e-07
8.7349e-06
3.63232e-07
8.74184e-06
3.52303e-07
8.75017e-06
2.86243e-07
8.76712e-06
2.67447e-07
8.7789e-06
2.59397e-07
2.41459e-07
8.78137e-06
9.13665e-06
1.2053e-07
9.13427e-06
4.13256e-07
9.13609e-06
1.47744e-07
9.12596e-06
6.92982e-08
9.12671e-06
3.7428e-07
9.13479e-06
3.74232e-07
9.12681e-06
1.4964e-07
9.13432e-06
2.87717e-07
9.12646e-06
3.13396e-07
9.11139e-06
1.51893e-07
9.1208e-06
2.42054e-07
9.12185e-06
3.50055e-07
9.11589e-06
2.98706e-07
9.13097e-06
2.93351e-07
9.15413e-06
3.40076e-07
9.16371e-06
3.42715e-07
9.16986e-06
2.80099e-07
9.1858e-06
2.51502e-07
9.19932e-06
2.45878e-07
2.38456e-07
9.20233e-06
9.57154e-06
1.0245e-07
9.57124e-06
4.13559e-07
9.57001e-06
1.48971e-07
9.56308e-06
7.62265e-08
9.56494e-06
3.72419e-07
9.57056e-06
3.68617e-07
9.56316e-06
1.57043e-07
9.5707e-06
2.80172e-07
9.56423e-06
3.19863e-07
9.54876e-06
1.67365e-07
9.558e-06
2.3282e-07
9.56315e-06
3.44903e-07
9.55813e-06
3.03722e-07
9.56833e-06
2.83152e-07
9.58618e-06
3.22224e-07
9.59019e-06
3.3871e-07
9.5869e-06
2.83391e-07
9.59032e-06
2.48077e-07
9.60212e-06
2.34077e-07
2.24941e-07
9.61564e-06
1.0027e-05
8.55814e-08
1.00291e-05
4.11455e-07
1.0025e-05
1.53086e-07
1.00206e-05
8.05731e-08
1.00243e-05
3.68745e-07
1.00274e-05
3.65581e-07
1.00201e-05
1.64255e-07
1.00278e-05
2.72481e-07
1.0023e-05
3.24726e-07
1.00073e-05
1.83032e-07
1.00159e-05
2.24186e-07
1.00234e-05
3.37462e-07
1.00183e-05
3.08835e-07
1.00275e-05
2.73921e-07
1.00532e-05
2.9648e-07
1.00714e-05
3.20584e-07
1.00777e-05
2.77098e-07
1.00883e-05
2.37436e-07
1.00995e-05
2.22894e-07
2.22244e-07
1.01022e-05
1.0504e-05
7.01728e-08
1.0509e-05
4.06528e-07
1.05021e-05
1.60003e-07
1.04994e-05
8.31962e-08
1.05055e-05
3.62702e-07
1.05066e-05
3.64504e-07
1.04989e-05
1.71921e-07
1.05068e-05
2.64538e-07
1.05035e-05
3.2802e-07
1.04877e-05
1.98878e-07
1.04952e-05
2.16662e-07
1.05056e-05
3.27077e-07
1.0502e-05
3.12425e-07
1.05048e-05
2.71158e-07
1.05214e-05
2.79834e-07
1.05323e-05
3.09726e-07
1.05316e-05
2.77819e-07
1.05323e-05
2.36683e-07
1.05408e-05
2.14372e-07
2.09623e-07
1.05535e-05
1.10037e-05
5.64679e-08
1.10117e-05
3.98563e-07
1.10024e-05
1.69284e-07
1.10007e-05
8.48755e-08
1.10094e-05
3.54063e-07
1.1009e-05
3.64861e-07
1.10004e-05
1.80496e-07
1.10086e-05
2.56371e-07
1.1007e-05
3.29639e-07
1.0991e-05
2.14836e-07
1.09965e-05
2.11227e-07
1.10082e-05
3.15331e-07
1.10058e-05
3.14845e-07
1.10052e-05
2.71744e-07
1.10205e-05
2.6458e-07
1.10352e-05
2.95031e-07
1.10379e-05
2.75052e-07
1.10391e-05
2.35492e-07
1.10469e-05
2.06624e-07
1.99621e-07
1.10569e-05
1.15272e-05
4.46345e-08
1.15384e-05
3.87393e-07
1.15272e-05
1.80483e-07
1.15254e-05
8.66208e-08
1.15368e-05
3.42721e-07
1.15359e-05
3.65686e-07
1.15264e-05
1.90036e-07
1.15343e-05
2.48456e-07
1.15346e-05
3.29382e-07
1.15184e-05
2.30972e-07
1.15208e-05
2.08836e-07
1.1534e-05
3.0217e-07
1.15345e-05
3.1433e-07
1.15328e-05
2.73486e-07
1.15439e-05
2.53462e-07
1.15611e-05
2.77834e-07
1.15679e-05
2.68244e-07
1.15689e-05
2.34459e-07
1.15748e-05
2.00788e-07
1.90805e-07
1.15836e-05
1.20756e-05
3.48106e-08
1.209e-05
3.73075e-07
1.20775e-05
1.92896e-07
1.2075e-05
8.91219e-08
1.20887e-05
3.29025e-07
1.20884e-05
3.66064e-07
1.20778e-05
2.00612e-07
1.20851e-05
2.41195e-07
1.20874e-05
3.26997e-07
1.2072e-05
2.46438e-07
1.2071e-05
2.09764e-07
1.20854e-05
2.87844e-07
1.20893e-05
3.10398e-07
1.20875e-05
2.75294e-07
1.20948e-05
2.46196e-07
1.21116e-05
2.61023e-07
1.2122e-05
2.57856e-07
1.21242e-05
2.32266e-07
1.2128e-05
1.96987e-07
1.83236e-07
1.21355e-05
1.26504e-05
2.70297e-08
1.26676e-05
3.5586e-07
1.26548e-05
2.057e-07
1.26506e-05
9.32712e-08
1.26664e-05
3.1326e-07
1.26674e-05
3.65098e-07
1.26561e-05
2.11876e-07
1.26623e-05
2.34974e-07
1.26667e-05
3.22584e-07
1.26529e-05
2.60314e-07
1.26488e-05
2.13815e-07
1.2663e-05
2.73616e-07
1.26703e-05
3.03104e-07
1.26696e-05
2.75989e-07
1.26744e-05
2.41443e-07
1.26888e-05
2.4665e-07
1.27011e-05
2.4547e-07
1.27055e-05
2.27866e-07
1.27083e-05
1.94282e-07
1.7681e-07
1.27147e-05
1.32527e-05
2.12464e-08
1.32722e-05
3.36349e-07
1.326e-05
2.17941e-07
1.32538e-05
9.95031e-08
1.32711e-05
2.9594e-07
1.32739e-05
3.62258e-07
1.32624e-05
2.23386e-07
1.32674e-05
2.29979e-07
1.32736e-05
3.16403e-07
1.32619e-05
2.72003e-07
1.32558e-05
2.19917e-07
1.32684e-05
2.61016e-07
1.32786e-05
2.92854e-07
1.32797e-05
2.74943e-07
1.32828e-05
2.38318e-07
1.32942e-05
2.35254e-07
1.33072e-05
2.32438e-07
1.33141e-05
2.20959e-07
1.33169e-05
1.91542e-07
1.71696e-07
1.3322e-05
1.38841e-05
1.73366e-08
1.39052e-05
3.15267e-07
1.38944e-05
2.28693e-07
1.38858e-05
1.08057e-07
1.3904e-05
2.77749e-07
1.39092e-05
3.57087e-07
1.3898e-05
2.34614e-07
1.39018e-05
2.26191e-07
1.39094e-05
3.08777e-07
1.39002e-05
2.81243e-07
1.3893e-05
2.27125e-07
1.3903e-05
2.50947e-07
1.39152e-05
2.80689e-07
1.39184e-05
2.71699e-07
1.3921e-05
2.35725e-07
1.39301e-05
2.26207e-07
1.39423e-05
2.20243e-07
1.39509e-05
2.12315e-07
1.39548e-05
1.8762e-07
1.67801e-07
1.39587e-05
1.45459e-05
1.51003e-08
1.45677e-05
2.93427e-07
1.45592e-05
2.37242e-07
1.45486e-05
1.18634e-07
1.45668e-05
2.59533e-07
1.45745e-05
3.49418e-07
1.4564e-05
2.45124e-07
1.45666e-05
2.23577e-07
1.45754e-05
2.99945e-07
1.45687e-05
2.87953e-07
1.45613e-05
2.34526e-07
1.45687e-05
2.4357e-07
1.45817e-05
2.67715e-07
1.45873e-05
2.6605e-07
1.459e-05
2.33062e-07
1.45973e-05
2.189e-07
1.4608e-05
2.09527e-07
1.46172e-05
2.03159e-07
1.46227e-05
1.82055e-07
1.6424e-07
1.46263e-05
1.52397e-05
1.42969e-08
1.52616e-05
2.71561e-07
1.52557e-05
2.43102e-07
1.52436e-05
1.30749e-07
1.52608e-05
2.42342e-07
1.5271e-05
3.39232e-07
1.52616e-05
2.54476e-07
1.52631e-05
2.22096e-07
1.5273e-05
2.90012e-07
1.52691e-05
2.91893e-07
1.52621e-05
2.41471e-07
1.5267e-05
2.38694e-07
1.52797e-05
2.54989e-07
1.52875e-05
2.58271e-07
1.52908e-05
2.29789e-07
1.52968e-05
2.12881e-07
1.53063e-05
2.0002e-07
1.53152e-05
1.94243e-07
1.53218e-05
1.75526e-07
1.59972e-07
1.5326e-05
1.5967e-05
1.4632e-08
1.59882e-05
2.50364e-07
1.59853e-05
2.46045e-07
1.59722e-05
1.43797e-07
1.59875e-05
2.27076e-07
1.59997e-05
3.27023e-07
1.5992e-05
2.62172e-07
1.59922e-05
2.21871e-07
1.60033e-05
2.78934e-07
1.60024e-05
2.92763e-07
1.59965e-05
2.47402e-07
1.59995e-05
2.35659e-07
1.60111e-05
2.43365e-07
1.60205e-05
2.48951e-07
1.60249e-05
2.25336e-07
1.60301e-05
2.07732e-07
1.60385e-05
1.91566e-07
1.6047e-05
1.85739e-07
1.60535e-05
1.69063e-07
1.54586e-07
1.60589e-05
1.67294e-05
1.57935e-08
1.67493e-05
2.30471e-07
1.67494e-05
2.46006e-07
1.6736e-05
1.57184e-07
1.67485e-05
2.14524e-07
1.67621e-05
3.13442e-07
1.67564e-05
2.67919e-07
1.67552e-05
2.23054e-07
1.67674e-05
2.6671e-07
1.67702e-05
2.89998e-07
1.67658e-05
2.51733e-07
1.67677e-05
2.33795e-07
1.67778e-05
2.33322e-07
1.67878e-05
2.38918e-07
1.67937e-05
2.19381e-07
1.67985e-05
2.02952e-07
1.68058e-05
1.84313e-07
1.68142e-05
1.7735e-07
1.68203e-05
1.62924e-07
1.48715e-07
1.68262e-05
1.75287e-05
1.74775e-08
1.75468e-05
2.1234e-07
1.75496e-05
2.4322e-07
1.75366e-05
1.70188e-07
1.75459e-05
2.05194e-07
1.75606e-05
2.98788e-07
1.75574e-05
2.71075e-07
1.75545e-05
2.25949e-07
1.75669e-05
2.54315e-07
1.75736e-05
2.83285e-07
1.75716e-05
2.53747e-07
1.75728e-05
2.3256e-07
1.75814e-05
2.24792e-07
1.75915e-05
2.28837e-07
1.75986e-05
2.12205e-07
1.76039e-05
1.97679e-07
1.76099e-05
1.78327e-07
1.76181e-05
1.69122e-07
1.76242e-05
1.56804e-07
1.43282e-07
1.76297e-05
1.83664e-05
1.94223e-08
1.83825e-05
1.9629e-07
1.83876e-05
2.38059e-07
1.83759e-05
1.81858e-07
1.8382e-05
1.99133e-07
1.83973e-05
2.83531e-07
1.83973e-05
2.71078e-07
1.83935e-05
2.29659e-07
1.84043e-05
2.43593e-07
1.84143e-05
2.73299e-07
1.84153e-05
2.52694e-07
1.84165e-05
2.31377e-07
1.84237e-05
2.17564e-07
1.84336e-05
2.18985e-07
1.84413e-05
2.04445e-07
1.84475e-05
1.91483e-07
1.84529e-05
1.72995e-07
1.84602e-05
1.61784e-07
1.84668e-05
1.50241e-07
1.38327e-07
1.84717e-05
1.92444e-05
2.1402e-08
1.92582e-05
1.82469e-07
1.92653e-05
2.31006e-07
1.92557e-05
1.91467e-07
1.92593e-05
1.95471e-07
1.92743e-05
2.68538e-07
1.92774e-05
2.6796e-07
1.92741e-05
2.32977e-07
1.92824e-05
2.35315e-07
1.92942e-05
2.61556e-07
1.92984e-05
2.48431e-07
1.93003e-05
2.29469e-07
1.93065e-05
2.11365e-07
1.93158e-05
2.09667e-07
1.9324e-05
1.96295e-07
1.93308e-05
1.8465e-07
1.93363e-05
1.67517e-07
1.93426e-05
1.55465e-07
1.93495e-05