/*--------------------------------*- C++ -*----------------------------------*\
| =========                 |                                                 |
| \\      /  F ield         | OpenFOAM: The Open Source CFD Toolbox           |
|  \\    /   O peration     | Version:  v1912                                 |
|   \\  /    A nd           | Website:  www.openfoam.com                      |
|    \\/     M anipulation  |                                                 |
\*---------------------------------------------------------------------------*/
FoamFile
{
    version     2.0;
    format      ascii;
    class       surfaceScalarField;
    location    "6.25";
    object      phi;
}
// * * * * * * * * * * * * * * * * * * * * * * * * * * * * * * * * * * * * * //

dimensions      [0 3 -1 0 0 0 0];
oriented        oriented;


internalField   nonuniform List<scalar> 
19000
(
1.21893e-06
1.09027e-06
1.13397e-06
-4.54751e-07
1.15038e-06
2.91421e-07
1.21803e-06
1.08041e-06
1.12339e-06
-9.33127e-07
1.07796e-06
-1.48341e-06
1.22114e-06
1.87776e-06
1.11423e-06
-1.72872e-07
1.176e-06
8.55094e-07
1.10005e-06
1.10468e-06
1.10212e-06
6.16515e-08
1.15284e-06
9.82228e-07
1.11879e-06
1.38099e-07
1.17561e-06
9.32036e-07
1.16509e-06
-9.28322e-08
1.19557e-06
1.73776e-07
1.20021e-06
-3.81415e-07
1.19146e-06
-3.86255e-07
1.20855e-06
-3.66622e-07
-4.09049e-07
1.16029e-06
1.27302e-06
1.04151e-06
1.18848e-06
-3.7021e-07
1.203e-06
2.76895e-07
1.27776e-06
1.00565e-06
1.18697e-06
-8.42337e-07
1.13489e-06
-1.43133e-06
1.27893e-06
1.73372e-06
1.16542e-06
-5.93593e-08
1.22723e-06
7.93278e-07
1.16779e-06
1.16412e-06
1.16034e-06
6.90978e-08
1.23267e-06
9.09905e-07
1.18593e-06
1.84833e-07
1.25724e-06
8.60728e-07
1.23199e-06
-6.75814e-08
1.27256e-06
1.33207e-07
1.25094e-06
-3.59801e-07
1.26006e-06
-3.95369e-07
1.25021e-06
-3.56779e-07
-4.01461e-07
1.24263e-06
1.32819e-06
9.96109e-07
1.24906e-06
-2.91084e-07
1.25683e-06
2.69127e-07
1.33474e-06
9.27738e-07
1.25309e-06
-7.60685e-07
1.19437e-06
-1.37261e-06
1.33471e-06
1.59338e-06
1.22689e-06
4.84599e-08
1.2785e-06
7.41664e-07
1.25255e-06
1.19007e-06
1.22192e-06
9.97349e-08
1.31083e-06
8.20994e-07
1.25841e-06
2.37253e-07
1.3125e-06
8.06631e-07
1.28894e-06
-4.40154e-08
1.31192e-06
1.10222e-07
1.28909e-06
-3.36972e-07
1.29154e-06
-3.97813e-07
1.28761e-06
-3.52849e-07
-3.9651e-07
1.28266e-06
1.38449e-06
9.55725e-07
1.31667e-06
-2.23264e-07
1.31392e-06
2.71871e-07
1.39058e-06
8.51077e-07
1.32092e-06
-6.91023e-07
1.25989e-06
-1.31158e-06
1.39075e-06
1.46251e-06
1.29915e-06
1.40062e-07
1.33054e-06
7.10271e-07
1.3427e-06
1.17792e-06
1.2883e-06
1.54134e-07
1.36566e-06
7.43634e-07
1.32692e-06
2.75993e-07
1.35656e-06
7.76993e-07
1.33976e-06
-2.72181e-08
1.35275e-06
9.72307e-08
1.3335e-06
-3.17719e-07
1.33419e-06
-3.9851e-07
1.33048e-06
-3.49133e-07
-3.9153e-07
1.3255e-06
1.44242e-06
9.21661e-07
1.39032e-06
-1.71168e-07
1.37584e-06
2.86353e-07
1.44604e-06
7.80876e-07
1.38952e-06
-6.34506e-07
1.33207e-06
-1.25413e-06
1.4466e-06
1.34799e-06
1.37894e-06
2.0772e-07
1.38783e-06
7.0138e-07
1.42514e-06
1.14061e-06
1.36008e-06
2.19199e-07
1.40798e-06
6.95732e-07
1.38955e-06
2.94425e-07
1.40672e-06
7.59822e-07
1.39415e-06
-1.46512e-08
1.40471e-06
8.66739e-08
1.38851e-06
-3.01523e-07
1.38879e-06
-3.98792e-07
1.38414e-06
-3.44482e-07
-3.84906e-07
1.37752e-06
1.50286e-06
8.94474e-07
1.46804e-06
-1.36342e-07
1.44381e-06
3.10582e-07
1.50273e-06
7.21951e-07
1.45944e-06
-5.91216e-07
1.40915e-06
-1.20383e-06
1.50116e-06
1.25599e-06
1.45996e-06
2.4892e-07
1.45426e-06
7.07081e-07
1.49842e-06
1.09645e-06
1.43771e-06
2.79899e-07
1.45637e-06
6.77073e-07
1.45119e-06
2.99611e-07
1.4675e-06
7.43509e-07
1.45761e-06
-4.76294e-09
1.46753e-06
7.67516e-08
1.45372e-06
-2.87712e-07
1.45259e-06
-3.97655e-07
1.44613e-06
-3.38022e-07
-3.76546e-07
1.43777e-06
1.56693e-06
8.73757e-07
1.54776e-06
-1.17165e-07
1.51841e-06
3.39933e-07
1.56306e-06
6.77295e-07
1.53186e-06
-5.6002e-07
1.48828e-06
-1.16025e-06
1.55522e-06
1.18905e-06
1.53847e-06
2.65667e-07
1.52967e-06
7.15883e-07
1.56857e-06
1.05755e-06
1.51997e-06
3.28504e-07
1.51953e-06
6.77507e-07
1.51798e-06
3.01166e-07
1.5374e-06
7.2409e-07
1.52971e-06
2.92664e-09
1.53929e-06
6.71684e-08
1.52606e-06
-2.74481e-07
1.52309e-06
-3.94687e-07
1.51395e-06
-3.28883e-07
-3.66129e-07
1.50354e-06
1.63556e-06
8.58326e-07
1.62824e-06
-1.09844e-07
1.59924e-06
3.68937e-07
1.62921e-06
6.47323e-07
1.60748e-06
-5.38288e-07
1.5679e-06
-1.12068e-06
1.61257e-06
1.14438e-06
1.61519e-06
2.63043e-07
1.60999e-06
7.21084e-07
1.64024e-06
1.0273e-06
1.60467e-06
3.64074e-07
1.59621e-06
6.85969e-07
1.59338e-06
3.03997e-07
1.61513e-06
7.02336e-07
1.60843e-06
9.62799e-09
1.61805e-06
5.75467e-08
1.60378e-06
-2.60211e-07
1.59856e-06
-3.89469e-07
1.58682e-06
-3.17136e-07
-3.53012e-07
1.5737e-06
1.70921e-06
8.46692e-07
1.70933e-06
-1.09962e-07
1.68515e-06
3.93108e-07
1.70226e-06
6.30218e-07
1.68627e-06
-5.223e-07
1.64854e-06
-1.08295e-06
1.67779e-06
1.11514e-06
1.69283e-06
2.47997e-07
1.691e-06
7.22914e-07
1.71459e-06
1.00371e-06
1.69055e-06
3.88121e-07
1.68199e-06
6.94528e-07
1.67765e-06
3.08336e-07
1.7004e-06
6.79586e-07
1.69308e-06
1.69524e-08
1.70249e-06
4.81316e-08
1.6864e-06
-2.44118e-07
1.67837e-06
-3.81446e-07
1.66458e-06
-3.03345e-07
-3.36994e-07
1.64856e-06
1.78791e-06
8.37505e-07
1.79169e-06
-1.13746e-07
1.77495e-06
4.09848e-07
1.78217e-06
6.22999e-07
1.76808e-06
-5.0821e-07
1.7318e-06
-1.04667e-06
1.75326e-06
1.09367e-06
1.77344e-06
2.27822e-07
1.77135e-06
7.25005e-07
1.79155e-06
9.8351e-07
1.77739e-06
4.02284e-07
1.77329e-06
6.9862e-07
1.76921e-06
3.12416e-07
1.79251e-06
6.56284e-07
1.78361e-06
2.58612e-08
1.79197e-06
3.97648e-08
1.77378e-06
-2.25929e-07
1.76258e-06
-3.70242e-07
1.74722e-06
-2.87982e-07
-3.18375e-07
1.7286e-06
1.8715e-06
8.29749e-07
1.87638e-06
-1.18628e-07
1.86785e-06
4.18381e-07
1.86833e-06
6.22517e-07
1.85299e-06
-4.92866e-07
1.81904e-06
-1.01272e-06
1.83851e-06
1.07421e-06
1.85787e-06
2.08457e-07
1.8526e-06
7.30275e-07
1.87158e-06
9.64536e-07
1.86563e-06
4.08236e-07
1.86797e-06
6.96274e-07
1.86592e-06
3.14473e-07
1.88988e-06
6.32322e-07
1.87934e-06
3.63969e-08
1.88596e-06
3.31487e-08
1.8658e-06
-2.05765e-07
1.85143e-06
-3.55877e-07
1.83473e-06
-2.71277e-07
-2.9761e-07
1.81396e-06
1.95987e-06
8.22721e-07
1.96438e-06
-1.23142e-07
1.96348e-06
4.19286e-07
1.96007e-06
6.25924e-07
1.94136e-06
-4.74159e-07
1.91089e-06
-9.82251e-07
1.93153e-06
1.05357e-06
1.9466e-06
1.93383e-07
1.93778e-06
7.39096e-07
1.95607e-06
9.46252e-07
1.9563e-06
4.08002e-07
1.96502e-06
6.87548e-07
1.96585e-06
3.13652e-07
1.99051e-06
6.07663e-07
1.97878e-06
4.81192e-08
1.98356e-06
2.83688e-08
1.96203e-06
-1.8423e-07
1.94504e-06
-3.38889e-07
1.92717e-06
-2.53407e-07
-2.75052e-07
1.90461e-06
2.05299e-06
8.15923e-07
2.05638e-06
-1.26534e-07
2.06165e-06
4.14016e-07
2.05683e-06
6.30739e-07
2.03382e-06
-4.51143e-07
2.00737e-06
-9.558e-07
2.03028e-06
1.03065e-06
2.04016e-06
1.83505e-07
2.02966e-06
7.49593e-07
2.04674e-06
9.29175e-07
2.05089e-06
4.03855e-07
2.06445e-06
6.73984e-07
2.06782e-06
3.10282e-07
2.09283e-06
5.8265e-07
2.08032e-06
6.0633e-08
2.08369e-06
2.50008e-08
2.06178e-06
-1.62323e-07
2.04318e-06
-3.20284e-07
2.02461e-06
-2.34841e-07
-2.51045e-07
2.0006e-06
2.15092e-06
8.09008e-07
2.15278e-06
-1.28397e-07
2.1624e-06
4.04399e-07
2.15821e-06
6.34925e-07
2.13116e-06
-4.24086e-07
2.10818e-06
-9.32828e-07
2.13332e-06
1.00551e-06
2.13898e-06
1.77843e-07
2.12953e-06
7.5905e-07
2.14472e-06
9.13983e-07
2.15073e-06
3.97843e-07
2.16693e-06
6.57788e-07
2.17162e-06
3.05589e-07
2.19628e-06
5.57987e-07
2.18312e-06
7.37924e-08
2.18558e-06
2.25439e-08
2.16433e-06
-1.41074e-07
2.14531e-06
-3.01259e-07
2.12691e-06
-2.16446e-07
-2.26199e-07
2.10207e-06
2.25375e-06
8.01743e-07
2.25386e-06
-1.28506e-07
2.26613e-06
3.92129e-07
2.26393e-06
6.37125e-07
2.23413e-06
-3.94283e-07
2.21306e-06
-9.11757e-07
2.2399e-06
9.78672e-07
2.24307e-06
1.74674e-07
2.23668e-06
7.65435e-07
2.24981e-06
9.00855e-07
2.25627e-06
3.91387e-07
2.27313e-06
6.40924e-07
2.27779e-06
3.00934e-07
2.30137e-06
5.34405e-07
2.28759e-06
8.75669e-08
2.28941e-06
2.07274e-08
2.26942e-06
-1.21085e-07
2.25089e-06
-2.82728e-07
2.23372e-06
-1.99273e-07
-2.01472e-07
2.20899e-06
2.36164e-06
7.93984e-07
2.35995e-06
-1.26816e-07
2.3736e-06
3.78472e-07
2.37394e-06
6.36787e-07
2.34313e-06
-3.63477e-07
2.32205e-06
-8.90677e-07
2.34997e-06
9.50753e-07
2.352e-06
1.72651e-07
2.34935e-06
7.6808e-07
2.36082e-06
8.89385e-07
2.36696e-06
3.85243e-07
2.38327e-06
6.24618e-07
2.38716e-06
2.97041e-07
2.40933e-06
5.12232e-07
2.39514e-06
1.0176e-07
2.39639e-06
1.94769e-08
2.37763e-06
-1.02321e-07
2.35985e-06
-2.64952e-07
2.34468e-06
-1.84102e-07
-1.77816e-07
2.32103e-06
2.47476e-06
7.8562e-07
2.47144e-06
-1.23499e-07
2.48558e-06
3.64333e-07
2.48841e-06
6.33961e-07
2.45813e-06
-3.33197e-07
2.43569e-06
-8.68241e-07
2.46399e-06
9.22454e-07
2.46523e-06
1.71415e-07
2.46619e-06
7.67115e-07
2.47661e-06
8.78968e-07
2.48202e-06
3.79831e-07
2.49721e-06
6.0943e-07
2.50043e-06
2.93826e-07
2.52152e-06
4.91135e-07
2.5074e-06
1.15884e-07
2.50823e-06
1.86508e-08
2.49028e-06
-8.43799e-08
2.47283e-06
-2.47498e-07
2.45988e-06
-1.71153e-07
-1.55692e-07
2.43776e-06
2.59336e-06
7.76558e-07
2.58876e-06
-1.18904e-07
2.6026e-06
3.50498e-07
2.60759e-06
6.28964e-07
2.57888e-06
-3.04483e-07
2.55459e-06
-8.43954e-07
2.58247e-06
8.94572e-07
2.58249e-06
1.714e-07
2.58709e-06
7.62517e-07
2.59684e-06
8.69209e-07
2.60113e-06
3.75542e-07
2.615e-06
5.9556e-07
2.61796e-06
2.90868e-07
2.63879e-06
4.70306e-07
2.62538e-06
1.29297e-07
2.62613e-06
1.78959e-08
2.60878e-06
-6.70272e-08
2.59089e-06
-2.29613e-07
2.57984e-06
-1.601e-07
-1.34998e-07
2.55915e-06
2.71766e-06
7.66728e-07
2.71218e-06
-1.13429e-07
2.72497e-06
3.37708e-07
2.73175e-06
6.22191e-07
2.70529e-06
-2.78021e-07
2.67904e-06
-8.17705e-07
2.70577e-06
8.67841e-07
2.70403e-06
1.73138e-07
2.71262e-06
7.53928e-07
2.72185e-06
8.59975e-07
2.72465e-06
3.72749e-07
2.73718e-06
5.8303e-07
2.74007e-06
2.87977e-07
2.76143e-06
4.4894e-07
2.74926e-06
1.41474e-07
2.75039e-06
1.67671e-08
2.73389e-06
-5.05352e-08
2.71496e-06
-2.10679e-07
2.70533e-06
-1.50469e-07
-1.15432e-07
2.68576e-06
2.84789e-06
7.56102e-07
2.84186e-06
-1.07395e-07
2.85311e-06
3.26463e-07
2.86117e-06
6.14127e-07
2.83747e-06
-2.54319e-07
2.809e-06
-7.89238e-07
2.83422e-06
8.42625e-07
2.8306e-06
1.76757e-07
2.84329e-06
7.41238e-07
2.85209e-06
8.51176e-07
2.85329e-06
3.71549e-07
2.8646e-06
5.71714e-07
2.86724e-06
2.8534e-07
2.88957e-06
4.26607e-07
2.87886e-06
1.52189e-07
2.88062e-06
1.49998e-08
2.86569e-06
-3.55999e-08
2.84544e-06
-1.90434e-07
2.83691e-06
-1.41931e-07
-9.69912e-08
2.81846e-06
2.98431e-06
7.44683e-07
2.97788e-06
-1.00962e-07
2.98752e-06
3.16824e-07
2.99627e-06
6.05372e-07
2.97563e-06
-2.33672e-07
2.94452e-06
-7.5813e-07
2.96838e-06
8.18767e-07
2.96315e-06
1.81983e-07
2.97935e-06
7.25037e-07
2.98789e-06
8.42642e-07
2.98784e-06
3.71597e-07
2.9982e-06
5.61351e-07
3.00019e-06
2.83348e-07
3.02355e-06
4.03255e-07
3.0142e-06
1.61536e-07
3.01652e-06
1.26741e-08
3.00392e-06
-2.2991e-08
2.9824e-06
-1.68914e-07
2.97474e-06
-1.34277e-07
-8.01203e-08
2.95787e-06
3.12721e-06
7.32483e-07
3.12038e-06
-9.41318e-08
3.12878e-06
3.08425e-07
3.13759e-06
5.96555e-07
3.11997e-06
-2.16044e-07
3.08596e-06
-7.24126e-07
3.10901e-06
7.95717e-07
3.10253e-06
1.88469e-07
3.12115e-06
7.06417e-07
3.12963e-06
8.34155e-07
3.12901e-06
3.72222e-07
3.13878e-06
5.51581e-07
3.1397e-06
2.82424e-07
3.16394e-06
3.79015e-07
3.1557e-06
1.69776e-07
3.15812e-06
1.02524e-08
3.14845e-06
-1.33153e-08
3.12585e-06
-1.46318e-07
3.11875e-06
-1.27176e-07
-6.55637e-08
3.10419e-06
3.2769e-06
7.19492e-07
3.26957e-06
-8.67967e-08
3.27731e-06
3.0068e-07
3.28567e-06
5.8819e-07
3.27072e-06
-2.01091e-07
3.23395e-06
-6.87353e-07
3.25684e-06
7.72829e-07
3.24928e-06
1.9603e-07
3.26924e-06
6.86453e-07
3.27787e-06
8.2552e-07
3.27736e-06
3.72738e-07
3.28695e-06
5.41987e-07
3.28641e-06
2.82961e-07
3.31134e-06
3.54088e-07
3.30398e-06
1.77134e-07
3.30578e-06
8.4606e-09
3.29936e-06
-6.90162e-09
3.27609e-06
-1.23048e-07
3.26888e-06
-1.19964e-07
-5.40717e-08
3.25739e-06
3.43375e-06
7.05675e-07
3.42574e-06
-7.87859e-08
3.43341e-06
2.93009e-07
3.44099e-06
5.80612e-07
3.42823e-06
-1.8833e-07
3.3891e-06
-6.48226e-07
3.41232e-06
7.49613e-07
3.4037e-06
2.04649e-07
3.42427e-06
6.65879e-07
3.43323e-06
8.16558e-07
3.43331e-06
3.72659e-07
3.44317e-06
5.32129e-07
3.44083e-06
2.85304e-07
3.46616e-06
3.28754e-07
3.45962e-06
1.83673e-07
3.45999e-06
8.0948e-09
3.45684e-06
-3.75336e-09
3.43363e-06
-9.98343e-08
3.42531e-06
-1.11649e-07
-4.60896e-08
3.41733e-06
3.59811e-06
6.90974e-07
3.58923e-06
-6.99004e-08
3.59729e-06
2.8495e-07
3.60393e-06
5.73969e-07
3.59289e-06
-1.77293e-07
3.5519e-06
-6.07231e-07
3.57566e-06
7.2585e-07
3.56598e-06
2.14324e-07
3.58678e-06
6.4508e-07
3.59625e-06
8.07092e-07
3.59716e-06
3.71747e-07
3.60772e-06
5.2157e-07
3.60334e-06
2.89688e-07
3.62867e-06
3.03425e-07
3.62309e-06
1.89246e-07
3.62129e-06
9.90183e-09
3.62106e-06
-3.53239e-09
3.59889e-06
-7.76648e-08
3.58851e-06
-1.01268e-07
-4.14252e-08
3.58385e-06
3.77036e-06
6.75317e-07
3.76039e-06
-5.99326e-08
3.76919e-06
2.76159e-07
3.77487e-06
5.6828e-07
3.76515e-06
-1.67569e-07
3.72272e-06
-5.64801e-07
3.74697e-06
7.016e-07
3.73636e-06
2.24934e-07
3.75723e-06
6.24208e-07
3.76736e-06
7.96966e-07
3.76914e-06
3.69964e-07
3.78082e-06
5.09896e-07
3.77434e-06
2.96164e-07
3.7991e-06
2.78665e-07
3.79482e-06
1.93529e-07
3.79028e-06
1.44414e-08
3.79229e-06
-5.54628e-09
3.77222e-06
-5.7594e-08
3.75929e-06
-8.83349e-08
-3.91416e-08
3.757e-06
3.95087e-06
6.58636e-07
3.93962e-06
-4.86859e-08
3.94941e-06
2.66376e-07
3.9542e-06
5.63488e-07
3.94541e-06
-1.58783e-07
3.90192e-06
-5.21314e-07
3.92639e-06
6.77131e-07
3.91513e-06
2.36196e-07
3.93605e-06
6.03291e-07
3.94693e-06
7.86082e-07
3.94947e-06
3.67423e-07
3.96263e-06
4.96743e-07
3.95424e-06
3.04545e-07
3.97777e-06
2.55142e-07
3.97521e-06
1.96086e-07
3.96766e-06
2.19912e-08
3.97091e-06
-8.79733e-09
3.95384e-06
-4.05207e-08
3.93856e-06
-7.30562e-08
-3.76913e-08
3.93711e-06
4.14001e-06
6.40875e-07
4.12733e-06
-3.59999e-08
4.13831e-06
2.55396e-07
4.14229e-06
5.59501e-07
4.13405e-06
-1.50538e-07
4.08988e-06
-4.77149e-07
4.11418e-06
6.52832e-07
4.10266e-06
2.47714e-07
4.12367e-06
5.82286e-07
4.13535e-06
7.74406e-07
4.13842e-06
3.64353e-07
4.15332e-06
4.81833e-07
4.14346e-06
3.14407e-07
4.16503e-06
2.33573e-07
4.1647e-06
1.9642e-07
4.15418e-06
3.25059e-08
4.15744e-06
-1.20561e-08
4.14398e-06
-2.70603e-08
4.12708e-06
-5.61583e-08
-3.53411e-08
4.12473e-06
4.33818e-06
6.22001e-07
4.32395e-06
-2.17752e-08
4.33628e-06
2.43064e-07
4.33957e-06
5.56219e-07
4.33144e-06
-1.42409e-07
4.28703e-06
-4.32743e-07
4.31074e-06
6.29124e-07
4.2994e-06
2.59053e-07
4.32054e-06
5.61143e-07
4.33302e-06
7.61927e-07
4.33631e-06
3.61067e-07
4.35309e-06
4.65046e-07
4.34238e-06
3.25119e-07
4.36128e-06
2.14679e-07
4.36363e-06
1.94062e-07
4.35054e-06
4.55951e-08
4.3525e-06
-1.40135e-08
4.34284e-06
-1.73973e-08
4.32542e-06
-3.87405e-08
-3.06701e-08
4.32075e-06
4.54576e-06
6.02011e-07
4.52998e-06
-5.9897e-09
4.54375e-06
2.29292e-07
4.54643e-06
5.53535e-07
4.53798e-06
-1.33957e-07
4.49383e-06
-3.88594e-07
4.51656e-06
6.06396e-07
4.50579e-06
2.69829e-07
4.52709e-06
5.39838e-07
4.5404e-06
7.48619e-07
4.54354e-06
3.57924e-07
4.56215e-06
4.46432e-07
4.55135e-06
3.35928e-07
4.56689e-06
1.99138e-07
4.57222e-06
1.8873e-07
4.55727e-06
6.05403e-08
4.55671e-06
-1.34528e-08
4.55064e-06
-1.13266e-08
4.53396e-06
-2.20567e-08
-2.29839e-08
4.52627e-06
4.7632e-06
5.80927e-07
4.74591e-06
1.13005e-08
4.76111e-06
2.14087e-07
4.76333e-06
5.5132e-07
4.75415e-06
-1.24773e-07
4.71078e-06
-3.4523e-07
4.73222e-06
5.8496e-07
4.72229e-06
2.79754e-07
4.74371e-06
5.18423e-07
4.75791e-06
7.34416e-07
4.76057e-06
3.55266e-07
4.78078e-06
4.26222e-07
4.77066e-06
3.46047e-07
4.78234e-06
1.87456e-07
4.79053e-06
1.80538e-07
4.77481e-06
7.62611e-08
4.77079e-06
-9.42823e-09
4.76762e-06
-8.16012e-09
4.75292e-06
-7.35335e-09
-1.24874e-08
4.74242e-06
4.99093e-06
5.58792e-07
4.97226e-06
2.99756e-08
4.98878e-06
1.97562e-07
4.9907e-06
5.49399e-07
4.98043e-06
-1.145e-07
4.93838e-06
-3.03178e-07
4.95829e-06
5.6505e-07
4.9494e-06
2.88645e-07
4.97079e-06
4.9703e-07
4.98598e-06
7.1923e-07
4.98788e-06
3.5336e-07
5.00931e-06
4.04795e-07
5.00063e-06
3.5473e-07
5.00816e-06
1.79926e-07
5.01874e-06
1.69949e-07
5.0035e-06
9.15101e-08
4.99565e-06
-1.57906e-09
4.99416e-06
-6.67497e-09
4.98243e-06
4.37504e-09
-1.52702e-10
4.9701e-06
5.22945e-06
5.35657e-07
5.20955e-06
4.98741e-08
5.22717e-06
1.79941e-07
5.22904e-06
5.47531e-07
5.21737e-06
-1.0283e-07
5.17715e-06
-2.62959e-07
5.19535e-06
5.4685e-07
5.18759e-06
2.96407e-07
5.20879e-06
4.75829e-07
5.22502e-06
7.03005e-07
5.226e-06
3.52379e-07
5.24817e-06
3.82621e-07
5.24158e-06
3.61324e-07
5.24491e-06
1.76597e-07
5.25713e-06
1.57727e-07
5.24358e-06
1.05059e-07
5.23215e-06
9.85692e-09
5.23077e-06
-5.29889e-09
5.22256e-06
1.25887e-08
1.25117e-08
5.20989e-06
5.47927e-06
5.11576e-07
5.45833e-06
7.08154e-08
5.47673e-06
1.61538e-07
5.47887e-06
5.45396e-07
5.46551e-06
-8.94763e-08
5.42762e-06
-2.25068e-07
5.44398e-06
5.30495e-07
5.43736e-06
3.03025e-07
5.45823e-06
4.54963e-07
5.47549e-06
6.85737e-07
5.47548e-06
3.5239e-07
5.49787e-06
3.60231e-07
5.49389e-06
3.65304e-07
5.49323e-06
1.77262e-07
5.50612e-06
1.4483e-07
5.49532e-06
1.15865e-07
5.48093e-06
2.4247e-08
5.47829e-06
-2.66388e-09
5.47333e-06
1.75521e-08
2.39167e-08
5.46193e-06
5.74093e-06
4.86607e-07
5.71913e-06
9.26099e-08
5.73794e-06
1.42736e-07
5.74074e-06
5.4259e-07
5.7254e-06
-7.41378e-08
5.69026e-06
-1.89921e-07
5.70475e-06
5.16002e-07
5.6992e-06
3.08574e-07
5.71964e-06
4.34525e-07
5.73792e-06
6.67453e-07
5.73692e-06
3.53395e-07
5.759e-06
3.38147e-07
5.75802e-06
3.66279e-07
5.75379e-06
1.81498e-07
5.76625e-06
1.32365e-07
5.75893e-06
1.23184e-07
5.74255e-06
4.06288e-08
5.73774e-06
2.14666e-09
5.7351e-06
2.01921e-08
3.29097e-08
5.72611e-06
6.01499e-06
4.60807e-07
5.99255e-06
1.15056e-07
6.0113e-06
1.23978e-07
6.01528e-06
5.38614e-07
5.99757e-06
-5.64274e-08
5.96555e-06
-1.57903e-07
5.97825e-06
5.03306e-07
5.97357e-06
3.1325e-07
5.99361e-06
4.14487e-07
6.01287e-06
6.48197e-07
6.0109e-06
3.55357e-07
6.0322e-06
3.16852e-07
6.03443e-06
3.64049e-07
6.02727e-06
1.88658e-07
6.03815e-06
1.21489e-07
6.03463e-06
1.26696e-07
6.01746e-06
5.78032e-08
6.01006e-06
9.54534e-09
6.00847e-06
2.17813e-08
3.90412e-08
6.00234e-06
6.30205e-06
4.34249e-07
6.27917e-06
1.3793e-07
6.29741e-06
1.05743e-07
6.30314e-06
5.32885e-07
6.28264e-06
-3.59281e-08
6.25401e-06
-1.29271e-07
6.26507e-06
4.92236e-07
6.261e-06
3.1733e-07
6.2807e-06
3.94778e-07
6.30095e-06
6.27949e-07
6.29813e-06
3.58175e-07
6.31813e-06
2.96861e-07
6.32366e-06
3.58519e-07
6.31435e-06
1.9796e-07
6.32255e-06
1.13296e-07
6.32279e-06
1.2645e-07
6.30597e-06
7.46281e-08
6.29609e-06
1.94258e-08
6.29443e-06
2.3439e-08
4.27579e-08
6.29071e-06
6.60269e-06
4.07024e-07
6.57966e-06
1.60966e-07
6.59685e-06
8.85566e-08
6.60495e-06
5.24776e-07
6.58135e-06
-1.23227e-08
6.55614e-06
-1.04062e-07
6.56606e-06
4.82315e-07
6.56207e-06
3.2132e-07
6.58149e-06
3.7536e-07
6.60283e-06
6.06606e-07
6.59927e-06
3.61731e-07
6.61751e-06
2.78627e-07
6.62624e-06
3.49788e-07
6.61574e-06
2.08461e-07
6.62038e-06
1.08654e-07
6.62385e-06
1.22981e-07
6.60869e-06
8.9791e-08
6.59647e-06
3.16441e-08
6.59409e-06
2.58215e-08
4.49787e-08
6.59187e-06
6.91755e-06
3.79261e-07
6.89468e-06
1.83842e-07
6.91027e-06
7.29647e-08
6.92127e-06
5.13771e-07
6.89447e-06
1.44767e-08
6.87251e-06
-8.20961e-08
6.8821e-06
4.72719e-07
6.87748e-06
3.25943e-07
6.89656e-06
3.56286e-07
6.91918e-06
5.8398e-07
6.91504e-06
3.65877e-07
6.9311e-06
2.62562e-07
6.94277e-06
3.38117e-07
6.93211e-06
2.19128e-07
6.93277e-06
1.07993e-07
6.93835e-06
1.17402e-07
6.92609e-06
1.02047e-07
6.91193e-06
4.58075e-08
6.90827e-06
2.94763e-08
4.62862e-08
6.90696e-06
7.24728e-06
3.51121e-07
7.22493e-06
2.06192e-07
7.23835e-06
5.95385e-08
7.25268e-06
4.99446e-07
7.22285e-06
4.42999e-08
7.20371e-06
-6.29531e-08
7.2138e-06
4.62632e-07
7.208e-06
3.31741e-07
7.22651e-06
3.37779e-07
7.2506e-06
5.59884e-07
7.24619e-06
3.70294e-07
7.25968e-06
2.49072e-07
7.27388e-06
3.23912e-07
7.26413e-06
2.28877e-07
7.26089e-06
1.11236e-07
7.26716e-06
1.11133e-07
7.25844e-06
1.10769e-07
7.24313e-06
6.11187e-08
7.23777e-06
3.48331e-08
4.70681e-08
7.23699e-06
7.59253e-06
3.22813e-07
7.57114e-06
2.27588e-07
7.58184e-06
4.88356e-08
7.59979e-06
4.81494e-07
7.5674e-06
7.6695e-08
7.55033e-06
-4.58806e-08
7.56173e-06
4.51231e-07
7.55451e-06
3.38953e-07
7.57199e-06
3.20306e-07
7.59771e-06
5.34157e-07
7.59348e-06
3.74524e-07
7.6041e-06
2.38458e-07
7.62027e-06
3.07744e-07
7.61252e-06
2.36628e-07
7.60597e-06
1.17779e-07
7.61143e-06
1.05678e-07
7.60602e-06
1.16182e-07
7.59031e-06
7.68237e-08
7.58316e-06
4.19842e-08
4.75523e-08
7.58267e-06
7.95405e-06
2.94571e-07
7.93404e-06
2.47598e-07
7.94154e-06
4.13397e-08
7.96323e-06
4.59805e-07
7.92912e-06
1.108e-07
7.9129e-06
-2.96569e-08
7.92649e-06
4.37643e-07
7.91795e-06
3.47494e-07
7.93373e-06
3.04521e-07
7.96108e-06
5.0681e-07
7.95771e-06
3.77891e-07
7.96513e-06
2.31041e-07
7.98265e-06
2.90221e-07
7.97794e-06
2.4134e-07
7.96952e-06
1.26193e-07
7.97318e-06
1.02021e-07
7.96966e-06
1.19704e-07
7.95372e-06
9.27626e-08
7.94407e-06
5.16342e-08
4.71772e-08
7.94445e-06
8.33259e-06
2.66664e-07
8.31443e-06
2.65752e-07
8.31837e-06
3.74054e-08
8.34359e-06
4.34582e-07
8.30897e-06
1.45418e-07
8.29222e-06
-1.29017e-08
8.30866e-06
4.21201e-07
8.29931e-06
3.56842e-07
8.31254e-06
2.91293e-07
8.34131e-06
4.78037e-07
8.33959e-06
3.79611e-07
8.34381e-06
2.26826e-07
8.36195e-06
2.72081e-07
8.36038e-06
2.42907e-07
8.35181e-06
1.34761e-07
8.35758e-06
9.62572e-08
8.3653e-06
1.11979e-07
8.3604e-06
9.76632e-08
8.35189e-06
6.01451e-08
5.20312e-08
8.34704e-06
8.72895e-06
2.39375e-07
8.71308e-06
2.81627e-07
8.71323e-06
3.72459e-08
8.74156e-06
4.06258e-07
8.70783e-06
1.79142e-07
8.68922e-06
5.71193e-09
8.70881e-06
4.0161e-07
8.69959e-06
3.66067e-07
8.70937e-06
2.81515e-07
8.73913e-06
4.48271e-07
8.73979e-06
3.78952e-07
8.74112e-06
2.255e-07
8.75919e-06
2.54003e-07
8.76218e-06
2.39926e-07
8.7555e-06
1.41435e-07
8.75945e-06
9.23057e-08
8.76623e-06
1.05199e-07
8.7619e-06
1.01996e-07
8.7506e-06
7.14408e-08
5.66684e-08
8.74597e-06
9.14399e-06
2.13006e-07
9.13083e-06
2.9479e-07
9.12718e-06
4.08925e-08
9.15784e-06
3.75596e-07
9.12646e-06
2.10524e-07
9.10493e-06
2.72365e-08
9.12744e-06
3.79104e-07
9.11969e-06
3.73821e-07
9.12527e-06
2.75929e-07
9.15536e-06
4.18186e-07
9.15903e-06
3.75284e-07
9.15849e-06
2.26038e-07
9.17543e-06
2.37064e-07
9.18132e-06
2.34027e-07
9.17451e-06
1.48253e-07
9.1759e-06
9.09151e-08
9.18389e-06
9.7208e-08
9.18407e-06
1.01818e-07
9.17466e-06
8.08425e-08
6.54642e-08
9.16587e-06
9.57861e-06
1.87857e-07
9.56851e-06
3.04894e-07
9.5612e-06
4.81982e-08
9.59329e-06
3.43504e-07
9.56571e-06
2.38103e-07
9.54056e-06
5.2392e-08
9.56506e-06
3.54601e-07
9.56024e-06
3.78642e-07
9.56168e-06
2.74492e-07
9.59092e-06
3.88942e-07
9.59792e-06
3.68287e-07
9.5967e-06
2.2726e-07
9.61189e-06
2.21874e-07
9.61815e-06
2.2776e-07
9.60786e-06
1.5855e-07
9.59957e-06
9.92034e-08
9.59893e-06
9.78429e-08
9.59196e-06
1.08793e-07
9.58389e-06
8.89067e-08
6.72581e-08
9.5821e-06
1.00338e-05
1.64218e-07
1.0027e-05
3.11633e-07
1.00164e-05
5.88059e-08
1.00488e-05
3.11092e-07
1.00265e-05
2.60446e-07
9.99754e-06
8.13526e-08
1.00225e-05
3.29628e-07
1.00219e-05
3.79298e-07
1.00199e-05
2.7644e-07
1.00468e-05
3.62016e-07
1.00573e-05
3.57857e-07
1.00551e-05
2.2945e-07
1.00675e-05
2.0945e-07
1.00779e-05
2.17339e-07
1.00755e-05
1.60919e-07
1.00751e-05
9.96161e-08
1.00828e-05
9.01772e-08
1.0088e-05
1.03573e-07
1.00823e-05
9.46698e-08
8.05111e-08
1.0069e-05
1.05105e-05
1.42385e-07
1.05074e-05
3.14722e-07
1.04939e-05
7.2279e-08
1.05256e-05
2.79407e-07
1.05095e-05
2.76545e-07
1.04778e-05
1.13032e-07
1.05006e-05
3.0683e-07
1.05051e-05
3.74844e-07
1.0501e-05
2.80479e-07
1.05245e-05
3.38505e-07
1.05376e-05
3.44772e-07
1.0536e-05
2.31083e-07
1.05456e-05
1.9984e-07
1.05537e-05
2.092e-07
1.05474e-05
1.67261e-07
1.05374e-05
1.09613e-07
1.05354e-05
9.21362e-08
1.05337e-05
1.05358e-07
1.05285e-05
9.9835e-08
8.26924e-08
1.05263e-05
1.10098e-05
1.22607e-07
1.10106e-05
3.13961e-07
1.09948e-05
8.80448e-08
1.10246e-05
2.49591e-07
1.10153e-05
2.85808e-07
1.09822e-05
1.46148e-07
1.10008e-05
2.88246e-07
1.10105e-05
3.6515e-07
1.10059e-05
2.8511e-07
1.10251e-05
3.19325e-07
1.10395e-05
3.303e-07
1.10385e-05
2.3211e-07
1.10451e-05
1.93263e-07
1.10528e-05
2.01471e-07
1.10494e-05
1.70652e-07
1.10406e-05
1.1842e-07
1.10379e-05
9.4799e-08
1.10395e-05
1.03789e-07
1.1037e-05
1.02343e-07
8.73678e-08
1.10323e-05
1.15329e-05
1.05119e-07
1.15376e-05
3.09234e-07
1.15203e-05
1.05349e-07
1.15471e-05
2.22789e-07
1.15446e-05
2.88326e-07
1.15117e-05
1.78997e-07
1.15251e-05
2.74886e-07
1.15387e-05
3.51517e-07
1.15352e-05
2.8861e-07
1.15499e-05
3.04662e-07
1.15644e-05
3.15762e-07
1.15643e-05
2.32234e-07
1.15688e-05
1.88698e-07
1.15766e-05
1.93768e-07
1.15757e-05
1.71534e-07
1.15683e-05
1.25797e-07
1.15647e-05
9.84291e-08
1.15668e-05
1.01686e-07
1.15663e-05
1.02816e-07
9.19657e-08
1.15617e-05
1.20809e-05
9.00746e-08
1.20896e-05
3.00518e-07
1.20714e-05
1.2355e-07
1.20942e-05
1.99952e-07
1.20976e-05
2.84895e-07
1.20673e-05
2.09302e-07
1.2075e-05
2.67194e-07
1.20908e-05
3.35754e-07
1.20896e-05
2.89758e-07
1.21006e-05
2.93717e-07
1.21145e-05
3.01875e-07
1.21152e-05
2.31484e-07
1.21183e-05
1.85668e-07
1.21258e-05
1.86277e-07
1.21269e-05
1.70367e-07
1.21213e-05
1.31421e-07
1.21173e-05
1.02378e-07
1.21184e-05
1.00669e-07
1.21195e-05
1.01675e-07
9.5253e-08
1.21162e-05
1.26551e-05
7.75757e-08
1.26675e-05
2.88068e-07
1.26494e-05
1.41717e-07
1.26674e-05
1.81906e-07
1.26758e-05
2.7649e-07
1.26498e-05
2.35298e-07
1.26523e-05
2.64711e-07
1.26682e-05
3.19848e-07
1.267e-05
2.87962e-07
1.26785e-05
2.85232e-07
1.26912e-05
2.89187e-07
1.26928e-05
2.29862e-07
1.2695e-05
1.83506e-07
1.2702e-05
1.79255e-07
1.27046e-05
1.6775e-07
1.27005e-05
1.35513e-07
1.26965e-05
1.0642e-07
1.26964e-05
1.00707e-07
1.26985e-05
9.96619e-08
9.65093e-08
1.26972e-05
1.32569e-05
6.75963e-08
1.32726e-05
2.72385e-07
1.32554e-05
1.58943e-07
1.32679e-05
1.69333e-07
1.32803e-05
2.64114e-07
1.32602e-05
2.55404e-07
1.32585e-05
2.66439e-07
1.32727e-05
3.05605e-07
1.32773e-05
2.8343e-07
1.32845e-05
2.77954e-07
1.32959e-05
2.77814e-07
1.32985e-05
2.27272e-07
1.33002e-05
1.81838e-07
1.33062e-05
1.73193e-07
1.33098e-05
1.64165e-07
1.33073e-05
1.38074e-07
1.33038e-05
1.09876e-07
1.33032e-05
1.01355e-07
1.33048e-05
9.80133e-08
9.61546e-08
1.33052e-05
1.38877e-05
6.00187e-08
1.39058e-05
2.54292e-07
1.38906e-05
1.74166e-07
1.38976e-05
1.62389e-07
1.39126e-05
2.49038e-07
1.38992e-05
2.68796e-07
1.38946e-05
2.71062e-07
1.39062e-05
2.94067e-07
1.39128e-05
2.76808e-07
1.39199e-05
2.70843e-07
1.39301e-05
2.67563e-07
1.39334e-05
2.24052e-07
1.39347e-05
1.80455e-07
1.39399e-05
1.68043e-07
1.39442e-05
1.59842e-07
1.39431e-05
1.39181e-07
1.39401e-05
1.12918e-07
1.39391e-05
1.02337e-07
1.39402e-05
9.68897e-08
9.48704e-08
1.39415e-05
1.45491e-05
5.45905e-08
1.45686e-05
2.34778e-07
1.45563e-05
1.86457e-07
1.4558e-05
1.60657e-07
1.45743e-05
2.32832e-07
1.45674e-05
2.75639e-07
1.45617e-05
2.76722e-07
1.45704e-05
2.85383e-07
1.45781e-05
2.69129e-07
1.45856e-05
2.6335e-07
1.45951e-05
2.58081e-07
1.45987e-05
2.20401e-07
1.46001e-05
1.79066e-07
1.46044e-05
1.6374e-07
1.46089e-05
1.55371e-07
1.46091e-05
1.39018e-07
1.46067e-05
1.15245e-07
1.46057e-05
1.03328e-07
1.46067e-05
9.59733e-08
9.34884e-08
1.4608e-05
1.52425e-05
5.09685e-08
1.52624e-05
2.14913e-07
1.52537e-05
1.95123e-07
1.52512e-05
1.63161e-07
1.52667e-05
2.17286e-07
1.52657e-05
2.76684e-07
1.52608e-05
2.81647e-07
1.52669e-05
2.79233e-07
1.52748e-05
2.61221e-07
1.52829e-05
2.55267e-07
1.5292e-05
2.48979e-07
1.52961e-05
2.16346e-07
1.52975e-05
1.77592e-07
1.53011e-05
1.60165e-07
1.53055e-05
1.5101e-07
1.53067e-05
1.37756e-07
1.53054e-05
1.16581e-07
1.53043e-05
1.04422e-07
1.53051e-05
9.51745e-08
9.21309e-08
1.53065e-05
1.59695e-05
4.87617e-08
1.59887e-05
1.95714e-07
1.59841e-05
1.99752e-07
1.59786e-05
1.68674e-07
1.59917e-05
2.04199e-07
1.59954e-05
2.73007e-07
1.59926e-05
2.84441e-07
1.59971e-05
2.74718e-07
1.60047e-05
2.53596e-07
1.60132e-05
2.46723e-07
1.60223e-05
2.39941e-07
1.60267e-05
2.11898e-07
1.60284e-05
1.75923e-07
1.60315e-05
1.57089e-07
1.60357e-05
1.46792e-07
1.60376e-05
1.35855e-07
1.60373e-05
1.16831e-07
1.60364e-05
1.05332e-07
1.60369e-05
9.46721e-08
9.06855e-08
1.60384e-05
1.67318e-05
4.75887e-08
1.67496e-05
1.77926e-07
1.67487e-05
2.00583e-07
1.67417e-05
1.75747e-07
1.67507e-05
1.9518e-07
1.6758e-05
2.65636e-07
1.67585e-05
2.83984e-07
1.67624e-05
2.70833e-07
1.67695e-05
2.46528e-07
1.67782e-05
2.38005e-07
1.67873e-05
2.30807e-07
1.67923e-05
2.06952e-07
1.67943e-05
1.7389e-07
1.6797e-05
1.54391e-07
1.68011e-05
1.42669e-07
1.68033e-05
1.33634e-07
1.68039e-05
1.1623e-07
1.68037e-05
1.05609e-07
1.68038e-05
9.45252e-08
8.91911e-08
1.68053e-05
1.75308e-05
4.71074e-08
1.75468e-05
1.61947e-07
1.75491e-05
1.98269e-07
1.7542e-05
1.82834e-07
1.75469e-05
1.90301e-07
1.75565e-05
2.56055e-07
1.75606e-05
2.79932e-07
1.75645e-05
2.66844e-07
1.7571e-05
2.40113e-07
1.75796e-05
2.29398e-07
1.75888e-05
2.21597e-07
1.75942e-05
2.01523e-07
1.75968e-05
1.7129e-07
1.75993e-05
1.51947e-07
1.76032e-05
1.3872e-07
1.76058e-05
1.30991e-07
1.76069e-05
1.15215e-07
1.76074e-05
1.05041e-07
1.76075e-05
9.44237e-08
8.79697e-08
1.76088e-05
1.83684e-05
4.70153e-08
1.83823e-05
1.48065e-07
1.83872e-05
1.93392e-07
1.83813e-05
1.8875e-07
1.83836e-05
1.88017e-07
1.83935e-05
2.46163e-07
1.84006e-05
2.72835e-07
1.84052e-05
2.6215e-07
1.84112e-05
2.34209e-07
1.84194e-05
2.21152e-07
1.84285e-05
2.12465e-07
1.84344e-05
1.95693e-07
1.84375e-05
1.68108e-07
1.844e-05
1.4949e-07
1.84437e-05
1.35058e-07
1.84468e-05
1.27863e-07
1.84481e-05
1.13927e-07
1.84492e-05
1.03917e-07
1.84498e-05
9.37981e-08
8.71831e-08
1.84506e-05
1.92464e-05
4.70504e-08
1.9258e-05
1.36408e-07
1.9265e-05
1.86454e-07
1.92608e-05
1.92891e-07
1.92617e-05
1.87123e-07
1.9271e-05
2.36823e-07
1.92802e-05
2.63663e-07
1.9286e-05
2.56365e-07
1.92917e-05
2.2854e-07
1.92995e-05
2.13369e-07
1.93084e-05
2.03497e-07
1.93146e-05
1.89501e-07
1.93183e-05