/*--------------------------------*- C++ -*----------------------------------*\
| =========                 |                                                 |
| \\      /  F ield         | OpenFOAM: The Open Source CFD Toolbox           |
|  \\    /   O peration     | Version:  v1912                                 |
|   \\  /    A nd           | Website:  www.openfoam.com                      |
|    \\/     M anipulation  |                                                 |
\*---------------------------------------------------------------------------*/
FoamFile
{
    version     2.0;
    format      ascii;
    class       volScalarField;
    location    "7.4";
    object      p;
}
// * * * * * * * * * * * * * * * * * * * * * * * * * * * * * * * * * * * * * //

dimensions      [0 2 -2 0 0 0 0];


internalField   nonuniform List<scalar> 
9600
(
1.24175e-10
0.00147507
-0.00766351
0.000467054
0.00863944
0.00335906
0.00336646
0.00689226
0.00468278
0.00671504
0.00524796
0.0052525
0.0069793
0.00553172
0.00501562
0.00679565
0.00694753
0.00868755
0.00679544
0.0104441
1.63205e-06
0.00144662
-0.00763668
0.000476238
0.00859515
0.00337969
0.00338084
0.00687342
0.00469871
0.0066524
0.0052524
0.00526951
0.00694846
0.00558966
0.0050335
0.00679429
0.00696529
0.0084515
0.00696322
0.0102132
5.25211e-07
0.00141311
-0.00761369
0.000488627
0.0085654
0.00339396
0.00337703
0.00684849
0.00471072
0.00659286
0.00527315
0.00530026
0.00691989
0.00561211
0.00505124
0.00678097
0.00698834
0.00834568
0.00707458
0.00993124
-3.16923e-06
0.00137569
-0.00758775
0.000529818
0.00853563
0.00340504
0.00337761
0.00682276
0.0047196
0.00653147
0.00530096
0.00534438
0.00687814
0.00564942
0.00506962
0.00676087
0.00702138
0.00822206
0.00715401
0.00965625
-9.2815e-06
0.00133736
-0.00754908
0.000595223
0.0084937
0.00341801
0.00337958
0.00679558
0.00472893
0.00646463
0.00533242
0.00538938
0.00682534
0.00569384
0.00509149
0.0067369
0.00705896
0.00809804
0.00721068
0.0093986
-1.75609e-05
0.00130295
-0.00748859
0.00066687
0.00842987
0.00343567
0.00339244
0.00676699
0.00473977
0.00639233
0.00536535
0.00542968
0.0067703
0.00574009
0.00511811
0.0067118
0.0071014
0.00797833
0.00724919
0.00916055
-2.73714e-05
0.00127604
-0.0073995
0.00073275
0.00834412
0.00345856
0.00341223
0.0067375
0.00475219
0.00631648
0.00539918
0.00546669
0.00671642
0.00578115
0.00514904
0.00668723
0.00714756
0.00786608
0.00727197
0.00893892
-3.80001e-05
0.00125812
-0.00727803
0.000788656
0.00823898
0.00348485
0.00343778
0.00670755
0.00476613
0.0062392
0.00543466
0.00550198
0.00666303
0.0058208
0.00518233
0.00666275
0.0071949
0.007764
0.0072803
0.00873161
-4.88192e-05
0.00124886
-0.00712384
0.000835402
0.00811919
0.00351168
0.00346796
0.00667766
0.00478174
0.00616197
0.0054724
0.00553607
0.00660902
0.00585494
0.00521546
0.00663787
0.0072411
0.00767247
0.00727368
0.00853848
-5.93491e-05
0.00124763
-0.00694028
0.00087594
0.00798957
0.00353653
0.00350169
0.00664826
0.00479936
0.00608548
0.00551246
0.00556909
0.00655411
0.00588321
0.00524709
0.00661318
0.00728347
0.00758905
0.00725261
0.00835995
-6.92691e-05
0.00125346
-0.00673317
0.000912743
0.0078533
0.00355793
0.00353795
0.00661928
0.00481925
0.0060098
0.00555442
0.00560118
0.00649854
0.00590626
0.00527706
0.00658918
0.00731959
0.00751156
0.00721848
0.0081934
-7.84058e-05
0.00126126
-0.00650909
0.000946897
0.0077119
0.00357536
0.00357583
0.00659027
0.00484141
0.00593468
0.00559768
0.00563245
0.00644275
0.00592553
0.00530527
0.00656576
0.00734841
0.00743888
0.0071711
0.00803315
-8.66734e-05
0.00127208
-0.00627382
0.000978562
0.00756603
0.00358887
0.00361472
0.00656075
0.00486571
0.00585984
0.00564153
0.00566295
0.00638717
0.00594234
0.00533137
0.00654304
0.00737003
0.00736915
0.00711021
0.00787489
-9.39482e-05
0.00128518
-0.00603159
0.00100775
0.00741615
0.0035988
0.0036543
0.00653046
0.00489193
0.00578503
0.00568519
0.00569288
0.00633197
0.00595774
0.00535515
0.00652111
0.00738456
0.00729996
0.00703893
0.00771792
-0.000100055
0.00129977
-0.00578493
0.00103471
0.00726287
0.00360564
0.00369448
0.00649942
0.0049199
0.00571008
0.0057279
0.00572259
0.00627704
0.00597274
0.00537669
0.00649918
0.00739263
0.00722971
0.0069606
0.00756331
-0.000104813
0.00131516
-0.00553512
0.00106007
0.00710709
0.00361011
0.00373523
0.00646773
0.00494947
0.00563499
0.00576891
0.00575266
0.00622233
0.00598805
0.0053964
0.00647623
0.0073959
0.0071576
0.00687578
0.00741181
-0.000108027
0.00133071
-0.00528258
0.00108468
0.00694976
0.00361291
0.00377651
0.00643556
0.00498048
0.00555988
0.00580748
0.00578397
0.00616786
0.0060039
0.00541506
0.00645101
0.00739634
0.00708367
0.00678404
0.00726504
-0.000109481
0.00134582
-0.00502734
0.00110949
0.00679183
0.00361459
0.00381811
0.00640306
0.00501286
0.00548496
0.00584288
0.00581757
0.00611353
0.00602022
0.00543386
0.0064217
0.00739544
0.0070094
0.00668485
0.00712546
-0.000108949
0.00136011
-0.0047692
0.00113516
0.00663416
0.00361569
0.00385974
0.00637031
0.00504652
0.00541062
0.00587431
0.00585452
0.00605943
0.00603626
0.00545432
0.00638668
0.00739337
0.00693685
0.00657712
0.00699477
-0.0001062
0.00137337
-0.00450789
0.00116209
0.00647742
0.00361661
0.00390101
0.00633737
0.00508127
0.00533726
0.00590102
0.0058956
0.00600564
0.00605067
0.00547828
0.00634467
0.00738895
0.00686893
0.00645962
0.00687268
-0.000100992
0.00138549
-0.00424322
0.00119043
0.00632208
0.00361752
0.00394141
0.00630435
0.00511693
0.00526529
0.00592229
0.00594128
0.00595209
0.00606167
0.00550742
0.00629513
0.00738048
0.00680889
0.00633139
0.00675672
-9.30789e-05
0.0013965
-0.00397519
0.0012201
0.00616839
0.00361848
0.00398041
0.00627135
0.00515336
0.00519512
0.00593734
0.0059917
0.0058991
0.00606716
0.00554272
0.00623864
0.00736538
0.00675946
0.00619303
0.00664292
-8.22186e-05
0.00140645
-0.00370398
0.00125083
0.00601647
0.00361969
0.00401749
0.00623833
0.00519045
0.00512713
0.00594537
0.00604684
0.00584736
0.00606506
0.00558463
0.00617667
0.0073405
0.00672164
0.00604665
0.00652551
-6.81704e-05
0.00141539
-0.00343001
0.00128245
0.00586643
0.00362136
0.00405218
0.00620516
0.00522815
0.00506166
0.00594564
0.00610643
0.00579798
0.00605346
0.00563318
0.00611155
0.00730251
0.00669787
0.00589637
0.00639701
-5.06996e-05
0.00142339
-0.00315384
0.00131485
0.00571834
0.00362374
0.00408402
0.00617168
0.00526659
0.00499914
0.00593746
0.00616983
0.00575255
0.00603103
0.00568754
0.00604622
0.00724782
0.0066897
0.00574969
0.0062498
-2.9575e-05
0.0014305
-0.0028761
0.00134809
0.0055723
0.00362726
0.00411272
0.00613762
0.00530586
0.00493999
0.00592029
0.00623629
0.00571285
0.00599678
0.00574591
0.00598431
0.00717398
0.00669455
0.00561617
0.00607786
-4.57901e-06
0.0014368
-0.0025975
0.00138234
0.00542839
0.00363245
0.00413815
0.00610251
0.00534602
0.00488462
0.00589366
0.00630495
0.00568073
0.00594978
0.00580606
0.00592995
0.00708019
0.00670742
0.00550568
0.00587958
2.44756e-05
0.00144247
-0.00231874
0.00141781
0.00528667
0.00363984
0.00416031
0.00606568
0.00538716
0.00483381
0.00585697
0.00637463
0.00565811
0.00588954
0.00586566
0.00588713
0.00697029
0.00672071
0.00542778
0.00566094
5.77505e-05
0.00144777
-0.00204058
0.00145483
0.00514715
0.00364992
0.00417934
0.00602641
0.00542942
0.00478842
0.0058097
0.0064439
0.00564698
0.00581619
0.00592179
0.00585942
0.00684031
0.00672551
0.00538968
0.00543567
9.53715e-05
0.00145303
-0.00176379
0.00149378
0.00500984
0.00366301
0.00419558
0.00598393
0.00547256
0.00474955
0.00575169
0.00651097
0.00564915
0.00573054
0.00597017
0.00584993
0.00669748
0.00671354
0.0053936
0.00522209
0.000137446
0.00145863
-0.00148921
0.00153508
0.00487481
0.00367927
0.00420977
0.00593725
0.00551593
0.00471855
0.00568313
0.00657344
0.0056664
0.00563387
0.00600576
0.00586197
0.0065486
0.00667654
0.00543376
0.00503986
0.000184024
0.00146509
-0.00121772
0.00157908
0.0047422
0.0036987
0.00422288
0.00588579
0.00555864
0.00469644
0.00560464
0.00662865
0.00570069
0.00552802
0.00602324
0.00589824
0.0064032
0.00660687
0.00549543
0.00490979
0.000235099
0.00147297
-0.000950145
0.00162613
0.00461226
0.00372091
0.00423614
0.0058295
0.0055993
0.0046842
0.00551758
0.00667343
0.00575332
0.00541629
0.00601695
0.00595818
0.00627082
0.00650189
0.00556104
0.00484516
0.000290644
0.00148283
-0.000687331
0.00167657
0.00448546
0.00374502
0.0042508
0.00576842
0.00563613
0.0046828
0.00542398
0.00670384
0.0058241
0.00530419
0.00598192
0.00603605
0.00616285
0.0063671
0.00561288
0.0048431
0.000350585
0.0014952
-0.000429981
0.00173064
0.00436243
0.00376994
0.0042677
0.00570358
0.00566751
0.00469246
0.00532627
0.00671656
0.00591163
0.00519829
0.0059147
0.00612384
0.00608933
0.00621239
0.005636
0.004888
0.000414838
0.00151065
-0.000178698
0.0017884
0.00424386
0.00379482
0.00428742
0.00563664
0.00569197
0.00471278
0.00522714
0.0067088
0.00601314
0.00510585
0.00581317
0.00621138
0.00605921
0.00604973
0.00562037
0.00495999
0.000483344
0.00152965
6.60195e-05
0.00184971
0.00413068
0.00381901
0.00431012
0.00556952
0.00570835
0.00474271
0.00512962
0.00667801
0.00612392
0.00503596
0.00567788
0.0062846
0.00608006
0.00589428
0.00556215
0.00504013
0.000556011
0.00155256
0.000303973
0.00191436
0.00402375
0.00384216
0.0043353
0.0055038
0.00571641
0.00478066
0.0050364
0.0066235
0.00623727
0.00499729
0.00551532
0.00632671
0.00615135
0.00576284
0.00546104
0.0051101
0.000632779
0.00157961
0.000535079
0.00198207
0.00392362
0.00386429
0.00436225
0.00544039
0.00571657
0.00482533
0.00494934
0.00654559
0.00634671
0.00499435
0.00533555
0.00632248
0.006261
0.00567942
0.00532562
0.00514731
0.000713663
0.00161089
0.000759371
0.00205255
0.00383046
0.00388591
0.00439013
0.00538029
0.00570964
0.00487534
0.0048704
0.00644538
0.00644582
0.00502833
0.00515119
0.00626232
0.00638835
0.00566957
0.00518373
0.00513301
0.000798697
0.00164641
0.000976866
0.00212582
0.00374417
0.00390771
0.00441908
0.00532367
0.00569602
0.00492987
0.00480111
0.00632467
0.00652878
0.00509652
0.00497507
0.00614799
0.00650541
0.00572792
0.00507152
0.00507503
0.000888016
0.00168588
0.00118746
0.00219926
0.003664
0.00393008
0.00444999
0.00526941
0.00567598
0.00498795
0.00474316
0.00618648
0.00659094
0.0051945
0.00481604
0.00598326
0.0065896
0.00583953
0.00501501
0.00500366
0.000981697
0.00172911
0.00139093
0.00228015
0.00358935
0.00395315
0.00448405
0.00521652
0.00564917
0.00504868
0.00469981
0.00603488
0.00662619
0.00531711
0.00469044
0.00577421
0.00661927
0.00598154
0.00501856
0.00495043
0.00107997
0.00177586
0.00158678
0.00236641
0.00351953
0.00397608
0.00452354
0.00516523
0.00561385
0.00511191
0.00467215
0.00587476
0.00663255
0.00545413
0.00462427
0.00555912
0.00659614
0.00614265
0.005076
0.004875
0.00118295
0.00182617
0.0017744
0.0024592
0.00345407
0.003997
0.00457024
0.00511751
0.00556917
0.00517439
0.00466496
0.0057128
0.00660447
0.00560297
0.00461543
0.00535971
0.00652286
0.00628234
0.00516495
0.00477417
0.00129076
0.00188011
0.00195295
0.00255946
0.00339354
0.00401225
0.00462554
0.00507566
0.00551211
0.00523304
0.00468318
0.0055541
0.0065387
0.00575374
0.00465906
0.00518983
0.00641088
0.00640135
0.00527914
0.0046555
0.00140359
0.00193778
0.00212176
0.00266759
0.00334042
0.00401814
0.00468843
0.00504788
0.00544251
0.00528414
0.00472478
0.00541222
0.00644166
0.00587782
0.00474319
0.00502935
0.00621802
0.006424
0.00541118
0.00466265
0.00152117
0.00199971
0.00227994
0.00278342
0.00329708
0.00401198
0.00478275
0.00504184
0.00536487
0.00531847
0.00479006
0.00529377
0.00631062
0.00597808
0.00488373
0.00493509
0.00601348
0.00640943
0.00553926
0.00463965
0.00164374
0.00206633
0.00242672
0.00290607
0.00326677
0.0039912
0.00485379
0.00506246
0.00528407
0.00532963
0.0048743
0.00520814
0.00615692
0.00602822
0.00502629
0.00488617
0.00580038
0.00631229
0.00564306
0.0047123
0.00177116
0.00213797
0.00256156
0.00303396
0.00325343
0.00395608
0.004916
0.00511007
0.00521009
0.00531438
0.00496649
0.00516038
0.00598989
0.00602277
0.00516443
0.00488284
0.00559827
0.00617463
0.00572447
0.00485044
0.00190304
0.00221525
0.00268404
0.00316535
0.00326006
0.00390878
0.00496059
0.00518215
0.00515628
0.00527449
0.00504878
0.00514592
0.00583278
0.0059761
0.00527779
0.00491217
0.0054383
0.00602296
0.00577941
0.00500966
0.00203943
0.0022985
0.00279428
0.00329761
0.00328924
0.0038542
0.00498141
0.00527198
0.00513135
0.00521607
0.00510577
0.00515911
0.00570585
0.00589966
0.00535414
0.00496828
0.00532924
0.00586641
0.00580464
0.00517532
0.00217928
0.00238851
0.00289307
0.0034275
0.00334279
0.00379894
0.00497258
0.00536583
0.005142
0.00515061
0.00513243
0.00519008
0.00561264
0.00581486
0.00540171
0.00502919
0.00526189
0.00572388
0.00579704
0.00534135
0.00232205
0.00248606
0.0029818
0.00355147
0.00342085
0.00374977
0.00493215
0.00545225
0.00518802
0.005092
0.00513068
0.00522533
0.00555392
0.00573643
0.00542474
0.00508007
0.00523389
0.00562015
0.00575158
0.00548193
0.00246645
0.0025917
0.00306285
0.00366595
0.00352166
0.00371509
0.00486279
0.00551598
0.00526439
0.00505656
0.00510872
0.00525236
0.00552298
0.00567217
0.00543384
0.0051247
0.00522489
0.00555452
0.00568647
0.00556794
0.00261136
0.00270566
0.00313937
0.00376806
0.00364078
0.00370159
0.00476646
0.00554787
0.0053619
0.00505404
0.00507716
0.00526308
0.00551094
0.00562869
0.00543904
0.00516495
0.00521471
0.00551379
0.00564268
0.00560127
0.0027558
0.00282761
0.00321468
0.00385601
0.00377088
0.00371476
0.00465584
0.00554057
0.00546081
0.00508594
0.00505097
0.00525992
0.0055078
0.00560553
0.00544632
0.00520466
0.00520636
0.00548131
0.00563398
0.00561116
0.00289902
0.00295666
0.00329228
0.00392903
0.00390361
0.0037596
0.00455774
0.00549165
0.00554579
0.00515139
0.00504274
0.00524738
0.00550463
0.00559806
0.0054607
0.00524878
0.0052098
0.00543763
0.00563546
0.00563696
0.00304046
0.00309142
0.00337457
0.00398819
0.00403039
0.00383693
0.004476
0.00540328
0.00560211
0.00524195
0.00505978
0.00523076
0.0054971
0.0056022
0.00548333
0.00529579
0.00523307
0.0053956
0.00562623
0.0056886
0.00317952
0.00323024
0.0034628
0.00403685
0.00414482
0.00394019
0.0044207
0.00529278
0.00562106
0.00534092
0.00510597
0.00522132
0.00548249
0.00561045
0.00551432
0.00534275
0.0052756
0.00537919
0.00559677
0.00573374
0.00331577
0.00337105
0.0035576
0.0040788
0.00424412
0.00405702
0.00439766
0.00518529
0.00560603
0.0054307
0.00517665
0.00522751
0.00546248
0.00561422
0.00555505
0.00539413
0.00532159
0.00539183
0.00556912
0.00575566
0.00344898
0.00351152
0.00365902
0.00411829
0.00432766
0.00417751
0.00440652
0.00509335
0.00556529
0.00550044
0.00526046
0.00525288
0.00544693
0.00560951
0.00559862
0.00545819
0.00536582
0.00542051
0.0055686
0.00576442
0.00357896
0.00364947
0.00376631
0.00415936
0.00439654
0.00429876
0.00444215
0.00502399
0.00551031
0.00554752
0.00534907
0.00529677
0.00544393
0.00559994
0.00563075
0.00553456
0.00542395
0.0054515
0.00558845
0.00577518
0.00370553
0.00378328
0.003878
0.0042051
0.00445378
0.00441038
0.00449645
0.00498085
0.00545329
0.00557328
0.0054347
0.00535543
0.00545486
0.00559634
0.00564838
0.00560733
0.00550569
0.00548871
0.00561155
0.00579822
0.0038285
0.00391201
0.00399205
0.00425723
0.00450314
0.00451154
0.00458516
0.00496424
0.00540407
0.00558206
0.00550937
0.00542472
0.00547927
0.00560425
0.0056644
0.00566004
0.00559677
0.0055493
0.0056398
0.00583039
0.00394778
0.004035
0.00410619
0.00431632
0.00454795
0.00459959
0.004661
0.00497017
0.00536799
0.00558132
0.00556991
0.00549851
0.0055171
0.00562081
0.00568946
0.00569931
0.00567613
0.00563282
0.00568395
0.0058668
0.00406302
0.00415177
0.0042184
0.004382
0.00459118
0.00467578
0.00473908
0.00499475
0.00534658
0.0055791
0.00561985
0.00557066
0.00556867
0.00564481
0.00572035
0.00574221
0.00573649
0.00571847
0.00574874
0.00591074
0.00417399
0.00426202
0.00432676
0.00445302
0.00463499
0.00474226
0.0048158
0.0050326
0.00533953
0.00557881
0.0056626
0.00563821
0.00563122
0.00568205
0.00575129
0.00579123
0.00579171
0.00579228
0.00582506
0.00596695
0.00428009
0.00436557
0.00442993
0.00452778
0.00468058
0.00480047
0.00488966
0.00508053
0.00534733
0.00558322
0.0056999
0.00570114
0.00569861
0.00573703
0.00578745
0.00583873
0.00585289
0.00585793
0.00590049
0.0060306
0.00438075
0.00446202
0.00452647
0.00460413
0.00472982
0.00485263
0.00495687
0.00513419
0.00536958
0.00559597
0.00573328
0.00576052
0.00576646
0.00580577
0.00584002
0.005884
0.00591716
0.00592701
0.00597362
0.00609882
0.00447515
0.00455148
0.00461542
0.00467909
0.00478193
0.00490169
0.00501834
0.00518848
0.00540285
0.00561935
0.00576537
0.00581779
0.00583537
0.00587946
0.00591354
0.00593815
0.00598003
0.00600259
0.00604916
0.00617145
0.00456211
0.00463299
0.00469662
0.0047512
0.00482834
0.00494685
0.0050753
0.00524214
0.00544202
0.0056524
0.00580038
0.00587396
0.00590841
0.00595471
0.00600084
0.00601474
0.00604818
0.0060832
0.00612978
0.0062478
0.00464049
0.00470665
0.00476875
0.00482191
0.00488259
0.00499085
0.00512541
0.00529447
0.00548426
0.00568943
0.00583949
0.00593052
0.00598669
0.00603597
0.00609481
0.00611668
0.00613821
0.00617659
0.00622353
0.00633279
0.00470848
0.0047715
0.00483234
0.00488068
0.00493402
0.00503628
0.00517085
0.00533999
0.00552985
0.0057296
0.00587875
0.00598725
0.00606757
0.00612722
0.00619752
0.00624157
0.0062644
0.00630382
0.00635482
0.00645545
0.00476356
0.00482468
0.00488829
0.0049327
0.00497963
0.00507863
0.0052143
0.00538104
0.00557165
0.00576875
0.00590958
0.00603022
0.00613382
0.00620677
0.0062809
0.00633981
0.00637938
0.00643024
0.00651231
0.0066403
0.00480516
0.00486721
0.00493756
0.00497393
0.00502346
0.00511706
0.00524896
0.00542341
0.00562631
0.00584694
0.00601887
0.00616746
0.00631273
0.00642125
0.0065018
0.00653877
0.00652439
0.00648867
0.00647315
0.00650763
0.00482991
0.00488241
0.00491715
0.00499797
0.00506224
0.00515737
0.00525863
0.00538201
0.00552025
0.00568022
0.00586533
0.00609286
0.0063304
0.00654079
0.00673477
0.00692539
0.00713388
0.00737006
0.0076254
0.00785273
0.00483306
0.00491019
0.00496864
0.00503996
0.00510937
0.00521663
0.00534606
0.00551964
0.00573844
0.0059674
0.00615077
0.00632361
0.00649604
0.00662908
0.00672807
0.00677397
0.00675771
0.00669918
0.00663507
0.00661804
0.00478327
0.00483877
0.00495418
0.00508235
0.00518208
0.00529215
0.00540284
0.00555031
0.00572224
0.00590653
0.00607346
0.00622426
0.00641796
0.00663719
0.00686292
0.00711754
0.00738515
0.00765082
0.00788131
0.00804372
0.00477565
0.0048501
0.0049792
0.00510843
0.00521374
0.00532926
0.00543329
0.00558051
0.0057827
0.00599617
0.00620228
0.0063817
0.00656967
0.00678507
0.0069834
0.00716813
0.00733724
0.00748367
0.00759026
0.00763349
0.0134214
0.00930271
0.00259359
-0.00257906
-0.0034949
-0.00199169
-0.000415245
0.000684375
0.00141424
0.00207985
0.00292826
0.00385452
0.00450803
0.00481004
0.00508089
0.00542151
0.00581791
0.00643818
0.00713262
0.00759291
0.00796013
0.00843912
0.00895334
0.00943069
0.00987438
0.0102492
0.0105974
0.0110052
0.0114613
0.011953
0.0124445
0.0129339
0.0134384
0.0139257
0.0144103
0.0149229
0.0154614
0.0160034
0.0165317
0.0171181
0.0176655
0.0179522
0.0180408
0.0182225
0.0186116
0.0190944
0.0196665
0.0204791
0.0213685
0.0220314
0.0226171
0.0233556
0.0239657
0.0242739
0.0246202
0.0251948
0.0259056
0.0266431
0.0273798
0.0280809
0.0287277
0.0293881
0.0300681
0.0307851
0.0315274
0.0322746
0.0329713
0.033626
0.0343879
0.035307
0.0362001
0.0370339
0.0379034
0.0387762
0.0396772
0.0405561
0.0414805
0.0424154
0.0434299
0.0445052
0.0455393
0.0464972
0.0474566
0.048544
0.0496463
0.050775
0.0519347
0.0531134
0.0541992
0.0553658
0.0565707
0.0577404
0.0590378
0.0603265
0.0615832
0.0629106
0.0641261
0.0654056
0.0665618
0.0675562
0.0129102
0.00918122
0.00268605
-0.00242671
-0.00340235
-0.00194538
-0.000388388
0.000700818
0.00142527
0.00208789
0.00293498
0.0038613
0.00451508
0.00481634
0.0050862
0.00542601
0.00582128
0.00644097
0.00713564
0.00759571
0.0079623
0.00844103
0.00895517
0.00943238
0.00987599
0.0102507
0.0105986
0.0110064
0.0114625
0.0119542
0.0124457
0.012935
0.0134396
0.0139268
0.0144114
0.014924
0.0154625
0.0160044
0.0165325
0.0171189
0.0176666
0.0179533
0.0180417
0.0182232
0.0186123
0.019095
0.019667
0.0204796
0.0213692
0.022032
0.0226175
0.0233561
0.0239664
0.0242745
0.0246205
0.0251952
0.0259059
0.0266435
0.0273802
0.0280812
0.0287281
0.0293884
0.0300684
0.0307854
0.0315277
0.0322748
0.0329715
0.0336262
0.0343881
0.0353072
0.0362003
0.0370341
0.0379036
0.0387764
0.0396774
0.0405563
0.0414807
0.0424156
0.0434301
0.0445054
0.0455395
0.0464974
0.0474567
0.0485441
0.0496464
0.0507751
0.0519348
0.0531136
0.0541993
0.0553659
0.0565708
0.0577405
0.0590379
0.0603266
0.0615833
0.0629107
0.0641262
0.0654056
0.0665618
0.0675562
0.0123644
0.00901366
0.00285398
-0.00215221
-0.00325407
-0.00189128
-0.000357812
0.00072411
0.00144218
0.00210007
0.00294376
0.00386772
0.00452031
0.00482121
0.0050913
0.005431
0.00582518
0.00644411
0.00713869
0.00759831
0.00796436
0.00844294
0.00895693
0.009434
0.00987756
0.010252
0.0105996
0.0110073
0.0114634
0.0119551
0.0124466
0.0129359
0.0134406
0.0139278
0.0144123
0.0149249
0.0154633
0.0160052
0.0165332
0.0171197
0.0176677
0.0179543
0.0180423
0.0182236
0.0186127
0.0190955
0.0196672
0.02048
0.0213699
0.0220326
0.0226177
0.0233566
0.0239671
0.0242749
0.0246207
0.0251954
0.0259062
0.0266438
0.0273805
0.0280815
0.0287284
0.0293886
0.0300686
0.0307856
0.0315279
0.0322751
0.0329718
0.0336264
0.0343882
0.0353074
0.0362005
0.0370342
0.0379037
0.0387765
0.0396775
0.0405564
0.0414808
0.0424157
0.0434302
0.0445055
0.0455396
0.0464975
0.0474568
0.0485442
0.0496465
0.0507752
0.0519349
0.0531137
0.0541994
0.055366
0.0565709
0.0577406
0.059038
0.0603266
0.0615834
0.0629108
0.0641263
0.0654057
0.066562
0.0675563
0.0118424
0.0088529
0.00307247
-0.00180418
-0.00304918
-0.00181084
-0.000307523
0.000764224
0.00147181
0.00212194
0.0029589
0.0038763
0.00452507
0.00482569
0.00509754
0.00543865
0.00583219
0.00644936
0.00714268
0.00760162
0.00796736
0.0084458
0.00895948
0.00943635
0.00987984
0.0102537
0.0106007
0.0110084
0.0114644
0.011956
0.0124474
0.0129367
0.0134413
0.0139286
0.0144131
0.0149257
0.0154642
0.0160061
0.016534
0.0171206
0.017669
0.0179555
0.0180428
0.0182239
0.0186132
0.0190959
0.0196673
0.0204804
0.0213708
0.0220333
0.0226179
0.0233572
0.0239681
0.0242754
0.0246208
0.0251956
0.0259065
0.0266442
0.0273808
0.0280819
0.0287287
0.0293889
0.0300689
0.0307858
0.0315281
0.0322753
0.0329721
0.0336265
0.0343883
0.0353075
0.0362007
0.0370344
0.0379039
0.0387767
0.0396777
0.0405565
0.0414809
0.0424158
0.0434303
0.0445056
0.0455398
0.0464976
0.0474569
0.0485443
0.0496466
0.0507753
0.051935
0.0531138
0.0541995
0.0553661
0.056571
0.0577407
0.059038
0.0603267
0.0615835
0.0629109
0.0641264
0.0654058
0.0665622
0.0675564
0.0113447
0.00869518
0.00330164
-0.00143498
-0.00281997
-0.00171723
-0.00024691
0.000816784
0.00151389
0.00215482
0.0029819
0.00388823
0.00453017
0.00483052
0.00510561
0.0054498
0.00584337
0.00645741
0.00714778
0.00760594
0.00797182
0.0084499
0.00896298
0.00943977
0.00988331
0.0102565
0.0106026
0.01101
0.0114658
0.0119571
0.0124483
0.0129374
0.0134419
0.0139292
0.0144139
0.0149265
0.0154649
0.0160069
0.0165349
0.0171218
0.0176707
0.0179569
0.0180435
0.0182242
0.0186138
0.0190963
0.0196673
0.0204808
0.0213721
0.022034
0.0226181
0.0233579
0.0239692
0.0242759
0.0246209
0.0251958
0.0259069
0.0266446
0.0273813
0.0280824
0.028729
0.0293892
0.0300692
0.0307861
0.0315284
0.0322756
0.0329724
0.0336267
0.0343883
0.0353077
0.036201
0.0370346
0.0379041
0.0387769
0.0396779
0.0405567
0.0414811
0.042416
0.0434303
0.0445058
0.04554
0.0464978
0.0474569
0.0485444
0.0496468
0.0507754
0.0519351
0.0531139
0.0541996
0.0553661
0.0565711
0.0577407
0.0590381
0.0603269
0.0615836
0.062911
0.0641265
0.065406
0.0665625
0.0675566
0.0108658
0.0085266
0.00352227
-0.00106085
-0.00257625
-0.00161683
-0.000183891
0.000874299
0.00156329
0.00219534
0.00301076
0.00390279
0.00453601
0.00483648
0.00511602
0.00546459
0.00585871
0.00646804
0.0071537
0.00761127
0.00797801
0.00845541
0.00896731
0.009444
0.00988783
0.0102604
0.0106057
0.0110128
0.011468
0.0119587
0.0124495
0.0129381
0.0134422
0.0139296
0.0144145
0.014927
0.0154652
0.0160074
0.0165357
0.0171232
0.0176727
0.0179586
0.0180443
0.0182248
0.0186145
0.0190968
0.0196673
0.0204813
0.0213735
0.0220348
0.0226182
0.0233588
0.0239705
0.0242764
0.0246209
0.025196
0.0259073
0.026645
0.0273818
0.0280829
0.0287294
0.0293895
0.0300695
0.0307864
0.0315287
0.0322759
0.0329727
0.0336268
0.0343883
0.035308
0.0362013
0.0370348
0.0379043
0.0387771
0.0396781
0.0405569
0.0414812
0.0424161
0.0434304
0.044506
0.0455403
0.046498
0.047457
0.0485445
0.0496469
0.0507755
0.0519352
0.0531141
0.0541997
0.0553662
0.0565713
0.0577408
0.0590382
0.060327
0.0615837
0.0629111
0.0641266
0.0654062
0.066563
0.0675568
0.0104038
0.00834473
0.00373114
-0.000683551
-0.00231792
-0.00150929
-0.000119808
0.000934115
0.00161711
0.0022407
0.00304338
0.0039192
0.00454268
0.00484377
0.00512867
0.0054824
0.00587708
0.00648027
0.00715989
0.00761724
0.0079857
0.00846231
0.00897239
0.00944864
0.0098928
0.0102649
0.01061
0.0110171
0.0114716
0.0119612
0.0124515
0.0129393
0.0134425
0.0139299
0.0144151
0.0149273
0.0154649
0.0160071
0.0165361
0.0171246
0.0176749
0.0179605
0.0180455
0.018226
0.0186157
0.0190974
0.0196672
0.0204819
0.021375
0.0220356
0.0226183
0.0233598
0.0239719
0.024277
0.024621
0.0251962
0.0259077
0.0266456
0.0273824
0.0280835
0.0287299
0.0293899
0.03007
0.0307868
0.0315291
0.0322764
0.0329732
0.033627
0.0343884
0.0353083
0.0362017
0.037035
0.0379045
0.0387772
0.0396783
0.0405571
0.0414814
0.0424163
0.0434305
0.0445062
0.0455406
0.0464982
0.047457
0.0485446
0.0496471
0.0507757
0.0519354
0.0531143
0.0541999
0.0553663
0.0565714
0.0577409
0.0590383
0.0603271
0.0615838
0.0629113
0.0641268
0.0654064
0.0665636
0.0675572
0.00996301
0.00815322
0.00392669
-0.00030467
-0.00204424
-0.00139293
-5.4192e-05
0.000995487
0.00167402
0.00228941
0.00307874
0.00393728
0.00455031
0.00485212
0.00514294
0.00550226
0.00589736
0.00649344
0.0071661
0.00762345
0.00799432
0.00847034
0.00897822
0.00945344
0.00989757
0.0102693
0.0106145
0.0110225
0.0114766
0.0119651
0.0124544
0.0129413
0.0134432
0.0139304
0.0144159
0.0149276
0.0154642
0.0160059
0.0165355
0.0171253
0.0176767
0.0179623
0.0180469
0.0182278
0.0186178
0.0190986
0.0196675
0.0204829
0.0213766
0.0220361
0.0226182
0.0233608
0.0239735
0.0242777
0.0246212
0.0251966
0.0259082
0.0266462
0.0273831
0.0280842
0.0287305
0.0293905
0.0300705
0.0307874
0.0315296
0.0322769
0.0329737
0.0336273
0.0343885
0.0353087
0.0362021
0.0370352
0.0379047
0.0387775
0.0396785
0.0405573
0.0414816
0.0424164
0.0434306
0.0445064
0.0455409
0.0464984
0.0474571
0.0485447
0.0496473
0.0507758
0.0519355
0.0531145
0.0542
0.0553664
0.0565716
0.057741
0.0590384
0.0603273
0.0615839
0.0629114
0.0641271
0.0654067
0.0665643
0.0675576
0.00955008
0.00795575
0.00410526
7.22952e-05
-0.00175513
-0.00126562
1.37056e-05
0.00105764
0.00173284
0.00234047
0.0031163
0.00395704
0.004559
0.00486134
0.00515832
0.00552351
0.00591895
0.00650734
0.00717246
0.00762976
0.00800341
0.00847914
0.00898472
0.00945838
0.00990188
0.010273
0.0106187
0.0110283
0.0114827
0.0119701
0.0124584
0.0129439
0.0134444
0.0139314
0.0144173
0.0149282
0.0154634
0.0160041
0.0165339
0.0171247
0.0176776
0.0179635
0.0180483
0.01823
0.0186205
0.0191005
0.0196687
0.0204847
0.0213787
0.0220363
0.0226175
0.0233616
0.0239751
0.0242784
0.0246215
0.0251971
0.0259088
0.0266468
0.0273839
0.0280849
0.0287311
0.0293911
0.0300713
0.0307882
0.0315302
0.0322775
0.0329744
0.0336277
0.0343888
0.0353092
0.0362026
0.0370355
0.037905
0.0387777
0.0396788
0.0405575
0.0414818
0.0424166
0.0434306
0.0445066
0.0455413
0.0464986
0.0474571
0.0485448
0.0496474
0.050776
0.0519357
0.0531147
0.0542002
0.0553666
0.0565718
0.0577411
0.0590385
0.0603275
0.061584
0.0629116
0.0641273
0.0654071
0.0665652
0.0675583
0.00916942
0.00775442
0.00426342
0.000443915
-0.00145114
-0.00112575
8.39732e-05
0.00111936
0.00179244
0.00239328
0.00315586
0.0039785
0.00456883
0.0048714
0.00517468
0.00554603
0.00594188
0.00652217
0.00717917
0.00763624
0.00801281
0.00848844
0.00899168
0.00946337
0.00990568
0.0102758
0.0106221
0.0110339
0.0114892
0.0119762
0.0124634
0.0129471
0.0134459
0.013933
0.0144192
0.0149292
0.0154629
0.0160022
0.0165313
0.0171226
0.0176768
0.0179634
0.0180489
0.0182321
0.0186234
0.0191028
0.0196707
0.020488
0.0213819
0.0220364
0.0226159
0.0233616
0.0239763
0.0242791
0.024622
0.0251979
0.0259095
0.0266475
0.0273846
0.0280856
0.0287316
0.0293917
0.0300721
0.030789
0.0315309
0.0322784
0.0329754
0.0336284
0.0343892
0.0353099
0.0362032
0.037036
0.0379054
0.0387781
0.0396791
0.0405578
0.0414821
0.0424168
0.0434307
0.0445069
0.0455417
0.0464989
0.0474571
0.0485449
0.0496476
0.0507762
0.0519359
0.0531149
0.0542004
0.0553668
0.056572
0.0577412
0.0590386
0.0603277
0.0615842
0.0629117
0.0641277
0.0654076
0.0665663
0.067559
0.00882038
0.00755134
0.0044008
0.000807214
-0.00113505
-0.000973102
0.000156707
0.00118008
0.00185239
0.00244776
0.00319747
0.00400178
0.00457993
0.00488247
0.00519219
0.00557008
0.00596652
0.0065383
0.00718641
0.00764298
0.00802253
0.00849814
0.00899892
0.0094683
0.00990893
0.0102779
0.0106249
0.0110391
0.0114958
0.0119829
0.0124692
0.0129507
0.0134477
0.013935
0.0144218
0.0149307
0.0154627
0.0160004
0.016528
0.0171187
0.0176742
0.0179619
0.0180485
0.0182337
0.0186259
0.0191047
0.0196728
0.0204926
0.0213869
0.022037
0.0226135
0.0233605
0.0239766
0.0242791
0.0246224
0.0251989
0.0259106
0.0266485
0.0273855
0.0280863
0.0287321
0.0293923
0.030073
0.03079
0.0315317
0.0322792
0.0329765
0.0336292
0.0343899
0.0353108
0.036204
0.0370366
0.037906
0.0387786
0.0396795
0.0405582
0.0414824
0.0424169
0.0434307
0.0445071
0.0455423
0.0464992
0.0474572
0.048545
0.0496478
0.0507764
0.0519361
0.0531151
0.0542006
0.055367
0.0565722
0.0577413
0.0590388
0.0603279
0.0615845
0.0629119
0.0641281
0.0654083
0.0665676
0.06756
0.00850044
0.00735117
0.00451907
0.00115743
-0.000811844
-0.00080733
0.000233732
0.00124035
0.00191244
0.00250374
0.00324124
0.00402713
0.00459259
0.00489487
0.00521116
0.00559588
0.00599316
0.00655608
0.0071944
0.00765008
0.00803261
0.0085082
0.00900632
0.00947308
0.00991161
0.0102794
0.0106271
0.0110442
0.0115024
0.0119898
0.0124755
0.0129547
0.0134494
0.0139372
0.0144248
0.0149325
0.0154627