/*--------------------------------*- C++ -*----------------------------------*\
| =========                 |                                                 |
| \\      /  F ield         | OpenFOAM: The Open Source CFD Toolbox           |
|  \\    /   O peration     | Version:  v1912                                 |
|   \\  /    A nd           | Website:  www.openfoam.com                      |
|    \\/     M anipulation  |                                                 |
\*---------------------------------------------------------------------------*/
FoamFile
{
    version     2.0;
    format      ascii;
    class       volVectorField;
    location    "4.85";
    object      U;
}
// * * * * * * * * * * * * * * * * * * * * * * * * * * * * * * * * * * * * * //

dimensions      [0 1 -1 0 0 0 0];


internalField   nonuniform List<vector> 
9600
(
(0.987434 0.00578062 0)
(1.02796 -0.0151129 0)
(0.937094 0.0138047 0)
(1.03155 -0.00455547 0)
(0.960498 -0.00353823 0)
(1.02249 -0.0241309 0)
(0.871463 0.0275454 0)
(1.20647 -0.00742793 0)
(0.747071 0.00480127 0)
(1.18931 0.0397791 0)
(0.852532 0.0139765 0)
(1.08359 0.022246 0)
(0.944792 -0.000199469 0)
(1.03546 0.00361232 0)
(0.922982 0.00717263 0)
(1.01911 -0.00961134 0)
(0.894015 0.00635497 0)
(1.02726 -0.019557 0)
(0.848815 -0.000577278 0)
(1.03897 -0.026729 0)
(0.988621 0.0056525 0)
(1.02584 -0.0146489 0)
(0.939713 0.0137583 0)
(1.02523 -0.00465131 0)
(0.962507 -0.00357905 0)
(1.01807 -0.0230077 0)
(0.874696 0.025707 0)
(1.19377 -0.00536381 0)
(0.755691 0.00489673 0)
(1.17783 0.039094 0)
(0.89457 0.015495 0)
(1.06085 0.0210121 0)
(0.978518 0.000841704 0)
(1.01336 0.00418935 0)
(0.965304 0.00759019 0)
(0.979201 -0.008777 0)
(0.953905 0.00585583 0)
(0.963174 -0.0184552 0)
(0.94247 -0.000943048 0)
(0.939268 -0.0272488 0)
(0.99099 0.00554004 0)
(1.02233 -0.0142396 0)
(0.945506 0.0136417 0)
(1.01662 -0.00475153 0)
(0.966729 -0.00357621 0)
(1.01161 -0.0220816 0)
(0.883434 0.0233922 0)
(1.17065 -0.0038502 0)
(0.78771 0.00464209 0)
(1.13905 0.0375822 0)
(0.951177 0.0171439 0)
(1.03027 0.0197985 0)
(0.995836 0.00152365 0)
(0.996679 0.0043121 0)
(0.981376 0.00823191 0)
(0.97178 -0.00847386 0)
(0.966446 0.00592591 0)
(0.966717 -0.0173174 0)
(0.957398 -0.00126891 0)
(0.95395 -0.0214733 0)
(0.994204 0.00544331 0)
(1.01764 -0.0138734 0)
(0.954076 0.0135735 0)
(1.00813 -0.00483129 0)
(0.97222 -0.00359639 0)
(1.00412 -0.0212399 0)
(0.897685 0.0215448 0)
(1.13918 -0.00273016 0)
(0.841035 0.0047922 0)
(1.08065 0.0355016 0)
(0.989375 0.0183481 0)
(1.00721 0.0192929 0)
(0.997534 0.00201231 0)
(0.988527 0.00449694 0)
(0.982882 0.00873188 0)
(0.974423 -0.00813273 0)
(0.968941 0.00598553 0)
(0.970935 -0.0174114 0)
(0.962595 -0.000669816 0)
(0.958422 -0.0206997 0)
(0.997761 0.00535384 0)
(1.01209 -0.0135433 0)
(0.964178 0.0135639 0)
(1.00165 -0.00488493 0)
(0.977407 -0.0036161 0)
(0.996783 -0.0204649 0)
(0.914941 0.0201178 0)
(1.10514 -0.00218819 0)
(0.897854 0.00554031 0)
(1.02525 0.0336136 0)
(1.00395 0.0190344 0)
(0.995735 0.019236 0)
(0.99705 0.00238519 0)
(0.985959 0.00476184 0)
(0.983908 0.00896634 0)
(0.980607 -0.00765735 0)
(0.973168 0.00560892 0)
(0.978489 -0.0165582 0)
(0.968433 -0.00101474 0)
(0.96577 -0.0189195 0)
(1.00124 0.00527811 0)
(1.00606 -0.0132538 0)
(0.974268 0.0135583 0)
(0.998101 -0.00489161 0)
(0.981415 -0.00360835 0)
(0.990394 -0.0197953 0)
(0.932237 0.0189358 0)
(1.07432 -0.00214431 0)
(0.942699 0.00666876 0)
(0.990133 0.0324194 0)
(1.00631 0.0192135 0)
(0.993811 0.0192843 0)
(0.999357 0.00268427 0)
(0.987748 0.00493381 0)
(0.98725 0.00908467 0)
(0.987815 -0.00737015 0)
(0.980101 0.00536605 0)
(0.98668 -0.015915 0)
(0.975936 -0.00121266 0)
(0.973086 -0.0170262 0)
(1.00441 0.0052232 0)
(0.999893 -0.0130085 0)
(0.983186 0.0135185 0)
(0.997184 -0.00483516 0)
(0.984449 -0.00355791 0)
(0.985319 -0.0192613 0)
(0.947984 0.0179761 0)
(1.04959 -0.00240315 0)
(0.970556 0.00782766 0)
(0.977257 0.0317974 0)
(1.00728 0.019015 0)
(0.997705 0.0192487 0)
(1.00353 0.00296842 0)
(0.991874 0.00506893 0)
(0.992004 0.00910959 0)
(0.994268 -0.00713762 0)
(0.987564 0.00503881 0)
(0.994213 -0.0151941 0)
(0.983777 -0.00141815 0)
(0.979914 -0.0150705 0)
(1.00719 0.00519344 0)
(0.993994 -0.012802 0)
(0.990403 0.0134234 0)
(0.997974 -0.00471689 0)
(0.987141 -0.00345717 0)
(0.981754 -0.0188592 0)
(0.96191 0.0172239 0)
(1.03087 -0.00277238 0)
(0.983832 0.00877959 0)
(0.978503 0.0314316 0)
(1.01066 0.0186324 0)
(1.0038 0.01913 0)
(1.00777 0.00330991 0)
(0.996229 0.00519023 0)
(0.996771 0.00909035 0)
(0.999571 -0.00694167 0)
(0.994159 0.0046377 0)
(1.00043 -0.0144267 0)
(0.991008 -0.00164671 0)
(0.986079 -0.0130667 0)
(1.0095 0.00519032 0)
(0.988884 -0.0126242 0)
(0.995844 0.0132587 0)
(0.999549 -0.00455123 0)
(0.989826 -0.00330732 0)
(0.979857 -0.0185713 0)
(0.97394 0.0166361 0)
(1.01686 -0.00309064 0)
(0.987259 0.00943796 0)
(0.98469 0.031087 0)
(1.01524 0.0181941 0)
(1.0095 0.0190002 0)
(1.01118 0.00372933 0)
(0.999886 0.00528868 0)
(1.00082 0.00905041 0)
(1.00385 -0.00676597 0)
(0.999564 0.00417272 0)
(1.00514 -0.0136135 0)
(0.996995 -0.00190262 0)
(0.991348 -0.0110524 0)
(1.0112 0.00521151 0)
(0.98508 -0.0124656 0)
(0.999655 0.0130207 0)
(1.00129 -0.00435603 0)
(0.992428 -0.00311968 0)
(0.97953 -0.0183746 0)
(0.983617 0.0161865 0)
(1.00652 -0.00325406 0)
(0.985108 0.0098067 0)
(0.990119 0.0306371 0)
(1.01892 0.0177459 0)
(1.01364 0.0188913 0)
(1.01364 0.00421795 0)
(1.00288 0.00536149 0)
(1.00419 0.00900354 0)
(1.00726 -0.00659955 0)
(1.00377 0.0036523 0)
(1.00832 -0.0127508 0)
(1.00138 -0.00218088 0)
(0.995396 -0.00910013 0)
(1.01215 0.00525098 0)
(0.982943 -0.0123185 0)
(1.00207 0.0127169 0)
(1.00287 -0.00414421 0)
(0.994813 -0.00291164 0)
(0.980197 -0.018242 0)
(0.990514 0.0158566 0)
(0.999462 -0.00321975 0)
(0.980646 0.00993672 0)
(0.992961 0.030045 0)
(1.02089 0.0172881 0)
(1.01619 0.0187843 0)
(1.0155 0.00475241 0)
(1.00555 0.00541605 0)
(1.0071 0.00893773 0)
(1.00992 -0.00641641 0)
(1.00675 0.0031062 0)
(1.01004 -0.0118274 0)
(1.00406 -0.00248654 0)
(0.998021 -0.00725912 0)
(1.01228 0.00530011 0)
(0.982595 -0.0121778 0)
(1.00335 0.0123626 0)
(1.00408 -0.00392526 0)
(0.997049 -0.00269488 0)
(0.980974 -0.0181466 0)
(0.994828 0.0156126 0)
(0.995455 -0.00299727 0)
(0.976384 0.0098988 0)
(0.994005 0.029321 0)
(1.02164 0.0168064 0)
(1.01771 0.0186494 0)
(1.01709 0.00530381 0)
(1.00811 0.00544817 0)
(1.00965 0.00884847 0)
(1.01189 -0.00618622 0)
(1.00857 0.00257953 0)
(1.01044 -0.010851 0)
(1.00518 -0.0028065 0)
(0.99928 -0.00555974 0)
(1.01163 0.00534914 0)
(0.983887 -0.0120397 0)
(1.00365 0.011979 0)
(1.0048 -0.00371026 0)
(0.999287 -0.00246914 0)
(0.98123 -0.0180606 0)
(0.997265 0.0154059 0)
(0.993973 -0.00262742 0)
(0.974039 0.00975232 0)
(0.994939 0.0284927 0)
(1.02202 0.0162956 0)
(1.01862 0.018471 0)
(1.01848 0.00584962 0)
(1.01048 0.00546317 0)
(1.01175 0.00875915 0)
(1.01319 -0.005881 0)
(1.00936 0.00209902 0)
(1.00984 -0.00982787 0)
(1.00509 -0.00310422 0)
(0.999457 -0.00403407 0)
(1.01038 0.00538869 0)
(0.986408 -0.0119 0)
(1.00311 0.0115888 0)
(1.00496 -0.00351057 0)
(1.00151 -0.00223005 0)
(0.981015 -0.0179577 0)
(0.99841 0.0151836 0)
(0.994164 -0.0021643 0)
(0.974177 0.00952517 0)
(0.996721 0.027603 0)
(1.02238 0.0157808 0)
(1.01895 0.0182521 0)
(1.01935 0.00637909 0)
(1.01236 0.0054811 0)
(1.01317 0.00868443 0)
(1.01379 -0.00548153 0)
(1.00938 0.00168012 0)
(1.00865 -0.00875237 0)
(1.00428 -0.00334706 0)
(0.998951 -0.00270958 0)
(1.0088 0.00541156 0)
(0.989566 -0.011754 0)
(1.00186 0.0112129 0)
(1.00461 -0.00333703 0)
(1.00349 -0.0019805 0)
(0.980927 -0.0178141 0)
(0.998389 0.0149119 0)
(0.995151 -0.00166477 0)
(0.976168 0.00922676 0)
(0.998899 0.0267018 0)
(1.02244 0.0153017 0)
(1.01842 0.0180086 0)
(1.01931 0.00687848 0)
(1.01342 0.00550414 0)
(1.01377 0.00862829 0)
(1.01373 -0.00499198 0)
(1.00891 0.00132317 0)
(1.00724 -0.0076493 0)
(1.00321 -0.00352319 0)
(0.998148 -0.00159488 0)
(1.00719 0.00541395 0)
(0.992749 -0.0115966 0)
(1.00021 0.0108651 0)
(1.00393 -0.00319595 0)
(1.00493 -0.00173629 0)
(0.981555 -0.0176044 0)
(0.997143 0.0145822 0)
(0.99627 -0.00117586 0)
(0.978779 0.00888402 0)
(1.00023 0.0258325 0)
(1.0217 0.0148806 0)
(1.01687 0.017754 0)
(1.01821 0.00734757 0)
(1.01355 0.00551617 0)
(1.01362 0.0085892 0)
(1.01316 -0.00444107 0)
(1.0082 0.00103074 0)
(1.00592 -0.00655096 0)
(1.00226 -0.0036247 0)
(0.997362 -0.000684615 0)
(1.00577 0.00539561 0)
(0.995499 -0.0114234 0)
(0.998493 0.0105498 0)
(1.00309 -0.0030868 0)
(1.00573 -0.0015186 0)
(0.983032 -0.0173103 0)
(0.994897 0.0142064 0)
(0.99713 -0.000726665 0)
(0.98099 0.00852987 0)
(0.999859 0.0250264 0)
(1.01997 0.0145122 0)
(1.01454 0.0174937 0)
(1.0163 0.00777641 0)
(1.01294 0.00550728 0)
(1.01296 0.00855097 0)
(1.01231 -0.0038554 0)
(1.00749 0.000792744 0)
(1.00487 -0.00547779 0)
(1.00164 -0.00363518 0)
(0.996796 2.37829e-05 0)
(1.00467 0.00535939 0)
(0.997599 -0.0112324 0)
(0.997003 0.0102635 0)
(1.00226 -0.00300269 0)
(1.00598 -0.00134558 0)
(0.985051 -0.0169251 0)
(0.992246 0.0138075 0)
(0.997587 -0.000328161 0)
(0.982402 0.00819559 0)
(0.997932 0.0242986 0)
(1.01752 0.0141704 0)
(1.01194 0.0172166 0)
(1.01408 0.00816087 0)
(1.01195 0.00547176 0)
(1.01213 0.00848749 0)
(1.01143 -0.00326053 0)
(1.00691 0.000589742 0)
(1.00414 -0.00444655 0)
(1.00141 -0.00355106 0)
(0.996541 0.000550603 0)
(1.00388 0.00530938 0)
(0.999042 -0.0110238 0)
(0.995894 0.00999824 0)
(1.00151 -0.0029319 0)
(1.00587 -0.00122923 0)
(0.987167 -0.0164518 0)
(0.989863 0.0134013 0)
(0.997675 3.04277e-05 0)
(0.983134 0.00790209 0)
(0.995276 0.0236446 0)
(1.01489 0.0138281 0)
(1.00954 0.0169039 0)
(1.01203 0.00850715 0)
(1.01095 0.00539695 0)
(1.01136 0.00839886 0)
(1.01065 -0.00267526 0)
(1.00654 0.000426437 0)
(1.00368 -0.00347129 0)
(1.00149 -0.00338349 0)
(0.996591 0.000923843 0)
(1.00334 0.00524949 0)
(0.999942 -0.0107993 0)
(0.995179 0.00974616 0)
(1.00086 -0.00286455 0)
(1.00557 -0.00116994 0)
(0.989063 -0.015904 0)
(0.988164 0.0129981 0)
(0.997529 0.000370007 0)
(0.983494 0.00764992 0)
(0.992741 0.0230485 0)
(1.01256 0.0134664 0)
(1.0076 0.0165429 0)
(1.01039 0.00881502 0)
(1.01012 0.00528212 0)
(1.01074 0.00830054 0)
(1.01003 -0.00210272 0)
(1.00636 0.000289137 0)
(1.00341 -0.00256148 0)
(1.00176 -0.0031498 0)
(0.996889 0.00117152 0)
(1.00299 0.00518307 0)
(1.00044 -0.0105608 0)
(0.994788 0.00950018 0)
(1.0003 -0.00279263 0)
(1.0052 -0.00116417 0)
(0.990627 -0.0152957 0)
(0.987218 0.0126014 0)
(0.9973 0.000713738 0)
(0.983757 0.00743112 0)
(0.990789 0.0224917 0)
(1.01072 0.0130809 0)
(1.00611 0.0161276 0)
(1.00915 0.00909246 0)
(1.00948 0.0051408 0)
(1.01026 0.00818107 0)
(1.00951 -0.00154397 0)
(1.00631 0.000168346 0)
(1.00326 -0.00171693 0)
(1.00208 -0.00284773 0)
(0.997364 0.00131274 0)
(1.00277 0.00511253 0)
(1.00068 -0.0103107 0)
(0.994625 0.00925505 0)
(0.999853 -0.00271039 0)
(1.0048 -0.00120639 0)
(0.991872 -0.014641 0)
(0.986862 0.0122072 0)
(0.997101 0.00107663 0)
(0.984086 0.00722937 0)
(0.989489 0.0219585 0)
(1.00934 0.0126824 0)
(1.00494 0.0156605 0)
(1.00817 0.00934913 0)
(1.00897 0.00498001 0)
(1.00984 0.00803844 0)
(1.00901 -0.000978284 0)
(1.00631 7.18729e-05 0)
(1.00317 -0.000932903 0)
(1.00235 -0.00246704 0)
(0.997947 0.00135469 0)
(1.00264 0.00503977 0)
(1.00073 -0.0100507 0)
(0.99461 0.00900676 0)
(0.999508 -0.00261392 0)
(1.00439 -0.00129039 0)
(0.992843 -0.0139523 0)
(0.98687 0.0118123 0)
(0.996997 0.00146124 0)
(0.984561 0.0070347 0)
(0.988705 0.0214382 0)
(1.00831 0.0122916 0)
(1.00397 0.0151477 0)
(1.0073 0.00958762 0)
(1.00849 0.00480623 0)
(1.00938 0.00787731 0)
(1.00847 -0.000392775 0)
(1.00628 -1.92918e-05 0)
(1.00309 -0.000207183 0)
(1.00251 -0.00200759 0)
(0.998581 0.0013243 0)
(1.00257 0.00496583 0)
(1.00068 -0.00978128 0)
(0.994686 0.00875075 0)
(0.999278 -0.00249859 0)
(1.00398 -0.00141242 0)
(0.993565 -0.0132343 0)
(0.987059 0.0114087 0)
(0.997009 0.00186757 0)
(0.985211 0.00684536 0)
(0.988273 0.0209214 0)
(1.00747 0.0119193 0)
(1.0031 0.0145928 0)
(1.00641 0.00981393 0)
(1.00797 0.00463581 0)
(1.00885 0.00767782 0)
(1.00786 0.000222612 0)
(1.00616 -0.000123509 0)
(1.00301 0.000432512 0)
(1.00254 -0.00147156 0)
(0.999211 0.00123377 0)
(1.00253 0.00489121 0)
(1.00058 -0.00950276 0)
(0.994819 0.00848267 0)
(0.999164 -0.00236215 0)
(1.00358 -0.00156378 0)
(0.994033 -0.0124933 0)
(0.987317 0.01099 0)
(0.997125 0.00229127 0)
(0.98603 0.00666324 0)
(0.988088 0.0204138 0)
(1.00675 0.0115764 0)
(1.00234 0.0140004 0)
(1.00549 0.0100225 0)
(1.00742 0.00448452 0)
(1.00824 0.00742352 0)
(1.00717 0.00084926 0)
(1.00593 -0.000227859 0)
(1.00292 0.000955529 0)
(1.00242 -0.000866607 0)
(0.999788 0.00110833 0)
(1.00249 0.00481629 0)
(1.00048 -0.00921534 0)
(0.994987 0.00819959 0)
(0.99916 -0.0022044 0)
(1.0032 -0.001735 0)
(0.994234 -0.0117333 0)
(0.9876 0.0105517 0)
(0.997309 0.00272568 0)
(0.986983 0.0064892 0)
(0.98811 0.0199175 0)
(1.00613 0.0112823 0)
(1.00173 0.013374 0)
(1.00454 0.0102147 0)
(1.00687 0.0043622 0)
(1.00759 0.00712017 0)
(1.00645 0.00147717 0)
(1.00561 -0.000308611 0)
(1.00281 0.00135571 0)
(1.00219 -0.000197855 0)
(1.00027 0.00100112 0)
(1.00244 0.00474076 0)
(1.0004 -0.00891965 0)
(0.995179 0.00789959 0)
(0.999243 -0.00202425 0)
(1.00286 -0.00191581 0)
(0.994169 -0.0109561 0)
(0.987898 0.0100864 0)
(0.997507 0.00315444 0)
(0.988014 0.0063277 0)
(0.988335 0.0194262 0)
(1.00561 0.0110464 0)
(1.00132 0.0127188 0)
(1.00365 0.0103826 0)
(1.00638 0.00428476 0)
(1.00697 0.00676577 0)
(1.00573 0.00211321 0)
(1.00523 -0.000334407 0)
(1.00272 0.00162577 0)
(1.00189 0.000500461 0)
(1.00062 0.000959753 0)
(1.00236 0.00466469 0)
(1.00037 -0.00861654 0)
(0.995385 0.00758097 0)
(0.999383 -0.0018205 0)
(1.00256 -0.00209605 0)
(0.993874 -0.0101618 0)
(0.988216 0.00958731 0)
(0.997663 0.00356685 0)
(0.98906 0.00618217 0)
(0.988764 0.0189317 0)
(1.00522 0.0108668 0)
(1.00119 0.0120518 0)
(1.00287 0.0105148 0)
(1.00603 0.00426584 0)
(1.00645 0.00635361 0)
(1.00508 0.00273705 0)
(1.00485 -0.000272283 0)
(1.00266 0.00175163 0)
(1.00157 0.00117774 0)
(1.00083 0.00102954 0)
(1.00225 0.00458639 0)
(1.0004 -0.00830435 0)
(0.995599 0.00724268 0)
(0.999544 -0.00159551 0)
(1.00232 -0.00226343 0)
(0.993421 -0.00935817 0)
(0.988555 0.0090574 0)
(0.997732 0.00395802 0)
(0.990059 0.00604988 0)
(0.989378 0.0184164 0)
(1.00497 0.0107461 0)
(1.00134 0.0113886 0)
(1.00227 0.0106138 0)
(1.00583 0.0043154 0)
(1.0061 0.00590602 0)
(1.00452 0.00332268 0)
(1.00451 -9.83846e-05 0)
(1.00267 0.00174435 0)
(1.0013 0.00178784 0)
(1.00089 0.00125533 0)
(1.0021 0.00450567 0)
(1.00048 -0.00798583 0)
(0.995813 0.00688529 0)
(0.99969 -0.00134745 0)
(1.00214 -0.00241221 0)
(0.992907 -0.0085484 0)
(0.988911 0.00849614 0)
(0.997691 0.00431763 0)
(0.990967 0.00592792 0)
(0.990123 0.0178655 0)
(1.00484 0.0106863 0)
(1.00173 0.0107381 0)
(1.00186 0.0106609 0)
(1.00577 0.00443861 0)
(1.00593 0.00544296 0)
(1.0041 0.00384018 0)
(1.0042 0.00019648 0)
(1.00275 0.00164887 0)
(1.00111 0.00229599 0)
(1.00084 0.00163217 0)
(1.00193 0.00442271 0)
(1.00061 -0.00766242 0)
(0.996024 0.00651263 0)
(0.999792 -0.00108064 0)
(1.00201 -0.00253906 0)
(0.992433 -0.0077335 0)
(0.989276 0.00791636 0)
(0.997546 0.0046397 0)
(0.991763 0.00581146 0)
(0.990929 0.0172659 0)
(1.00477 0.0106662 0)
(1.0023 0.0101086 0)
(1.00161 0.010652 0)
(1.0058 0.0046413 0)
(1.00593 0.00500024 0)
(1.00381 0.00427369 0)
(1.00394 0.000604081 0)
(1.0029 0.0015266 0)
(1.00106 0.00264823 0)
(1.0007 0.00213863 0)
(1.00175 0.00433449 0)
(1.00076 -0.0073302 0)
(0.996229 0.00612585 0)
(0.999835 -0.000800144 0)
(1.00192 -0.00263923 0)
(0.992081 -0.00692127 0)
(0.989646 0.00733358 0)
(0.997326 0.00491413 0)
(0.992445 0.0057174 0)
(0.991721 0.0166117 0)
(1.00471 0.0106661 0)
(1.00292 0.00951655 0)
(1.00149 0.0105745 0)
(1.00583 0.00490854 0)
(1.00606 0.00460067 0)
(1.00363 0.00460871 0)
(1.00371 0.00110344 0)
(1.00309 0.00143838 0)
(1.00115 0.00281942 0)
(1.00054 0.00269671 0)
(1.00158 0.00424243 0)
(1.0009 -0.00699157 0)
(0.996429 0.00572381 0)
(0.999815 -0.000501379 0)
(1.00185 -0.00271839 0)
(0.991896 -0.00611919 0)
(0.990026 0.00676018 0)
(0.997076 0.00513165 0)
(0.99303 0.00564393 0)
(0.992441 0.0159062 0)
(1.00462 0.0106751 0)
(1.00351 0.00897801 0)
(1.00143 0.0104314 0)
(1.00581 0.0052227 0)
(1.00624 0.00425743 0)
(1.00354 0.00485012 0)
(1.00349 0.00167228 0)
(1.00328 0.00142541 0)
(1.00138 0.00284661 0)
(1.00041 0.00321343 0)
(1.00141 0.00414483 0)
(1.00104 -0.00664455 0)
(0.996626 0.005311 0)
(0.999737 -0.000190036 0)
(1.00178 -0.00278001 0)
(0.991886 -0.0053303 0)
(0.990422 0.0062194 0)
(0.99684 0.00528096 0)
(0.993544 0.00559268 0)
(0.993066 0.0151594 0)
(1.00446 0.0106698 0)
(1.004 0.00850031 0)
(1.0014 0.0102359 0)
(1.00569 0.00556195 0)
(1.00642 0.00399053 0)
(1.00352 0.00499837 0)
(1.00327 0.0022666 0)
(1.00345 0.00151244 0)
(1.00172 0.00276855 0)
(1.00035 0.00362488 0)
(1.00127 0.00404165 0)
(1.00114 -0.00628954 0)
(0.996822 0.00489 0)
(0.999612 0.000131101 0)
(1.00171 -0.00282139 0)
(0.992031 -0.00456654 0)
(0.990839 0.0057253 0)
(0.996653 0.00535576 0)
(0.994012 0.00556856 0)
(0.993593 0.0143908 0)
(1.00423 0.0106415 0)
(1.00435 0.00808187 0)
(1.00138 0.00999191 0)
(1.00545 0.00590808 0)
(1.00656 0.00380277 0)
(1.00355 0.00505798 0)
(1.00305 0.00285627 0)
(1.00355 0.00170485 0)
(1.00212 0.00264378 0)
(1.0004 0.00386888 0)
(1.00114 0.00393374 0)
(1.00123 -0.00592587 0)
(0.997018 0.00445989 0)
(0.999451 0.000457144 0)
(1.00164 -0.00284038 0)
(0.992295 -0.003843 0)
(0.991277 0.00529821 0)
(0.996537 0.00535163 0)
(0.994458 0.00555555 0)
(0.994044 0.0136227 0)
(1.00394 0.0105679 0)
(1.00457 0.00772832 0)
(1.00135 0.00970651 0)
(1.00511 0.00624622 0)
(1.00664 0.00371011 0)
(1.00361 0.00504127 0)
(1.00283 0.00341697 0)
(1.00357 0.0019845 0)
(1.00254 0.00253163 0)
(1.00058 0.00395411 0)
(1.00103 0.00381806 0)
(1.00129 -0.0055502 0)
(0.997218 0.00402697 0)
(0.999264 0.000783433 0)
(1.00157 -0.00284189 0)
(0.992644 -0.00316947 0)
(0.991728 0.00495237 0)
(0.996494 0.00528311 0)
(0.994899 0.00555966 0)
(0.994441 0.0128631 0)
(1.00362 0.0104407 0)
(1.00467 0.00742787 0)
(1.00133 0.00939537 0)
(1.0047 0.00655439 0)
(1.00664 0.00369845 0)
(1.00371 0.00496663 0)
(1.00262 0.00391526 0)
(1.00352 0.00233301 0)
(1.00293 0.00247082 0)
(1.00087 0.00391008 0)
(1.00094 0.00369638 0)
(1.00134 -0.00516402 0)
(0.997427 0.00358784 0)
(0.999061 0.00110745 0)
(1.00149 -0.00281234 0)
(0.993048 -0.00256055 0)
(0.992185 0.00468934 0)
(0.99652 0.00515818 0)
(0.995344 0.00555029 0)
(0.994804 0.0121416 0)
(1.00328 0.0102857 0)
(1.0047 0.00715552 0)
(1.00133 0.0090698 0)
(1.00425 0.00683439 0)
(1.00658 0.00375343 0)
(1.00384 0.00485743 0)
(1.00244 0.00435731 0)
(1.0034 0.00273733 0)
(1.00326 0.00247038 0)
(1.00125 0.00378429 0)
(1.00086 0.00356776 0)
(1.00137 -0.0047677 0)
(0.997648 0.00315115 0)
(0.99885 0.00141911 0)
(1.00142 -0.00275461 0)
(0.993488 -0.00202827 0)
(0.992638 0.00451372 0)
(0.996598 0.00500316 0)
(0.995798 0.00551754 0)
(0.995154 0.0114668 0)
(1.00294 0.0100916 0)
(1.00467 0.00692233 0)
(1.00136 0.00873149 0)
(1.00379 0.00707785 0)
(1.00645 0.00388256 0)
(1.00401 0.00470919 0)
(1.00231 0.00470383 0)
(1.00322 0.00318377 0)
(1.00352 0.00255759 0)
(1.00166 0.00366387 0)
(1.00078 0.00343063 0)
(1.00139 -0.00435942 0)
(0.997887 0.00271473 0)
(0.99864 0.00171809 0)
(1.00134 -0.00264807 0)
(0.993953 -0.00158865 0)
(0.993084 0.00440304 0)
(0.996711 0.0048294 0)
(0.99626 0.00546032 0)
(0.995499 0.0108384 0)
(1.00261 0.00987121 0)
(1.0046 0.00671779 0)
(1.00142 0.00837939 0)
(1.00334 0.00727874 0)
(1.00625 0.00408237 0)
(1.0042 0.00456805 0)
(1.00224 0.00496224 0)
(1.00301 0.00361687 0)
(1.00369 0.00267672 0)
(1.00207 0.0035868 0)
(1.0007 0.0032864 0)
(1.0014 -0.0039436 0)
(0.998145 0.00228932 0)
(0.998444 0.00198902 0)
(1.00126 -0.00249841 0)
(0.994432 -0.00123796 0)
(0.99352 0.00435635 0)
(0.996842 0.00466731 0)
(0.996729 0.00534712 0)
(0.995851 0.0102446 0)
(1.00229 0.00964866 0)
(1.00451 0.00654183 0)
(1.00152 0.00800793 0)
(1.00293 0.00742291 0)
(1.00599 0.00431896 0)
(1.0044 0.0044395 0)
(1.00223 0.00514371 0)
(1.00277 0.00411224 0)
(1.00378 0.00287777 0)
(1.00247 0.00347002 0)
(1.00063 0.00313626 0)
(1.00139 -0.0035211 0)
(0.99842 0.0018746 0)
(0.998263 0.00223257 0)
(1.00117 -0.00228193 0)
(0.994926 -0.000983105 0)
(0.99395 0.00434101 0)
(0.996974 0.0045316 0)
(0.997195 0.00519668 0)
(0.996218 0.00968946 0)
(1.002 0.0094132 0)
(1.0044 0.00637517 0)
(1.00166 0.00764589 0)
(1.00257 0.00750858 0)
(1.00569 0.00460138 0)
(1.0046 0.0043705 0)
(1.00233 0.00521593 0)
(1.00253 0.00450543 0)
(1.00375 0.00317037 0)
(1.00277 0.00352525 0)
(1.00057 0.00297437 0)
(1.00138 -0.00309208 0)
(0.998711 0.0014868 0)
(0.998113 0.00243025 0)
(1.00107 -0.00201395 0)
(0.99542 -0.000781362 0)
(0.994375 0.00433229 0)
(0.997102 0.00443909 0)
(0.997658 0.00500914 0)
(0.996602 0.00913522 0)
(1.00173 0.00920006 0)
(1.00427 0.00624152 0)
(1.00183 0.00723422 0)
(1.00227 0.00751498 0)
(1.00535 0.00488824 0)
(1.00478 0.00430725 0)
(1.00246 0.0052451 0)
(1.00233 0.00496829 0)
(1.00372 0.00342403 0)
(1.00304 0.00340865 0)
(1.00051 0.00281361 0)
(1.00134 -0.00266531 0)
(0.999011 0.00111328 0)
(0.997989 0.00258749 0)
(1.00095 -0.00169176 0)
(0.99592 -0.000640023 0)
(0.994802 0.00431267 0)
(0.997213 0.00440055 0)
(0.998096 0.00481791 0)
(0.997012 0.00859183 0)
(1.00149 0.00895715 0)
(1.00411 0.00614924 0)
(1.00203 0.00688005 0)
(1.00206 0.00740164 0)
(1.00498 0.00510973 0)
(1.00493 0.00420813 0)
(1.00275 0.00493637 0)
(1.00215 0.00521863 0)
(1.00344 0.00378912 0)
(1.00321 0.00341352 0)
(1.00046 0.00263559 0)
(1.00129 -0.00222666 0)
(0.999317 0.000771644 0)
(0.997906 0.00268114 0)
(1.00082 -0.00131891 0)
(0.996406 -0.000522054 0)
(0.995237 0.00425304 0)
(0.997316 0.00442053 0)
(0.998513 0.00461115 0)
(0.997434 0.00804485 0)
(1.00128 0.00872508 0)
(1.00395 0.00609565 0)
(1.00222 0.00645007 0)
(1.0019 0.00728764 0)
(1.0046 0.00532198 0)
(1.00495 0.00407871 0)
(1.00302 0.00451224 0)
(1.00216 0.00488541 0)
(1.0033 0.00391355 0)
(1.00343 0.00343735 0)
(1.00041 0.00246398 0)
(1.00123 -0.00180335 0)
(0.999617 0.000463896 0)
(0.997856 0.0027123 0)
(1.00069 -0.000912844 0)
(0.996881 -0.000418569 0)
(0.995686 0.00415863 0)
(0.997402 0.00446087 0)
(0.998884 0.00445645 0)
(0.997888 0.00746392 0)
(1.00113 0.00846851 0)
(1.00372 0.00605711 0)
(1.00243 0.00611197 0)
(1.00186 0.00700621 0)
(1.00417 0.00545876 0)
(1.0049 0.00415582 0)
(1.00326 0.00446574 0)
(1.00215 0.00518867 0)
(1.00313 0.00450686 0)
(1.00362 0.0038632 0)
(1.00037 0.00227996 0)
(1.00115 -0.00137712 0)
(0.999908 0.000189565 0)
(0.997851 0.0026916 0)
(1.00055 -0.000481447 0)
(0.997326 -0.000314701 0)
(0.996143 0.00401809 0)
(0.997493 0.00451625 0)
(0.999213 0.00434359 0)
(0.998335 0.00689926 0)
(1.00102 0.00816107 0)
(1.00351 0.00605721 0)
(1.00259 0.00579834 0)
(1.00182 0.00670029 0)
(1.00386 0.00560751 0)
(1.00484 0.00429101 0)
(1.00364 0.00432605 0)
(1.00243 0.0051203 0)
(1.00301 0.00476337 0)
(1.00356 0.00414343 0)
(1.00034 0.00209678 0)
(1.00106 -0.000972172 0)
(1.00018 -3.12529e-05 0)
(0.997881 0.00260339 0)
(1.0004 -5.92945e-05 0)
(0.997744 -0.000176086 0)
(0.996615 0.00383439 0)
(0.997578 0.00456781 0)
(0.999481 0.0042751 0)
(0.998791 0.00635994 0)
(1.00098 0.00781074 0)
(1.00324 0.00605856 0)
(1.00273 0.00552205 0)
(1.00192 0.0064427 0)
(1.00352 0.00573406 0)
(1.00466 0.00436798 0)
(1.00382 0.00412816 0)
(1.00259 0.00479605 0)
(1.00295 0.00468937 0)
(1.00361 0.00427051 0)
(1.00031 0.00192297 0)
(1.00094 -0.000602626 0)
(1.00043 -0.000204137 0)
(0.997956 0.00246709 0)
(1.00026 0.000361304 0)
(0.998115 -2.81885e-05 0)
(0.997089 0.00362824 0)
(0.997685 0.00458864 0)
(0.999701 0.00428244 0)
(0.999215 0.00586137 0)
(1.00098 0.00740872 0)
(1.00302 0.00605312 0)
(1.00281 0.00540046 0)
(1.00201 0.00612974 0)
(1.00328 0.00575562 0)
(1.00446 0.00466186 0)
(1.00405 0.00426804 0)
(1.00293 0.00496468 0)
(1.00302 0.00500219 0)
(1.0036 0.00475293 0)
(1.0003 0.00174112 0)
(1.00083 -0.000251213 0)
(1.00064 -0.00031635 0)
(0.998062 0.00228888 0)
(1.00013 0.000745666 0)
(0.998449 0.00017495 0)
(0.997569 0.00341468 0)
(0.997806 0.00458871 0)
(0.99986 0.00429686 0)
(0.999612 0.00544382 0)
(1.00106 0.00699457 0)
(1.00278 0.00602632 0)
(1.00286 0.0052882 0)
(1.00216 0.00590158 0)
(1.00313 0.00577826 0)
(1.00429 0.00493379 0)
(1.00418 0.00439809 0)
(1.00318 0.00483098 0)
(1.00312 0.00490962 0)
(1.00354 0.00471008 0)
(1.00028 0.00158138 0)
(1.0007 4.47782e-05 0)
(1.00083 -0.000365889 0)
(0.998207 0.00209336 0)
(1.00002 0.00108629 0)
(0.998728 0.000403438 0)
(0.998035 0.00319617 0)
(0.997956 0.00454178 0)
(0.999986 0.00434727 0)
(0.999962 0.00512218 0)
(1.00117 0.00655612 0)
(1.00261 0.00596232 0)
(1.00288 0.00529755 0)
(1.0023 0.00568773 0)
(1.00305 0.00570929 0)
(1.00409 0.00505942 0)
(1.00423 0.00444116 0)
(1.00342 0.0047469 0)
(1.00322 0.00485891 0)
(1.0035 0.00473319 0)
(1.00028 0.00142161 0)
(1.00057 0.000309385 0)
(1.00099 -0.00034834 0)
(0.998373 0.00187222 0)
(0.999935 0.00135461 0)
(0.998966 0.000662533 0)
(0.99849 0.0030091 0)
(0.998133 0.00446744 0)
(1.00007 0.00439709 0)
(1.00026 0.00486338 0)
(1.00132 0.00615543 0)
(1.00248 0.00587263 0)
(1.00286 0.0052636 0)
(1.00243 0.00551195 0)
(1.003 0.00557244 0)
(1.00393 0.00512659 0)
(1.00424 0.00454569 0)
(1.00363 0.00468701 0)
(1.00337 0.00483594 0)
(1.00354 0.0047917 0)
(1.00027 0.00128129 0)
(1.00043 0.00052793 0)
(1.00111 -0.000293272 0)
(0.998562 0.00166482 0)
(0.999879 0.00156142 0)
(0.999159 0.000914331 0)
(0.998915 0.00283585 0)
(0.998337 0.00434998 0)
(1.00015 0.00444181 0)
(1.00051 0.00468827 0)
(1.00149 0.00578799 0)
(1.0024 0.00571924 0)
(1.00284 0.00525117 0)
(1.00254 0.00537478 0)
(1.00301 0.00542511 0)
(1.0038 0.00513617 0)
(1.00422 0.00462917 0)
(1.00382 0.00465678 0)
(1.00353 0.00478847 0)
(1.00355 0.00482209 0)
(1.00027 0.00115056 0)
(1.00031 0.000704279 0)
(1.00119 -0.000190194 0)
(0.998757 0.00146608 0)
(0.999852 0.00169167 0)
(0.999318 0.00116102 0)
(0.999316 0.00270717 0)
(0.998572 0.00422465 0)
(1.00021 0.00447482 0)
(1.00071 0.00456168 0)
(1.00166 0.00545371 0)
(1.00237 0.00554748 0)
(1.00281 0.0052105 0)
(1.00261 0.00524889 0)
(1.00302 0.00528164 0)
(1.00372 0.0050967 0)
(1.0042 0.00469543 0)
(1.00395 0.00466079 0)
(1.00371 0.00468095 0)
(1.0036 0.0048163 0)
(1.00028 0.00103714 0)
(1.00019 0.000837537 0)
(1.00125 -7.00498e-05 0)
(0.998959 0.00129516 0)
(0.999863 0.00177933 0)
(0.999452 0.0013918 0)
(0.999681 0.00260059 0)
(0.998826 0.00406693 0)
(1.00027 0.0044862 0)
(1.00086 0.00447683 0)
(1.00183 0.00516505 0)
(1.00237 0.00534771 0)
(1.00279 0.00514553 0)
(1.00268 0.00515909 0)
(1.00305 0.00517386 0)
(1.00367 0.00504383 0)
(1.00417 0.00469072 0)
(1.00403 0.0046564 0)
(1.00388 0.00457959 0)
(1.00369 0.00475623 0)
(1.00028 0.000935959 0)
(1.00008 0.000935789 0)
(1.00128 6.53631e-05 0)
(0.999156 0.0011604 0)
(0.999902 0.00181858 0)
(0.999562 0.0015848 0)
(1.00001 0.00251657 0)
(0.999105 0.00390617 0)
(1.00035 0.00448141 0)
(1.00097 0.00442953 0)
(1.00198 0.00491664 0)
(1.00242 0.00513394 0)
(1.0028 0.00506068 0)
(1.00273 0.00507718 0)
(1.00307 0.00506313 0)
(1.00363 0.00496853 0)
(1.00417 0.00464379 0)
(1.0041 0.00464666 0)
(1.00402 0.00453823 0)
(1.00384 0.00464638 0)
(1.00029 0.000849353 0)
(0.999982 0.0010026 0)
(1.00129 0.000203498 0)
(0.999346 0.00105377 0)
(0.999972 0.00183447 0)
(0.99966 0.00175511 0)
(1.00031 0.0024536 0)
(0.999398 0.00373315 0)
(1.00044 0.00444496 0)
(1.00104 0.00439593 0)
(1.0021 0.00471979 0)
(1.00248 0.004924 0)
(1.00282 0.00494436 0)
(1.00278 0.00499213 0)
(1.00311 0.00496506 0)
(1.0036 0.00491557 0)
(1.00417 0.00460553 0)
(1.00418 0.00459673 0)
(1.00412 0.00451524 0)
(1.004 0.00452032 0)
(1.0003 0.000776028 0)
(0.999896 0.00104186 0)
(1.00128 0.000341588 0)
(0.999526 0.000983613 0)
(1.00006 0.00182731 0)
(0.999744 0.00189619 0)
(1.00056 0.00240306 0)
(0.999706 0.00354806 0)
(1.00056 0.00438143 0)
(1.0011 0.00437262 0)
(1.00218 0.00456255 0)
(1.00256 0.00472396 0)
(1.00288 0.00479793 0)
(1.00284 0.00490363 0)
(1.00315 0.00487528 0)
(1.00357 0.00484778 0)
(1.00415 0.00456278 0)
(1.00425 0.0045061 0)
(1.0042 0.00447706 0)
(1.00413 0.00444002 0)
(1.00031 0.000713845 0)
(0.999823 0.00106171 0)
(1.00126 0.000471378 0)
(0.99969 0.000939585 0)
(1.00018 0.00180568 0)
(0.999824 0.00201703 0)
(1.00078 0.00238554 0)
(1.00002 0.00336315 0)
(1.00071 0.00426478 0)
(1.00114 0.00433952 0)
(1.00224 0.0044289 0)
(1.00264 0.00454243 0)
(1.00296 0.00463591 0)
(1.00292 0.00478556 0)
(1.00319 0.00478105 0)
(1.00356 0.0047737 0)
(1.00412 0.00453323 0)
(1.00433 0.00443404 0)
(1.00429 0.00440727 0)
(1.00423 0.00439632 0)
(1.00032 0.000663904 0)
(0.999763 0.00106136 0)
(1.00122 0.000593429 0)
(0.999839 0.000924375 0)
(1.00031 0.00177267 0)
(0.999901 0.00211281 0)
(1.00096 0.00238712 0)
(1.00032 0.00318802 0)
(1.00088 0.00410331 0)
(1.00119 0.00428399 0)
(1.00228 0.00432705 0)
(1.0027 0.00438204 0)
(1.00305 0.00446793 0)
(1.00301 0.00463893 0)
(1.00325 0.00467209 0)
(1.00357 0.00469239 0)
(1.00409 0.00449384 0)
(1.00437 0.00437541 0)
(1.0044 0.00429659 0)
(1.00432 0.00433709 0)
(1.00033 0.000623806 0)
(0.999716 0.00104939 0)
(1.00118 0.000702699 0)
(0.99997 0.000933376 0)
(1.00045 0.00172887 0)
(0.999983 0.00218107 0)
(1.0011 0.00240815 0)
(1.0006 0.00303038 0)
(1.00108 0.00391105 0)
(1.00125 0.0041951 0)
(1.00229 0.00423551 0)
(1.00275 0.00424646 0)
(1.00314 0.0043028 0)
(1.00313 0.00448103 0)
(1.00333 0.00453957 0)
(1.00359 0.00459301 0)
(1.00407 0.00443309 0)
(1.00439 0.00433236 0)
(1.00449 0.00419776 0)
(1.00442 0.00425684 0)
(1.00034 0.000592611 0)
(0.999682 0.0010269 0)
(1.00114 0.000797941 0)
(1.00008 0.000958768 0)
(1.0006 0.00168343 0)
(1.00007 0.00221349 0)
(1.00121 0.00243451 0)
(1.00084 0.00290051 0)
(1.0013 0.00369539 0)
(1.00133 0.004078 0)
(1.0023 0.00414655 0)
(1.00279 0.00413475 0)
(1.00323 0.00415155 0)
(1.00325 0.00431906 0)
(1.00343 0.00439098 0)
(1.00364 0.00447513 0)
(1.00407 0.00434527 0)
(1.00439 0.00428486 0)
(1.00456 0.00412061 0)
(1.00452 0.00414977 0)
(1.00035 0.000568121 0)
(0.999659 0.000998816 0)
(1.0011 0.000876737 0)
(1.00018 0.000993353 0)
(1.00075 0.00163338 0)
(1.00017 0.00221365 0)
(1.00129 0.00245079 0)
(1.00105 0.00280648 0)
(1.00152 0.0034829 0)
(1.00145 0.00392754 0)
(1.00231 0.00405531 0)