/*--------------------------------*- C++ -*----------------------------------*\
| =========                 |                                                 |
| \\      /  F ield         | OpenFOAM: The Open Source CFD Toolbox           |
|  \\    /   O peration     | Version:  v1912                                 |
|   \\  /    A nd           | Website:  www.openfoam.com                      |
|    \\/     M anipulation  |                                                 |
\*---------------------------------------------------------------------------*/
FoamFile
{
    version     2.0;
    format      ascii;
    class       volScalarField;
    location    "2.55";
    object      p;
}
// * * * * * * * * * * * * * * * * * * * * * * * * * * * * * * * * * * * * * //

dimensions      [0 2 -2 0 0 0 0];


internalField   nonuniform List<scalar> 
9600
(
-1.00768e-11
-0.0020115
-0.0059329
-0.00175286
-0.000572077
0.000271518
0.00191168
0.00414729
-0.000129933
0.00307492
0.00249807
0.00386692
0.0041188
0.00636113
0.00874824
0.0116056
0.0144367
0.016505
0.0216973
0.02701
-3.79977e-05
-0.00198939
-0.00592617
-0.00174559
-0.000587025
0.000277792
0.00191087
0.00413743
-0.000114873
0.00306956
0.00250949
0.00387327
0.00412176
0.00636191
0.00873991
0.0115942
0.0144788
0.0164653
0.0218553
0.0264825
-6.94837e-05
-0.00196851
-0.00592288
-0.00174646
-0.000618923
0.000305167
0.00191278
0.00413226
-8.29646e-05
0.00305808
0.00253203
0.00387026
0.00412827
0.00635675
0.0087265
0.0115948
0.0144912
0.0164307
0.0218915
0.0258093
-0.000104188
-0.00194844
-0.00591454
-0.00175462
-0.000649678
0.000352976
0.00191848
0.00412752
-3.01538e-05
0.00304553
0.00256788
0.00386108
0.00414189
0.00634757
0.00871347
0.0115943
0.0144971
0.0163997
0.021829
0.0252594
-0.000141438
-0.00192797
-0.00589562
-0.00176294
-0.000672337
0.000414474
0.00193136
0.00412485
3.74021e-05
0.00303166
0.0026138
0.00385101
0.00416186
0.00633558
0.00869987
0.011588
0.0145069
0.0163583
0.0217469
0.0247498
-0.000180657
-0.0019067
-0.0058611
-0.00176627
-0.000687409
0.000484733
0.00195128
0.00412258
0.00011578
0.0030169
0.00266607
0.00384201
0.0041857
0.00632127
0.00868634
0.0115787
0.014517
0.0163131
0.0216276
0.0242687
-0.000221038
-0.00188421
-0.00580909
-0.00176234
-0.000695874
0.0005601
0.0019771
0.00412003
0.000201138
0.0030005
0.00272171
0.00383358
0.00421105
0.00630516
0.00867389
0.0115661
0.0145265
0.0162638
0.0214673
0.0238103
-0.000261742
-0.00185999
-0.00574008
-0.00175073
-0.000698599
0.000637065
0.00200627
0.00411618
0.000291919
0.00298233
0.00277952
0.00382516
0.00423663
0.00628695
0.00866227
0.0115498
0.0145278
0.0162091
0.0212648
0.0233695
-0.000302351
-0.00183337
-0.00565565
-0.00173231
-0.000697574
0.000712088
0.00203564
0.00411045
0.000387302
0.00296254
0.00283967
0.00381713
0.00426259
0.0062663
0.00865114
0.011529
0.0145192
0.0161478
0.0210221
0.0229402
-0.000342892
-0.00180351
-0.00555782
-0.00170862
-0.000694359
0.000782123
0.00206155
0.00410243
0.000486711
0.00294149
0.00290316
0.00381106
0.00429086
0.0062442
0.0086402
0.0115035
0.0144962
0.0160783
0.0207409
0.0225152
-0.000383622
-0.00176955
-0.00544874
-0.00168049
-0.000688872
0.000844947
0.00208085
0.00409192
0.000589303
0.0029195
0.00297114
0.00380926
0.00432455
0.00622302
0.00862954
0.0114738
0.0144549
0.015998
0.0204249
0.0220886
-0.000424794
-0.00173105
-0.00533049
-0.00164777
-0.000680292
0.000899319
0.00209178
0.00407881
0.000694053
0.00289691
0.00304426
0.00381395
0.00436691
0.00620593
0.00861977
0.011441
0.0143928
0.0159048
0.0200834
0.0216551
-0.000466522
-0.00168814
-0.00520491
-0.00161049
-0.000668194
0.000945279
0.00209451
0.00406294
0.000799888
0.00287398
0.00312235
0.00382617
0.00442
0.00619604
0.00861162
0.0114064
0.0143092
0.0157974
0.0197172
0.0212113
-0.000508778
-0.00164137
-0.00507359
-0.00156917
-0.000652629
0.000983607
0.00209064
0.00404409
0.000906006
0.0028509
0.00320475
0.00384581
0.00448376
0.00619532
0.00860518
0.0113711
0.0142056
0.0156749
0.0193309
0.0207552
-0.000551448
-0.00159143
-0.00493782
-0.00152537
-0.000633907
0.00101514
0.00208248
0.00402208
0.00101194
0.00282786
0.00329054
0.00387187
0.00455615
0.00620394
0.00859948
0.0113354
0.0140842
0.0155348
0.018929
0.0202869
-0.000594388
-0.00153898
-0.00479844
-0.00147866
-0.000612374
0.00104052
0.00207235
0.00399678
0.0011175
0.00280505
0.00337877
0.00390308
0.00463383
0.0062206
0.00859268
0.0112991
0.0139478
0.015376
0.0185159
0.0198072
-0.000637433
-0.0014846
-0.00465593
-0.00142941
-0.000588261
0.00106013
0.00206218
0.00396817
0.0012226
0.00278272
0.00346859
0.00393826
0.00471316
0.00624347
0.00858265
0.0112611
0.0137991
0.0151976
0.0180946
0.0193179
-0.00068039
-0.00142877
-0.0045106
-0.00137799
-0.000561706
0.00107411
0.0020534
0.00393632
0.00132708
0.00276115
0.00355919
0.00397675
0.00479096
0.00627101
0.00856763
0.0112195
0.0136404
0.0149988
0.0176671
0.0188215
-0.000723053
-0.00137193
-0.00436263
-0.00132477
-0.000532803
0.00108253
0.00204696
0.00390144
0.00143066
0.0027406
0.00364992
0.00401841
0.00486474
0.00630239
0.00854639
0.0111722
0.0134741
0.0147798
0.0172345
0.0183207
-0.000765206
-0.00131442
-0.00421218
-0.00127006
-0.000501497
0.00108536
0.00204339
0.00386379
0.00153289
0.00272138
0.00374003
0.00406348
0.00493279
0.00633545
0.00851841
0.0111169
0.0133016
0.0145416
0.0167968
0.0178181
-0.000806612
-0.00125659
-0.00405939
-0.00121407
-0.000467598
0.00108264
0.00204285
0.00382379
0.0016332
0.00270385
0.00382872
0.00411235
0.00499396
0.00636959
0.00848389
0.0110515
0.013124
0.0142855
0.0163536
0.0173166
-0.000847015
-0.00119877
-0.00390435
-0.00115702
-0.000430904
0.00107438
0.00204517
0.00378199
0.00173096
0.00268833
0.00391518
0.00416542
0.00504756
0.0064038
0.00844333
0.0109744
0.0129418
0.0140138
0.0159044
0.0168181
-0.000886142
-0.00114128
-0.00374709
-0.00109918
-0.000391296
0.0010607
0.00204997
0.00373904
0.00182557
0.00267514
0.00399862
0.0042229
0.0050931
0.00643708
0.00839737
0.0108839
0.012755
0.0137292
0.0154487
0.0163235
-0.000923686
-0.00108447
-0.0035877
-0.00104078
-0.000348662
0.00104179
0.00205668
0.00369568
0.00191645
0.0026646
0.00407828
0.00428482
0.00513032
0.00646811
0.00834673
0.010779
0.0125634
0.0134346
0.0149862
0.015833
-0.000959315
-0.00102866
-0.00342635
-0.000981984
-0.000302835
0.001018
0.00206452
0.0036527
0.0020031
0.00265696
0.00415344
0.00435113
0.00515929
0.00649503
0.00829215
0.0106588
0.0123662
0.0131334
0.0145171
0.0153453
-0.000992694
-0.000974195
-0.00326316
-0.00092305
-0.000253699
0.000989863
0.00207246
0.00361089
0.00208511
0.00265235
0.00422353
0.00442153
0.00518031
0.00651606
0.00823433
0.0105232
0.0121618
0.0128293
0.0140425
0.0148571
-0.00102347
-0.000921433
-0.00309821
-0.000864221
-0.000201322
0.000957986
0.00207945
0.00357097
0.00216225
0.00265076
0.00428801
0.00449548
0.00519382
0.00652956
0.00817405
0.0103721
0.0119483
0.0125249
0.0135654
0.0143637
-0.00105126
-0.000870754
-0.00293163
-0.000805653
-0.000145888
0.000923185
0.00208442
0.00353353
0.00223449
0.00265201
0.00434636
0.00457226
0.00520033
0.00653386
0.0081118
0.0102067
0.0117239
0.0122217
0.01309
0.0138618
-0.00107569
-0.000822494
-0.00276367
-0.000747421
-8.761e-05
0.000886459
0.0020863
0.00349893
0.00230199
0.00265586
0.00439816
0.00465098
0.00520052
0.00652728
0.00804766
0.0100287
0.0114865
0.0119201
0.0126209
0.0133507
-0.00109636
-0.000776964
-0.00259458
-0.0006895
-2.68517e-05
0.000848905
0.0020842
0.00346723
0.0023651
0.00266188
0.00444302
0.00473085
0.00519493
0.00650815
0.0079817
0.0098407
0.0112349
0.0116192
0.0121628
0.0128326
-0.00111287
-0.000734467
-0.00242464
-0.000631835
3.58685e-05
0.000811777
0.00207743
0.00343819
0.0024243
0.00266956
0.0044805
0.00481109
0.00518408
0.00647495
0.00791367
0.00964552
0.0109683
0.0113173
0.011719
0.0123119
-0.00112481
-0.000695222
-0.0022543
-0.000574304
9.999e-05
0.000776404
0.00206559
0.00341136
0.00248009
0.00267833
0.00451015
0.00489075
0.00516866
0.00642624
0.00784254
0.00944651
0.0106872
0.0110118
0.0112916
0.0117943
-0.00113174
-0.00065938
-0.00208422
-0.000516592
0.000165013
0.000743937
0.00204864
0.00338624
0.00253302
0.00268757
0.0045315
0.00496875
0.00514952
0.00636072
0.00776671
0.00924749
0.0103933
0.0106992
0.0108809
0.0112862
-0.00113327
-0.000626982
-0.00191512
-0.000458419
0.000230286
0.000715555
0.00202667
0.00336209
0.00258376
0.00269674
0.00454372
0.00504408
0.00512767
0.00627716
0.00768421
0.0090514
0.0100897
0.0103764
0.0104854
0.0107943
-0.00112909
-0.000597908
-0.00174765
-0.000399434
0.000295014
0.000692435
0.00199995
0.00333792
0.0026329
0.0027055
0.00454592
0.00511564
0.00510434
0.00617464
0.00759254
0.00886234
0.00978016
0.0100416
0.0101019
0.0103241
-0.00111888
-0.000571983
-0.00158279
-0.000339089
0.000358712
0.000675407
0.00196886
0.00331274
0.00268088
0.00271364
0.00453732
0.00518185
0.0050811
0.00605343
0.00748753
0.00868137
0.00946993
0.00969413
0.00972555
0.00987958
-0.00110233
-0.000548839
-0.00142162
-0.000277142
0.000421018
0.000665354
0.00193389
0.00328534
0.00272802
0.00272134
0.00451726
0.00524086
0.00505956
0.00591444
0.0073644
0.00850815
0.00916555
0.00933549
0.00934951
0.00946076
-0.00107926
-0.000527971
-0.00126497
-0.000213401
0.000481374
0.00066309
0.00189587
0.00325436
0.00277435
0.0027293
0.00448504
0.00529059
0.00504149
0.00575906
0.00721845
0.00834121
0.00887308
0.0089692
0.00896746
0.0090636
-0.00104948
-0.000508899
-0.00111377
-0.000147592
0.000539391
0.000669014
0.00185596
0.00321883
0.00281932
0.00273843
0.00444039
0.00532812
0.00502856
0.00559024
0.0070448
0.00817786
0.00859699
0.00860064
0.00857514
0.00868079
-0.00101288
-0.000491003
-0.000968855
-7.97346e-05
0.000594688
0.000683232
0.00181538
0.0031778
0.00286225
0.00274924
0.00438421
0.00535061
0.00502059
0.00541254
0.00684044
0.00801076
0.00834485
0.00821936
0.00817031
0.00830266
-0.000969491
-0.000473586
-0.00083082
-9.82166e-06
0.000646852
0.000705938
0.00177594
0.00313025
0.00290184
0.00276232
0.00431746
0.00535583
0.00501671
0.00523138
0.00660418
0.0078296
0.00811669
0.00787385
0.0077588
0.0079245
-0.000919351
-0.000455916
-0.000700355
6.2175e-05
0.000695794
0.000736097
0.00173951
0.00307634
0.00293625
0.00277814
0.00424186
0.00534117
0.00501515
0.00505401
0.00633745
0.00762367
0.00790625
0.00754975
0.0073472
0.00754968
-0.000862577
-0.000437225
-0.000578032
0.000136237
0.00074147
0.000772397
0.00170758
0.00301703
0.00296421
0.00279597
0.00415983
0.0053048
0.0050118
0.00488751
0.00604702
0.00738419
0.00770457
0.00724567
0.00693664
0.00717514
-0.000799468
-0.000416546
-0.000464412
0.000212229
0.00078301
0.000812676
0.00168136
0.00295385
0.00298456
0.0028151
0.00407274
0.00524669
0.00500328
0.00473547
0.00574456
0.0071128
0.00750691
0.00698227
0.00653338
0.00674635
-0.000730531
-0.000392793
-0.000359805
0.000290051
0.000823388
0.000853931
0.0016606
0.00288891
0.00299673
0.00283413
0.00398244
0.00516675
0.00498622
0.00460132
0.00544027
0.00681226
0.00730563
0.0067589
0.00615281
0.00625264
-0.00065631
-0.000364922
-0.000264591
0.000369245
0.000863183
0.000893619
0.00164439
0.00282423
0.00300098
0.00285173
0.00389038
0.00506537
0.00495706
0.00448565
0.00514275
0.00648247
0.00707665
0.00655079
0.00581342
0.00575311
-0.000577476
-0.00033176
-0.000178937
0.000448537
0.000905023
0.000931098
0.001631
0.00276061
0.00299806
0.00286712
0.00379692
0.00494414
0.00491203
0.00438572
0.0048585
0.00612447
0.00680893
0.00634232
0.00552659
0.00530677
-0.000495032
-0.000292153
-0.000102102
0.000525985
0.000950925
0.000966656
0.00161723
0.00269765
0.00298951
0.00287971
0.00370288
0.0048044
0.00484672
0.00429845
0.00459146
0.00574154
0.00650178
0.00613375
0.005285
0.00492618
-0.000409718
-0.00024519
-3.29209e-05
0.000598965
0.00100244
0.00100127
0.00160033
0.00263435
0.00297628
0.0028897
0.00360886
0.00464784
0.00475812
0.0042177
0.00434543
0.0053472
0.00615654
0.00592091
0.00507245
0.0046034
-0.000322538
-0.000190295
3.03356e-05
0.000664391
0.00105912
0.00103863
0.00157953
0.00256782
0.00295787
0.00289789
0.00351526
0.00447725
0.00464491
0.00413618
0.00412459
0.00495807
0.00577771
0.00569079
0.00488362
0.00432133
-0.000234933
-0.000127296
8.99008e-05
0.000719821
0.00111937
0.00108288
0.00155573
0.00249433
0.00293296
0.00290478
0.00342323
0.00429604
0.00450697
0.00404813
0.00392873
0.00458772
0.00537375
0.00542913
0.00471286
0.00407443
-0.000147447
-5.63429e-05
0.000148243
0.000764256
0.00118021
0.00113588
0.00153108
0.00241165
0.00289835
0.00290912
0.00333492
0.00410856
0.00434649
0.00394826
0.00375339
0.00424487
0.00495893
0.00512806
0.00454732
0.00386683
-6.06103e-05
2.19561e-05
0.00020806
0.000797856
0.00123681
0.00119727
0.00151019
0.00232025
0.00284894
0.00290803
0.00325236
0.00392011
0.00416795
0.00383253
0.00359244
0.00393338
0.00455017
0.00479196
0.00436447
0.00369779
2.51043e-05
0.000106502
0.00027183
0.000821449
0.00128436
0.00126484
0.00149816
0.00222228
0.00278043
0.00289731
0.0031763
0.00373654
0.00397686
0.00369917
0.00343851
0.00365193
0.00416067
0.00443297
0.00414698
0.00355122
0.000109574
0.000195609
0.000341264
0.000837328
0.00131887
0.00133515
0.00149866
0.00212269
0.00269127
0.00286969
0.00310465
0.00356387
0.00377965
0.00354907
0.00328515
0.00339628
0.00379668
0.00406686
0.00389534
0.00340027
0.000192984
0.000287193
0.000417063
0.000849661
0.00133798
0.00140225
0.0015125
0.00202886
0.00258403
0.00281763
0.00303214
0.00340512
0.00358442
0.00338552
0.00312814
0.00316198
0.00346016
0.00370666
0.00361846
0.00322781
0.000275503
0.00037916
0.00049895
0.000862858
0.00134199
0.00145902
0.00153711
0.00194729
0.00246405
0.00273921
0.00295093
0.00325744
0.00339823
0.00321446
0.00296456
0.00294376
0.00315088
0.00335957
0.00332816
0.0030318
0.00035756
0.00046954
0.000585735
0.000880043
0.00133233
0.00150044
0.00156868
0.00188123
0.00234019
0.00263771
0.00285488
0.00311506
0.00322218
0.00304354
0.00279447
0.00273528
0.0028681
0.003029
0.00303499
0.00281977
0.000439499
0.000557298
0.000674749
0.000903166
0.00131263
0.0015243
0.00160142
0.00183038
0.00222082
0.00251902
0.0027428
0.00297193
0.00305264
0.00287663
0.00262312
0.00253069
0.00260887
0.00271876
0.0027415
0.00259844
0.000521305
0.000641967
0.000762505
0.000933109
0.00128835
0.00153048
0.00162905
0.0017926
0.00211072
0.00239202
0.00261668
0.00282433
0.00288579
0.00271203
0.00245557
0.00232941
0.00236647
0.00243325
0.00245098
0.0023689
0.000602955
0.00072313
0.000846246
0.000969533
0.00126506
0.00152058
0.00164652
0.00176426
0.00201151
0.00226365
0.00247991
0.0026697
0.00272003
0.00254879
0.00229207
0.00213551
0.00213446
0.00217227
0.00217193
0.00213038
0.000684144
0.000800819
0.000924151
0.0010107
0.00124678
0.00149767
0.00165044
0.00174082
0.00192288
0.00213776
0.00233832
0.00250818
0.00255206
0.00238868
0.00213284
0.00195086
0.00191019
0.00192927
0.00191349
0.00188843
0.000764305
0.000875129
0.000995545
0.00105442
0.00123534
0.00146617
0.0016395
0.001718
0.00184429
0.00201602
0.00219604
0.00234442
0.00237991
0.00222879
0.0019796
0.00177728
0.00169511
0.00169591
0.00167798
0.00165471
0.000842759
0.000946139
0.00106054
0.0010985
0.00123094
0.00143071
0.00161445
0.00169134
0.00177418
0.00190067
0.00205472
0.00218253
0.00220794
0.00206523
0.00182919
0.00161723
0.00149482
0.00146822
0.00145612
0.00143783
0.000918879
0.00101403
0.00111953
0.00114077
0.00123267
0.00139518
0.00157773
0.00165738
0.00170932
0.00179373
0.00191741
0.00202243
0.00204025
0.00190227
0.00167612
0.00146705
0.00131582
0.00125138
0.00123927
0.00123514
0.00099209
0.00107896
0.00117312
0.00117957
0.0012387
0.0013618
0.00153267
0.00161544
0.00164656
0.00169452
0.00178754
0.00186585
0.00187556
0.00174649
0.00152305
0.00131777
0.00115617
0.00105564
0.00102912
0.00103987
0.00106191
0.00114078
0.00122181
0.00121399
0.00124727
0.00133185
0.0014822
0.00156524
0.00158451
0.00160266
0.00166545
0.00171711
0.00171323
0.00159672
0.0013808
0.00116831
0.00100568
0.00088391
0.000833359
0.000850326
0.00112796
0.00119928
0.00126613
0.00124353
0.00125636
0.0013062
0.00142982
0.00150714
0.00152043
0.00151866
0.00155225
0.00157839
0.00155757
0.00144654
0.00125055
0.0010308
0.000859691
0.000732082
0.000659566
0.000671995
0.00118986
0.00125411
0.00130657
0.00126849
0.00126381
0.00128369
0.00137906
0.00144446
0.00145185
0.00143975
0.00144975
0.00145166
0.00141674
0.00129949
0.0011205
0.000908842
0.000721786
0.000591814
0.000508804
0.000511903
0.00124734
0.00130518
0.00134335
0.0012892
0.00126873
0.00126295
0.00133046
0.00138027
0.00138057
0.00136212
0.00135527
0.00133526
0.00129429
0.00117269
0.000994832
0.000799259
0.000601859
0.000458183
0.000369606
0.000362154
0.00130003
0.00135242
0.00137679
0.00130571
0.00127034
0.00124323
0.00128386
0.00131563
0.0013103
0.00128861
0.00126741
0.00122509
0.00117964
0.00106701
0.000884991
0.000701292
0.000513334
0.000353837
0.000255511
0.000234114
0.00134796
0.00139566
0.00140739
0.00131883
0.00126764
0.00122267
0.00123894
0.00124963
0.00123913
0.00122219
0.0011956
0.00113185
0.00107229
0.000971382
0.00079075
0.000605402
0.000436887
0.000275743
0.000170321
0.00014449
0.00139078
0.00143465
0.00143514
0.00132903
0.00126207
0.00120129
0.00119542
0.0011833
0.00116257
0.00115211
0.00113566
0.00106871
0.000994685
0.000899408
0.000728267
0.000528925
0.000363696
0.000204435
7.88233e-05
4.03366e-05
0.00142923
0.0014692
0.00145978
0.00133543
0.00125246
0.00117904
0.00115471
0.00112104
0.00108632
0.00106998
0.00106484
0.00101881
0.000951986
0.000871853
0.000731824
0.000537759
0.000375805
0.000229594
8.45513e-05
1.909e-06
0.00146328
0.00150014
0.00148232
0.00133904
0.00123694
0.00115042
0.0011133
0.00106379
0.00102014
0.000990689
0.000966783
0.000924366
0.000866456
0.000795597
0.000692082
0.000522057
0.000369132
0.000263772
0.000167367
0.000108627
0.00149545
0.00152695
0.00150116
0.00134067
0.00121901
0.00111382
0.00105929
0.00100534
0.000978407
0.000989996
0.00101014
0.00100396
0.000978256
0.000905634
0.000807741
0.000644797
0.000430259
0.000236572
6.23525e-05
-7.16704e-05
0.001525
0.00155376
0.00151868
0.0013434
0.00120419
0.00107599
0.000974897
0.000853247
0.00074442
0.000683662
0.000685972
0.000755435
0.00088363
0.000955769
0.000973028
0.000989989
0.000990045
0.00102085
0.00106977
0.00109148
0.00154568
0.00156629
0.00153141
0.00134985
0.00120416
0.00108676
0.00101363
0.000948418
0.000920314
0.000926545
0.000973968
0.000989076
0.00100407
0.000997283
0.000909159
0.000773084
0.000587224
0.000377234
0.000169939
-1.00263e-05
0.00157219
0.00159184
0.00153953
0.00132954
0.00114535
0.000977868
0.000841697
0.000737686
0.000717575
0.000756355
0.000861522
0.000949116
0.000984111
0.00103001
0.00105914
0.00109719
0.00115253
0.00120973
0.0012538
0.00123293
0.00158953
0.00161083
0.00157709
0.00138916
0.00122876
0.00109611
0.000988336
0.000865026
0.000781187
0.000709129
0.000725462
0.000851253
0.000981814
0.00112205
0.00124674
0.00130942
0.00131633
0.00126669
0.00117929
0.00103783
0.0396698
0.0278872
0.0149117
0.00564029
0.00218711
0.00226229
0.00269872
0.00281856
0.00278639
0.00251338
0.00204738
0.00167686
0.00136958
0.000937607
0.000465147
8.42493e-05
-0.000242715
-0.000576041
-0.000900771
-0.00120256
-0.00149236
-0.0017755
-0.00209905
-0.00242019
-0.00264901
-0.00284519
-0.0031157
-0.00345406
-0.00376893
-0.00401181
-0.00423321
-0.00451595
-0.00481795
-0.00503124
-0.00521377
-0.0054641
-0.00570194
-0.00590192
-0.00615488
-0.00647492
-0.00678227
-0.0070563
-0.00734306
-0.0076469
-0.00792467
-0.0082035
-0.00849603
-0.00875811
-0.00902226
-0.00932575
-0.00965782
-0.0100009
-0.0103272
-0.0106238
-0.0109585
-0.0113032
-0.0116255
-0.0119698
-0.0123351
-0.0126915
-0.0130077
-0.0133412
-0.0137187
-0.0141327
-0.0145459
-0.0149915
-0.0154213
-0.0157949
-0.0162028
-0.0166602
-0.0171209
-0.0175656
-0.0180139
-0.0184522
-0.0189017
-0.0193718
-0.0198745
-0.0204021
-0.020915
-0.0214105
-0.021926
-0.0224748
-0.0230553
-0.0236131
-0.0241595
-0.0246506
-0.0251531
-0.0257807
-0.0264768
-0.0270802
-0.0276849
-0.0282524
-0.0288637
-0.0294919
-0.0301689
-0.0309658
-0.0316818
-0.0325197
-0.0333762
-0.0342216
0.0375113
0.0276126
0.0149733
0.00579776
0.00229636
0.0023133
0.00272712
0.0028375
0.00280138
0.00252607
0.00205783
0.0016859
0.00137781
0.000944647
0.000470904
8.91793e-05
-0.000238297
-0.00057209
-0.000897235
-0.00119935
-0.00148945
-0.00177278
-0.00209656
-0.0024181
-0.00264713
-0.00284333
-0.0031139
-0.00345245
-0.00376756
-0.00401056
-0.00423198
-0.00451477
-0.00481696
-0.00503037
-0.00521286
-0.00546326
-0.00570121
-0.00590118
-0.00615412
-0.00647423
-0.00678164
-0.00705569
-0.00734245
-0.00764633
-0.00792414
-0.00820297
-0.00849554
-0.00875765
-0.00902179
-0.00932529
-0.00965738
-0.0100005
-0.0103268
-0.0106234
-0.0109581
-0.0113028
-0.0116252
-0.0119695
-0.0123347
-0.0126912
-0.0130074
-0.0133409
-0.0137183
-0.0141325
-0.0145456
-0.0149912
-0.0154211
-0.0157947
-0.0162025
-0.01666
-0.0171207
-0.0175654
-0.0180137
-0.0184521
-0.0189015
-0.0193716
-0.0198743
-0.020402
-0.0209148
-0.0214104
-0.0219258
-0.0224746
-0.0230551
-0.023613
-0.0241593
-0.0246505
-0.025153
-0.0257806
-0.0264767
-0.02708
-0.0276848
-0.0282523
-0.0288636
-0.0294918
-0.0301688
-0.0309657
-0.0316817
-0.0325197
-0.0333763
-0.0342217
0.0361027
0.0274181
0.0151377
0.00610057
0.00248719
0.00238334
0.00275653
0.00285696
0.00281622
0.00253788
0.00206755
0.00169448
0.00138579
0.000951773
0.000476966
9.42668e-05
-0.000234077
-0.000568551
-0.000894114
-0.00119651
-0.0014869
-0.00177042
-0.00209442
-0.00241629
-0.00264546
-0.00284167
-0.00311236
-0.00345112
-0.0037664
-0.00400948
-0.0042309
-0.00451378
-0.00481617
-0.00502963
-0.00521206
-0.00546257
-0.00570061
-0.00590052
-0.00615346
-0.00647368
-0.00678115
-0.00705518
-0.00734194
-0.00764589
-0.00792371
-0.00820253
-0.00849516
-0.00875727
-0.00902138
-0.00932491
-0.00965703
-0.0100001
-0.0103265
-0.0106231
-0.0109578
-0.0113025
-0.0116249
-0.0119692
-0.0123345
-0.012691
-0.0130072
-0.0133407
-0.0137181
-0.0141322
-0.0145454
-0.014991
-0.0154209
-0.0157945
-0.0162023
-0.0166598
-0.0171206
-0.0175653
-0.0180136
-0.0184519
-0.0189013
-0.0193714
-0.0198741
-0.0204018
-0.0209147
-0.0214102
-0.0219257
-0.0224745
-0.023055
-0.0236129
-0.0241592
-0.0246504
-0.0251528
-0.0257804
-0.0264766
-0.02708
-0.0276847
-0.0282522
-0.0288635
-0.0294917
-0.0301687
-0.0309656
-0.0316817
-0.0325196
-0.0333763
-0.0342219
0.0346955
0.0271367
0.0153067
0.00645989
0.0027456
0.00248693
0.00280406
0.00288892
0.00283895
0.0025543
0.00208014
0.00170438
0.00139418
0.000959996
0.000485296
0.000101832
-0.000228009
-0.000563634
-0.000889723
-0.00119263
-0.00148371
-0.0017676
-0.00209168
-0.00241378
-0.00264325
-0.00283972
-0.00311055
-0.00344942
-0.00376488
-0.00400815
-0.00422966
-0.00451264
-0.0048152
-0.00502872
-0.00521112
-0.00546177
-0.00569989
-0.00589973
-0.00615272
-0.00647311
-0.00678064
-0.00705463
-0.00734141
-0.00764542
-0.00792325
-0.00820206
-0.00849476
-0.00875686
-0.00902093
-0.00932449
-0.00965665
-0.00999979
-0.0103262
-0.0106227
-0.0109575
-0.0113023
-0.0116246
-0.0119689
-0.0123342
-0.0126907
-0.013007
-0.0133404
-0.0137178
-0.014132
-0.0145451
-0.0149908
-0.0154207
-0.0157943
-0.0162021
-0.0166596
-0.0171204
-0.0175651
-0.0180134
-0.0184518
-0.0189012
-0.0193713
-0.019874
-0.0204017
-0.0209146
-0.0214101
-0.0219255
-0.0224744
-0.0230549
-0.0236128
-0.0241591
-0.0246503
-0.0251527
-0.0257803
-0.0264766
-0.0270799
-0.0276846
-0.0282521
-0.0288634
-0.0294916
-0.0301686
-0.0309656
-0.0316816
-0.0325196
-0.0333763
-0.0342222
0.0332928
0.0267826
0.0154726
0.00683436
0.00302809
0.00260608
0.00286079
0.00292989
0.00286929
0.00257627
0.00209704
0.00171677
0.00140348
0.000969433
0.000496085
0.000112229
-0.000219697
-0.000556846
-0.00088326
-0.00118671
-0.00147911
-0.00176391
-0.00208792
-0.00240997
-0.00264011
-0.00283732
-0.00310825
-0.00344688
-0.00376248
-0.00400627
-0.00422813
-0.00451117
-0.00481381
-0.00502749
-0.00520998
-0.00546072
-0.00569888
-0.00589872
-0.00615186
-0.00647244
-0.00678002
-0.00705399
-0.00734081
-0.00764491
-0.00792274
-0.00820153
-0.00849427
-0.00875636
-0.00902042
-0.00932403
-0.00965623
-0.0099994
-0.0103258
-0.0106224
-0.0109571
-0.0113019
-0.0116243
-0.0119686
-0.0123339
-0.0126905
-0.0130067
-0.0133401
-0.0137174
-0.0141317
-0.0145449
-0.0149905
-0.0154206
-0.015794
-0.0162018
-0.0166594
-0.0171202
-0.0175649
-0.0180133
-0.0184516
-0.018901
-0.0193711
-0.0198738
-0.0204016
-0.0209145
-0.0214099
-0.0219254
-0.0224742
-0.0230548
-0.0236126
-0.024159
-0.0246502
-0.0251525
-0.0257801
-0.0264765
-0.0270798
-0.0276845
-0.028252
-0.0288633
-0.0294915
-0.0301685
-0.0309655
-0.0316815
-0.0325194
-0.0333763
-0.0342226
0.031919
0.0263807
0.015636
0.00720939
0.00331791
0.0027301
0.00291824
0.00297335
0.00290376
0.00260241
0.00211773
0.00173156
0.00141358
0.000979551
0.000508463
0.0001247
-0.000209606
-0.000548428
-0.000874691
-0.00117834
-0.00147255
-0.00175891
-0.00208273
-0.00240445
-0.00263581
-0.00283453
-0.00310544
-0.00344313
-0.00375864
-0.00400347
-0.00422616
-0.00450919
-0.00481178
-0.00502585
-0.00520864
-0.00545935
-0.00569742
-0.00589738
-0.00615078
-0.00647157
-0.00677921
-0.0070532
-0.00734012
-0.00764433
-0.00792218
-0.00820093
-0.00849367
-0.00875574
-0.00901981
-0.00932349
-0.00965572
-0.00999892
-0.0103254
-0.010622
-0.0109567
-0.0113016
-0.0116239
-0.0119682
-0.0123336
-0.0126902
-0.0130064
-0.0133398
-0.0137171
-0.0141314
-0.0145446
-0.0149903
-0.0154204
-0.0157938
-0.0162015
-0.0166592
-0.01712
-0.0175647
-0.0180131
-0.0184514
-0.0189008
-0.0193709
-0.0198736
-0.0204014
-0.0209144
-0.0214098
-0.0219252
-0.022474
-0.0230546
-0.0236125
-0.0241589
-0.0246501
-0.0251523
-0.0257799
-0.0264764
-0.0270797
-0.0276844
-0.0282519
-0.0288631
-0.0294914
-0.0301683
-0.0309654
-0.0316814
-0.0325192
-0.0333762
-0.0342232
0.0305869
0.0259367
0.0157888
0.00757729
0.00361052
0.00285715
0.0029743
0.00301672
0.00294061
0.00263161
0.00214118
0.00174826
0.0014245
0.000990026
0.000521413
0.000137984
-0.000198794
-0.00053921
-0.000864675
-0.00116791
-0.00146402
-0.00175236
-0.0020758
-0.00239694
-0.00263028
-0.00283148
-0.00310233
-0.00343818
-0.00375313
-0.00399942
-0.00422346
-0.0045064
-0.00480881
-0.0050237
-0.00520715
-0.00545769
-0.00569552
-0.00589569
-0.00614941
-0.00647036
-0.00677804
-0.00705214
-0.00733924
-0.00764361
-0.00792156
-0.00820028
-0.00849293
-0.00875495
-0.00901909
-0.00932286
-0.00965508
-0.0099983
-0.0103249
-0.0106216
-0.0109563
-0.0113012
-0.0116236
-0.0119679
-0.0123333
-0.0126899
-0.0130062
-0.0133395
-0.0137166
-0.014131
-0.0145444
-0.01499
-0.0154201
-0.0157935
-0.0162012
-0.0166589
-0.0171198
-0.0175645
-0.0180128
-0.0184512
-0.0189006
-0.0193707
-0.0198734
-0.0204013
-0.0209142
-0.0214096
-0.021925
-0.0224739
-0.0230545
-0.0236124
-0.0241588
-0.0246501
-0.0251521
-0.0257797
-0.0264764
-0.0270796
-0.0276843
-0.0282518
-0.028863
-0.0294912
-0.0301681
-0.0309652
-0.0316812
-0.0325189
-0.033376
-0.034224
0.0293057
0.0254499
0.0159217
0.00793426
0.00390595
0.00298894
0.00302971
0.00305937
0.00297907
0.00266318
0.00216668
0.00176646
0.0014363
0.00100091
0.00053465
0.000151546
-0.000187833
-0.000529798
-0.00085399
-0.00115626
-0.00145412
-0.00174447
-0.00206721
-0.00238754
-0.00262356
-0.00282824
-0.00309914
-0.00343241
-0.0037462
-0.00399412
-0.00421987
-0.00450259
-0.00480468
-0.00502086
-0.00520548
-0.0054558
-0.0056933
-0.0058938
-0.00614782
-0.00646874
-0.00677637
-0.00705065
-0.007338
-0.00764264
-0.00792082
-0.00819958
-0.00849208
-0.008754
-0.00901825
-0.0093221
-0.00965426
-0.00999747
-0.0103243
-0.0106211
-0.0109558
-0.0113007
-0.0116232
-0.0119676
-0.0123329
-0.0126896
-0.0130059
-0.0133391
-0.0137161
-0.0141306
-0.014544
-0.0149897
-0.0154199
-0.0157932
-0.0162009
-0.0166587
-0.0171195
-0.0175642
-0.0180126
-0.0184509
-0.0189003
-0.0193704
-0.0198731
-0.0204011
-0.020914
-0.0214094
-0.0219248
-0.0224737
-0.0230544
-0.0236122
-0.0241587
-0.02465
-0.0251519
-0.0257796
-0.0264763
-0.0270794
-0.0276841
-0.0282517
-0.0288628
-0.0294911
-0.0301679
-0.030965
-0.031681
-0.0325185
-0.0333756
-0.0342248
0.0280789
0.0249185
0.0160289
0.0082806
0.00420601
0.00312739
0.00308519
0.00310054
0.00301813
0.00269653
0.0021939
0.001786
0.00144897
0.0010123
0.000548288
0.000165467
-0.000176665
-0.000520252
-0.000842977
-0.001144
-0.00144347
-0.00173573
-0.00205742
-0.00237669
-0.00261582
-0.00282476
-0.00309596
-0.00342625
-0.00373845
-0.00398795
-0.00421545
-0.0044977
-0.00479931
-0.00501722
-0.00520346
-0.00545364
-0.00569092
-0.00589198
-0.00614626
-0.00646684
-0.00677421
-0.00704864
-0.00733628
-0.00764123
-0.00791981
-0.00819874
-0.00849114
-0.00875297
-0.00901732
-0.00932123
-0.00965321
-0.00999637
-0.0103235
-0.0106205
-0.0109551
-0.0113
-0.0116228
-0.0119672
-0.0123325
-0.0126893
-0.0130057
-0.0133388
-0.0137155
-0.0141301
-0.0145437
-0.0149894
-0.0154196
-0.0157929
-0.0162006
-0.0166584
-0.0171192
-0.0175639
-0.0180123
-0.0184506
-0.0189
-0.0193701
-0.0198728
-0.0204009
-0.0209138
-0.0214092
-0.0219246
-0.0224736
-0.0230543
-0.023612
-0.0241585
-0.0246498
-0.0251517
-0.0257794
-0.0264762
-0.0270793
-0.027684
-0.0282516
-0.0288626
-0.0294909
-0.0301676
-0.0309648
-0.0316807
-0.0325179
-0.0333751
-0.0342258
0.0269087
0.0243457
0.0161086
0.00861691
0.0045104
0.00327272
0.00314068
0.00313926
0.00305678
0.00273125
0.00222273
0.00180673
0.00146238
0.00102426
0.00056251
0.000179998
-0.000165016
-0.00051038
-0.000831655
-0.00113136
-0.00143241
-0.00172656
-0.00204696
-0.00236492
-0.00260733
-0.002821
-0.00309275
-0.00341993
-0.00373037
-0.00398136
-0.00421049
-0.00449195
-0.00479289
-0.00501278
-0.00520098
-0.00545113
-0.00568841
-0.00589042
-0.00614504
-0.00646495
-0.00677169
-0.00704615
-0.00733404
-0.00763931
-0.00791835
-0.00819761
-0.00849005
-0.00875192
-0.00901643
-0.00932032
-0.00965197
-0.00999496
-0.0103225
-0.0106198
-0.0109543
-0.0112991
-0.0116222
-0.0119668
-0.0123321
-0.012689
-0.0130057
-0.0133386
-0.0137149
-0.0141295
-0.0145433
-0.0149889
-0.0154192
-0.0157925
-0.0162002
-0.016658
-0.0171189
-0.0175635
-0.018012
-0.0184503
-0.0188997
-0.0193698
-0.0198725
-0.0204006
-0.0209136
-0.0214088
-0.0219243
-0.0224734
-0.0230542
-0.0236118
-0.0241583
-0.0246497
-0.0251515
-0.0257791
-0.0264762
-0.0270791
-0.0276838
-0.0282515
-0.0288624
-0.0294907
-0.0301673
-0.0309645
-0.0316804
-0.032517
-0.0333743
-0.0342269
0.0257977