/*--------------------------------*- C++ -*----------------------------------*\
| =========                 |                                                 |
| \\      /  F ield         | OpenFOAM: The Open Source CFD Toolbox           |
|  \\    /   O peration     | Version:  v1912                                 |
|   \\  /    A nd           | Website:  www.openfoam.com                      |
|    \\/     M anipulation  |                                                 |
\*---------------------------------------------------------------------------*/
FoamFile
{
    version     2.0;
    format      ascii;
    class       volScalarField;
    location    "6.2";
    object      p;
}
// * * * * * * * * * * * * * * * * * * * * * * * * * * * * * * * * * * * * * //

dimensions      [0 2 -2 0 0 0 0];


internalField   nonuniform List<scalar> 
9600
(
-2.41468e-09
9.81296e-05
0.0027182
0.000427673
0.00278282
0.00318052
0.00449677
0.00475058
0.000360606
0.00255716
0.00477787
0.00819904
0.00875679
0.00956434
0.0115519
0.012814
0.0184558
0.0200142
0.0289844
0.0359345
-3.74947e-07
9.62335e-05
0.00271938
0.000423371
0.00278353
0.00317022
0.00452592
0.00473522
0.000383625
0.00258006
0.00476724
0.00821596
0.00871975
0.00956175
0.0115468
0.0127984
0.0184683
0.0199393
0.0290932
0.035303
-1.21136e-06
9.34673e-05
0.00272182
0.000419786
0.00278098
0.00315789
0.00455373
0.00471033
0.000434472
0.00262866
0.00474991
0.00824351
0.00867602
0.00956222
0.01153
0.0127855
0.0184318
0.0198654
0.0290541
0.0345434
-2.30338e-06
8.952e-05
0.00272402
0.000416786
0.0027749
0.00314052
0.00457023
0.00466886
0.000508473
0.00269048
0.00472382
0.00826326
0.00861622
0.00955481
0.0115146
0.0127654
0.018402
0.0197781
0.0289004
0.033858
-3.71795e-06
8.38637e-05
0.0027259
0.000414655
0.00276566
0.00311726
0.0045772
0.00460736
0.000602636
0.00274946
0.00468078
0.00827083
0.00854398
0.00954191
0.0115035
0.0127411
0.0183742
0.0196762
0.0287349
0.0331708
-5.60535e-06
7.64211e-05
0.00272814
0.000413508
0.00275391
0.00308902
0.00457652
0.00452513
0.000710753
0.00279685
0.00462118
0.00827338
0.00847035
0.0095264
0.0114989
0.0127165
0.0183352
0.0195777
0.0285154
0.0324979
-8.09443e-06
6.75612e-05
0.00273129
0.000413322
0.00274065
0.00305766
0.00456831
0.00442622
0.000828404
0.0028351
0.00455214
0.00827732
0.00840141
0.00950696
0.0115026
0.0126887
0.0182868
0.0194776
0.0282378
0.0318417
-1.12775e-05
5.77937e-05
0.00273558
0.000413658
0.00272699
0.00302488
0.00455215
0.00431728
0.000953322
0.00287006
0.00447919
0.0082835
0.00833922
0.00948264
0.0115123
0.0126585
0.0182268
0.0193763
0.0279011
0.0311999
-1.51963e-05
4.75442e-05
0.002741
0.000414213
0.0027138
0.00299153
0.00452752
0.00420484
0.00108512
0.00290603
0.00440494
0.00828999
0.0082846
0.00945245
0.0115264
0.0126262
0.0181526
0.0192717
0.0275059
0.030569
-1.98361e-05
3.70875e-05
0.00274736
0.000414817
0.00270152
0.00295748
0.00449404
0.00409405
0.00122456
0.00294596
0.00433049
0.00829475
0.00823733
0.0094154
0.0115431
0.0125926
0.0180612
0.0191619
0.0270554
0.029944
-2.51259e-05
2.65897e-05
0.00275428
0.000415326
0.00269011
0.00292201
0.00445185
0.00398837
0.00137255
0.00299152
0.00425587
0.00829608
0.00819628
0.00937095
0.0115598
0.0125578
0.0179492
0.0190456
0.0265529
0.0293184
-3.09469e-05
1.61522e-05
0.00276117
0.000415617
0.00267914
0.00288442
0.00440217
0.00388935
0.0015288
0.00304298
0.00418036
0.0082925
0.00816007
0.00931888
0.0115733
0.0125216
0.0178149
0.0189209
0.0260023
0.028686
-3.71611e-05
5.78334e-06
0.00276746
0.000415649
0.00266793
0.00284433
0.0043476
0.00379662
0.00169053
0.00309944
0.00410298
0.00828299
0.00812799
0.00925896
0.0115815
0.0124843
0.0176568
0.018785
0.0254079
0.0280419
-4.36409e-05
-4.59106e-06
0.00277267
0.00041549
0.00265573
0.00280179
0.00429135
0.00370859
0.00185203
0.00315938
0.0040233
0.00826705
0.0081
0.00919097
0.0115815
0.0124459
0.0174738
0.0186351
0.024775
0.0273823
-5.0289e-05
-1.50354e-05
0.00277641
0.00041523
0.00264194
0.00275724
0.0042359
0.00362297
0.00200665
0.00322127
0.00394175
0.00824415
0.00807634
0.00911491
0.0115694
0.0124053
0.0172656
0.0184686
0.0241088
0.0267033
-5.70439e-05
-2.55209e-05
0.00277838
0.000414863
0.00262627
0.00271128
0.00418212
0.0035379
0.00214969
0.00328409
0.0038592
0.00821329
0.00805695
0.00903068
0.0115479
0.0123609
0.0170333
0.0182832
0.023414
0.0260012
-6.38764e-05
-3.5951e-05
0.00277831
0.000414351
0.0026086
0.0026644
0.00412938
0.00345236
0.00227934
0.00334752
0.00377648
0.00817302
0.0080409
0.00893807
0.0115137
0.0123102
0.016778
0.0180773
0.0226951
0.025273
-7.07825e-05
-4.62719e-05
0.00277605
0.000413703
0.00258889
0.00261695
0.00407642
0.00336627
0.00239629
0.00341181
0.00369393
0.00812169
0.00802632
0.00883693
0.0114657
0.0122507
0.0165
0.01785
0.0219566
0.024517
-7.77797e-05
-5.65447e-05
0.00277156
0.000412997
0.002567
0.0025692
0.00402199
0.00328041
0.00250239
0.00347728
0.00361149
0.00805813
0.00801162
0.00872709
0.0114036
0.0121798
0.016199
0.0176012
0.0212033
0.0237315
-8.49094e-05
-6.69504e-05
0.00276484
0.000412389
0.00254266
0.00252129
0.00396517
0.00319587
0.00259869
0.00354399
0.00352902
0.00798202
0.00799645
0.00860808
0.0113271
0.0120964
0.0158743
0.017332
0.0204405
0.0229138
-9.22166e-05
-7.7752e-05
0.0027559
0.000412084
0.00251546
0.00247333
0.00390525
0.00311368
0.00268489
0.00361172
0.00344686
0.00789322
0.00798103
0.00847944
0.0112365
0.0120002
0.0155246
0.0170441
0.0196743
0.0220606
-9.9722e-05
-8.92402e-05
0.00274469
0.000412297
0.00248491
0.00242548
0.00384152
0.00303451
0.00275992
0.00367986
0.00336559
0.00779141
0.00796599
0.00834084
0.0111311
0.011892
0.0151471
0.0167371
0.018912
0.0211706
-0.000107422
-0.000101674
0.00273113
0.0004132
0.00245049
0.00237803
0.00377326
0.00295871
0.00282258
0.00374743
0.00328598
0.00767587
0.00795206
0.00819222
0.0110085
0.0117733
0.0147395
0.0164078
0.0181624
0.0202457
-0.000115323
-0.000115265
0.00271509
0.000414948
0.0024116
0.00233132
0.00369976
0.00288646
0.00287154
0.00381336
0.00320906
0.00754539
0.00793965
0.00803411
0.0108652
0.0116461
0.0143013
0.0160503
0.0174363
0.0192905
-0.000123382
-0.000130219
0.00269641
0.000417711
0.00236768
0.00228573
0.00362025
0.00281795
0.00290595
0.00387621
0.00313574
0.00739889
0.00792877
0.00786784
0.0106971
0.0115128
0.0138342
0.0156574
0.0167444
0.018314
-0.000131507
-0.000146753
0.00267479
0.000421695
0.00231827
0.00224167
0.00353397
0.00275327
0.00292554
0.00393427
0.00306734
0.00723523
0.00791784
0.00769552
0.0105003
0.0113754
0.0133437
0.01522
0.0160924
0.01733
-0.000139649
-0.000165066
0.00264992
0.000427095
0.00226287
0.00219951
0.00344038
0.00269245
0.00293012
0.00398577
0.00300571
0.00705279
0.00790451
0.00752031
0.0102706
0.0112326
0.0128373
0.014729
0.0154785
0.016355
-0.000147738
-0.000185343
0.00262153
0.000434075
0.00220091
0.00215957
0.003339
0.00263529
0.00291992
0.00402859
0.00295253
0.00685064
0.00788615
0.00734565
0.0100048
0.0110806
0.0123243
0.0141785
0.014894
0.0154101
-0.000155691
-0.000207779
0.00258922
0.000442892
0.00213193
0.00212207
0.00322938
0.00258124
0.00289581
0.0040602
0.00290921
0.00662917
0.00785888
0.00717464
0.00970145
0.0109134
0.011815
0.0135685
0.0143256
0.0145161
-0.000163436
-0.000232562
0.00255249
0.000453861
0.00205563
0.00208692
0.00311144
0.00252944
0.00285931
0.00407803
0.00287642
0.00638926
0.0078182
0.00701087
0.00936094
0.0107225
0.0113197
0.0129058
0.0137537
0.0136891
-0.000170908
-0.000259873
0.00251087
0.000467217
0.00197157
0.00205385
0.0029857
0.00247853
0.00281294
0.00407928
0.0028537
0.00613289
0.00775828
0.00685698
0.0089866
0.0104992
0.0108469
0.0122022
0.0131545
0.012934
-0.000178031
-0.00028985
0.00246375
0.000483237
0.00187945
0.00202242
0.00285265
0.00242662
0.00275956
0.00406116
0.00283965
0.00586375
0.00767298
0.00671284
0.00858426
0.0102364
0.0103999
0.0114713
0.0125077
0.0122401
-0.000184731
-0.000322611
0.00241038
0.000502281
0.0017792
0.00199177
0.00271334
0.0023711
0.00270169
0.00402203
0.00283165
0.0055858
0.00755817
0.00657709
0.00815954
0.00992436
0.00997684
0.0107301
0.0118039
0.0115914
-0.000190983
-0.000358253
0.00235003
0.000524688
0.00167078
0.00196068
0.00256856
0.00230876
0.00264158
0.00396146
0.00282533
0.00530343
0.00741139
0.00644645
0.0077184
0.00955812
0.00957103
0.00999654
0.0110452
0.0109617
-0.000196753
-0.000396782
0.00228176
0.000550662
0.00155251
0.00192775
0.00242596
0.00223611
0.00258004
0.00388017
0.00281578
0.00502046
0.00723038
0.00631655
0.00726773
0.0091381
0.00917376
0.00928647
0.0102421
0.0103157
-0.00020202
-0.000438142
0.00220451
0.000580321
0.00142712
0.00189119
0.00228539
0.00215049
0.00251652
0.00378014
0.00279846
0.00473867
0.00701497
0.00618281
0.00681268
0.00866571
0.0087749
0.0086149
0.00941268
0.00962289
-0.000206829
-0.000482265
0.00211719
0.000613732
0.00129574
0.00184839
0.00214944
0.0020508
0.00244876
0.00366382
0.00276854
0.00445836
0.0067672
0.00604048
0.00635794
0.00814489
0.00837024
0.00798603
0.00857367
0.00887962
-0.000211323
-0.000528905
0.00201869
0.000650469
0.00116024
0.00179644
0.00202103
0.001937
0.00237308
0.00353423
0.00272319
0.00417908
0.00648803
0.00588376
0.00590701
0.00758199
0.00793799
0.0073959
0.00774151
0.00809302
-0.000215668
-0.000577784
0.00190795
0.000690183
0.00102152
0.00173176
0.00190279
0.00179829
0.0022838
0.00339314
0.00266165
0.00389939
0.00617831
0.00570856
0.00546252
0.0069811
0.00747581
0.00684177
0.00693745
0.00725158
-0.000220144
-0.000628261
0.0017838
0.000731621
0.000882945
0.00165105
0.00179524
0.00166112
0.00217705
0.003241
0.00258358
0.0036168
0.00583773
0.00551151
0.00502959
0.00634812
0.00697503
0.00632003
0.0061756
0.00642031
-0.000225145
-0.000679743
0.00164559
0.000772929
0.000747609
0.00155232
0.00169737
0.00151865
0.00205019
0.00307685
0.00248958
0.00333066
0.00546759
0.00528696
0.00460618
0.00569087
0.00643784
0.00582273
0.00543695
0.00560394
-0.00023102
-0.000731713
0.00149258
0.000812371
0.000618391
0.00143337
0.00160692
0.00137522
0.00190206
0.00289818
0.00238037
0.00304067
0.00506952
0.00503313
0.00418925
0.00500679
0.00585717
0.00535078
0.00485728
0.00483417
-0.000238598
-0.000783102
0.00132467
0.000846467
0.000499543
0.00129354
0.00151962
0.00123665
0.00173359
0.00270198
0.0022568
0.0027474
0.00464377
0.00474716
0.0037839
0.00430115
0.00521509
0.00487527
0.00426668
0.00415699
-0.000248417
-0.000833543
0.00114269
0.000871881
0.000392717
0.00113406
0.00142791
0.00110623
0.00154684
0.00248526
0.00211658
0.00245284
0.00419764
0.00442886
0.00339749
0.0036206
0.00454633
0.00439242
0.00368957
0.00339716
-0.000261464
-0.000881787
0.000947106
0.000884451
0.000300524
0.000956379
0.00132617
0.000984815
0.00134574
0.00224602
0.00195793
0.00215773
0.00373334
0.00408646
0.00304817
0.00297667
0.00381054
0.00381471
0.00307194
0.00262003
-0.000278843
-0.000927139
0.000740383
0.000879778
0.000222952
0.000765486
0.00120688
0.000871208
0.00113607
0.00198325
0.0017783
0.00186435
0.00325754
0.00371328
0.00271041
0.00236771
0.00305276
0.00319008
0.00245534
0.00180492
-0.000301604
-0.00096893
0.00052615
0.000853435
0.000159756
0.000566481
0.00106603
0.000762931
0.000923429
0.00169853
0.00157324
0.00157275
0.00277779
0.00329476
0.0023405
0.00175193
0.00224315
0.00249744
0.00189877
0.00117696
-0.000331476
-0.00100607
0.00030681
0.000801248
0.000107744
0.000364188
0.000901006
0.000653355
0.000710963
0.0013956
0.00134107
0.0012788
0.00229165
0.00283895
0.00198188
0.00121439
0.00146571
0.00174742
0.0012529
0.000411888
-0.000369013
-0.00103909
8.86579e-05
0.000720067
6.01505e-05
0.000166432
0.000711632
0.000534855
0.000501186
0.00107895
0.00107988
0.000977665
0.00180355
0.00234425
0.00158705
0.000688163
0.00068895
0.000929214
0.000577784
-0.000231929
-0.000415353
-0.00106791
-0.000125338
0.000606453
2.3636e-05
-2.32621e-05
0.000499001
0.000401028
0.000294587
0.000752668
0.000789997
0.000665819
0.00131023
0.00180649
0.00114599
0.00017555
-4.31099e-05
0.000124807
-0.000101143
-0.000832167
-0.00047089
-0.00109419
-0.000332148
0.000461568
-3.42102e-05
-0.000203588
0.000268336
0.000246117
8.84627e-05
0.000420505
0.000472944
0.000336942
0.000810897
0.00124118
0.000674343
-0.000320408
-0.000727885
-0.000665739
-0.000826526
-0.00145771
-0.000535703
-0.00112054
-0.000528303
0.000286603
-0.000107051
-0.000371884
2.46436e-05
6.58732e-05
-0.000121138
8.55031e-05
0.000130103
-1.19973e-05
0.000311669
0.000658511
0.000168881
-0.000813573
-0.00137547
-0.0014413
-0.0015669
-0.00209451
-0.000609942
-0.00114876
-0.000713044
8.63402e-05
-0.000199464
-0.000533327
-0.000227613
-0.000140082
-0.000338083
-0.000250366
-0.000235566
-0.000382322
-0.000187
6.68801e-05
-0.000365533
-0.00131128
-0.00198743
-0.00219165
-0.00231411
-0.00275094
-0.000692951
-0.00118262
-0.000885329
-0.000132227
-0.000316234
-0.000692161
-0.000484638
-0.000370648
-0.00056743
-0.000586518
-0.000619624
-0.000774642
-0.000684418
-0.000524896
-0.000922053
-0.00182484
-0.00257668
-0.00291202
-0.00306564
-0.00341616
-0.000784591
-0.00122401
-0.00104681
-0.000363416
-0.000459784
-0.000854644
-0.000744919
-0.000624828
-0.000812427
-0.000922327
-0.00101633
-0.00118757
-0.00118371
-0.0011161
-0.00149476
-0.0023545
-0.00314979
-0.0035913
-0.00380787
-0.00409253
-0.000884154
-0.00127579
-0.00119989
-0.000600797
-0.000629137
-0.00102634
-0.0010096
-0.000899828
-0.00107414
-0.00125854
-0.00142134
-0.00162027
-0.00168789
-0.00170271
-0.00207471
-0.0028941
-0.00371757
-0.00423887
-0.00453369
-0.00478948
-0.000991255
-0.00133325
-0.0013466
-0.00084046
-0.00082241
-0.00121049
-0.00127948
-0.00119368
-0.00135373
-0.0015965
-0.00183084
-0.00206919
-0.00219882
-0.00228581
-0.00266131
-0.00344176
-0.00428244
-0.00486341
-0.00522664
-0.00549204
-0.00110583
-0.00140931
-0.00149069
-0.00108074
-0.00103556
-0.00140846
-0.00155564
-0.0015054
-0.0016519
-0.00193735
-0.00224238
-0.00252997
-0.00271887
-0.00286885
-0.00325046
-0.00399113
-0.00483903
-0.00547255
-0.00588827
-0.00618742
-0.00122788
-0.00149791
-0.00163474
-0.00132138
-0.00126515
-0.00162038
-0.0018381
-0.00183318
-0.00196921
-0.00228254
-0.00265308
-0.00299806
-0.00324694
-0.00345239
-0.00384079
-0.00454403
-0.00538752
-0.00607004
-0.00652746
-0.00685693
-0.00135731
-0.00159937
-0.00178108
-0.00156286
-0.00150916
-0.00184373
-0.00212436
-0.00217476
-0.00230762
-0.0026353
-0.00306171
-0.00346829
-0.00377943
-0.00403772
-0.00443532
-0.00510301
-0.00592593
-0.00664711
-0.00714881
-0.0075
-0.00149415
-0.00171402
-0.0019315
-0.00180471
-0.00176593
-0.00207807
-0.00241242
-0.00252858
-0.00266845
-0.00299887
-0.00346826
-0.00393566
-0.00431124
-0.00462327
-0.00503263
-0.00566877
-0.00645961
-0.00720071
-0.00775267
-0.00812727
-0.00163853
-0.00184184
-0.00208732
-0.00204609
-0.00203371
-0.00232445
-0.00270119
-0.00289071
-0.00305087
-0.00337641
-0.00387337
-0.00439718
-0.00483803
-0.00520549
-0.00562956
-0.0062405
-0.00699795
-0.00773589
-0.00832906
-0.00873741
-0.00179048
-0.00198252
-0.00224967
-0.00228647
-0.00231059
-0.00258429
-0.00299136
-0.00325528
-0.0034512
-0.00377166
-0.00428005
-0.00485022
-0.00535441
-0.00578087
-0.00622463
-0.00681362
-0.0075428
-0.0082636
-0.0088754
-0.00932306
-0.0019499
-0.00213546
-0.00241947
-0.00252574
-0.00259453
-0.00285829
-0.00328443
-0.00361767
-0.00386334
-0.00418522
-0.00469297
-0.00529533
-0.00585614
-0.0063436
-0.00681673
-0.00738544
-0.00808716
-0.00879266
-0.00940221
-0.00987822
-0.00211647
-0.00229989
-0.00259766
-0.00276419
-0.00288306
-0.00314563
-0.00358245
-0.00397616
-0.00428003
-0.00461362
-0.00511557
-0.00573592
-0.00634277
-0.00688635
-0.00739949
-0.00795701
-0.00862628
-0.00932093
-0.00992107
-0.0104053
-0.00228979
-0.0024749
-0.00278488
-0.00300208
-0.00317383
-0.00344468
-0.00388756
-0.00433042
-0.00469475
-0.00505229
-0.00554829
-0.00617442
-0.00681622
-0.00740666
-0.00796313
-0.00852636
-0.00916117
-0.00984145
-0.0104364
-0.0109143
-0.00246956
-0.00265923
-0.00298111
-0.00324017
-0.00346462
-0.0037527
-0.00420094
-0.00468123
-0.00510235
-0.00549468
-0.00599051
-0.00661204
-0.00727771
-0.00790654
-0.00850005
-0.00908423
-0.00969337
-0.0103498
-0.0109449
-0.0114145
-0.00265529
-0.00285152
-0.00318597
-0.00347919
-0.00375333
-0.00406652
-0.0045225
-0.00503044
-0.00550039
-0.00593223
-0.00643815
-0.0070512
-0.00772686
-0.00838799
-0.00901062
-0.0096193
-0.0102197
-0.0108466
-0.0114383
-0.0119046
-0.00284632
-0.00305016
-0.0033983
-0.00371996
-0.00403912
-0.00438263
-0.00484985
-0.00537934
-0.00588957
-0.00635884
-0.00688284
-0.00749182
-0.0081652
-0.00884879
-0.00949648
-0.0101264
-0.0107331
-0.0113354
-0.0119149
-0.0123807
-0.00304206
-0.0032537
-0.00361642
-0.00396269
-0.00432126
-0.00469791
-0.00518029
-0.00572688
-0.00626983
-0.0067733
-0.00731669
-0.00792838
-0.00859492
-0.00928668
-0.00995412
-0.010601
-0.0112214
-0.0118124
-0.0123776
-0.0128441
-0.00324122
-0.00346042
-0.00383851
-0.00420699
-0.00459874
-0.00500936
-0.00551169
-0.0060717
-0.00663935
-0.00717336
-0.00773513
-0.00835397
-0.00901657
-0.00970684
-0.0103841
-0.0110407
-0.0116724
-0.0122608
-0.0128121
-0.0132794
-0.00344269
-0.00366893
-0.00406191
-0.00445179
-0.00487156
-0.0053137
-0.00583909
-0.00641376
-0.00699882
-0.00755599
-0.0081338
-0.00875931
-0.0094191
-0.0101084
-0.0107908
-0.0114526
-0.0120946
-0.0126854
-0.0132204
-0.0136738
-0.00364409
-0.00387733
-0.00428445
-0.0046943
-0.0051396
-0.00561066
-0.00615755
-0.00674816
-0.0073505
-0.00792306
-0.00851301
-0.00914163
-0.00978885
-0.0104731
-0.0111581
-0.0118191
-0.012473
-0.0130845
-0.0136273
-0.0140744
-0.00384365
-0.00408395
-0.00450344
-0.00493172
-0.00539961
-0.00589798
-0.00646708
-0.00707099
-0.00768981
-0.00827577
-0.00887274
-0.00950854
-0.0101361
-0.010796
-0.0114766
-0.0121222
-0.0127576
-0.0133752
-0.0139475
-0.0144338
-0.00403911
-0.0042861
-0.00471635
-0.00516244
-0.00565026
-0.00617052
-0.00676224
-0.0073805
-0.00801197
-0.00860915
-0.00920439
-0.00985076
-0.0104796
-0.0111089
-0.0117812
-0.0124227
-0.0130304
-0.0136032
-0.0141218
-0.014563
-0.00422576
-0.00448119
-0.00492103
-0.00538409
-0.00589024
-0.00642728
-0.00703939
-0.0076769
-0.00831795
-0.00891794
-0.00948251
-0.010079
-0.0106865
-0.0112816
-0.0119322
-0.0126089
-0.0132831
-0.0139598
-0.0145971
-0.015131
-0.00440091
-0.00466357
-0.00511768
-0.00559475
-0.0061136
-0.00666414
-0.00729913
-0.00797775
-0.00867478
-0.00933659
-0.00993922
-0.0104822
-0.0109906
-0.0114822
-0.0119894
-0.0124903
-0.0129347
-0.0133379
-0.013715
-0.0141069
-0.00456724
-0.00482794
-0.00528013
-0.0057723
-0.00630095
-0.00686046
-0.00750392
-0.00816736
-0.008818
-0.00940353
-0.0099485
-0.0105139
-0.011097
-0.0116898
-0.012312
-0.0129931
-0.0136885
-0.0143657
-0.0150074
-0.0155681
-0.00473064
-0.00501834
-0.00545731
-0.00592607
-0.00644216
-0.00700061
-0.00765669
-0.0083311
-0.00898554
-0.00959994
-0.0101714
-0.0107533
-0.0113478
-0.0118844
-0.0123702
-0.0128111
-0.0132133
-0.0135841
-0.0139645
-0.0144023
-0.00478465
-0.00509097
-0.00558353
-0.00613404
-0.00668118
-0.00723591
-0.00787935
-0.00852962
-0.00913979
-0.00972713
-0.0102761
-0.0108024
-0.0113728
-0.0119501
-0.0124996
-0.0130432
-0.0135799
-0.0140896
-0.0145671
-0.0150453
0.0528159
0.0336795
0.0166157
0.00610205
0.00137281
-0.00010579
-0.00115291
-0.00303168
-0.00565916
-0.00828241
-0.0102827
-0.0116186
-0.0127265
-0.0139514
-0.0152459
-0.0164675
-0.0175518
-0.018512
-0.0196029
-0.0209345
-0.0222479
-0.023438
-0.0246054
-0.0258053
-0.027004
-0.0281755
-0.0293694
-0.0306933
-0.0323702
-0.0343174
-0.0360618
-0.0373606
-0.0383579
-0.039357
-0.0405609
-0.0419096
-0.0433144
-0.0447636
-0.0462388
-0.0477497
-0.0492484
-0.0506874
-0.0521078
-0.0535843
-0.0550925
-0.0566251
-0.0582029
-0.0597976
-0.0614047
-0.063061
-0.0647527
-0.0664521
-0.0681758
-0.0699341
-0.0717152
-0.073508
-0.0753548
-0.0772415
-0.0791474
-0.0810967
-0.0830915
-0.0851034
-0.0871205
-0.0891682
-0.0912831
-0.0934272
-0.0956074
-0.0978388
-0.100096
-0.102408
-0.104798
-0.10721
-0.109651
-0.112104
-0.11459
-0.117138
-0.119785
-0.122493
-0.125213
-0.127965
-0.130806
-0.133672
-0.136589
-0.13956
-0.142577
-0.145671
-0.148803
-0.151998
-0.155221
-0.158578
-0.161922
-0.165365
-0.168806
-0.172319
-0.175917
-0.179506
-0.183275
-0.186839
-0.19025
-0.193825
0.0500031
0.0334858
0.0167006
0.00622816
0.00146374
-5.54172e-05
-0.00111734
-0.00300564
-0.00564201
-0.00827199
-0.010276
-0.0116136
-0.0127216
-0.0139467
-0.0152417
-0.0164637
-0.0175485
-0.0185086
-0.0195992
-0.0209311
-0.0222448
-0.023435
-0.0246025
-0.0258026
-0.0270015
-0.0281732
-0.0293671
-0.0306907
-0.0323676
-0.0343155
-0.0360606
-0.0373595
-0.0383566
-0.0393556
-0.0405596
-0.0419084
-0.0433133
-0.0447626
-0.0462379
-0.0477489
-0.0492477
-0.0506868
-0.0521072
-0.0535837
-0.0550919
-0.0566246
-0.0582024
-0.0597972
-0.0614042
-0.0630606
-0.0647523
-0.0664517
-0.0681754
-0.0699337
-0.0717149
-0.0735076
-0.0753544
-0.0772412
-0.0791471
-0.0810964
-0.0830912
-0.0851031
-0.0871202
-0.089168
-0.0912829
-0.093427
-0.0956071
-0.0978386
-0.100095
-0.102408
-0.104797
-0.10721
-0.109651
-0.112104
-0.114589
-0.117138
-0.119785
-0.122493
-0.125213
-0.127965
-0.130806
-0.133672
-0.136589
-0.13956
-0.142577
-0.145671
-0.148803
-0.151998
-0.15522
-0.158577
-0.161922
-0.165365
-0.168806
-0.172319
-0.175917
-0.179506
-0.183275
-0.186839
-0.19025
-0.193825
0.0483826
0.0334779
0.0169102
0.00645997
0.00161023
-3.34652e-06
-0.0011008
-0.00299023
-0.00562332
-0.008254
-0.0102622
-0.0116046
-0.012716
-0.0139428
-0.0152381
-0.0164602
-0.0175454
-0.0185058
-0.0195966
-0.0209288
-0.0222426
-0.0234327
-0.0246003
-0.0258004
-0.0269995
-0.0281712
-0.0293649
-0.0306882
-0.0323653
-0.0343143
-0.0360601
-0.037359
-0.0383556
-0.0393542
-0.0405584
-0.0419074
-0.0433124
-0.0447618
-0.0462372
-0.0477483
-0.0492471
-0.0506863
-0.0521066
-0.0535832
-0.0550914
-0.0566241
-0.058202
-0.0597968
-0.0614038
-0.0630602
-0.064752
-0.0664513
-0.0681751
-0.0699334
-0.0717146
-0.0735073
-0.0753541
-0.0772409
-0.0791468
-0.0810961
-0.0830909
-0.0851029
-0.08712
-0.0891677
-0.0912826
-0.0934268
-0.0956069
-0.0978384
-0.100095
-0.102407
-0.104797
-0.10721
-0.109651
-0.112104
-0.114589
-0.117138
-0.119785
-0.122493
-0.125213
-0.127965
-0.130806
-0.133672
-0.136589
-0.13956
-0.142577
-0.145671
-0.148803
-0.151997
-0.15522
-0.158577
-0.161922
-0.165365
-0.168806
-0.172319
-0.175917
-0.179506
-0.183275
-0.186839
-0.19025
-0.193825
0.0465373
0.0332831
0.0170917
0.00670404
0.0017852
5.80254e-05
-0.00108463
-0.00297394
-0.00559757
-0.00822264
-0.0102336
-0.0115857
-0.012707
-0.0139386
-0.0152339
-0.0164546
-0.0175401
-0.0185023
-0.0195947
-0.0209272
-0.0222405
-0.0234306
-0.0245983
-0.0257987
-0.0269977
-0.0281692
-0.0293624
-0.0306851
-0.0323626
-0.0343132
-0.0360598
-0.0373583
-0.0383542
-0.0393525
-0.0405569
-0.0419063
-0.0433113
-0.0447608
-0.0462363
-0.0477476
-0.0492466
-0.0506857
-0.052106
-0.0535826
-0.0550909
-0.0566236
-0.0582015
-0.0597964
-0.0614034
-0.0630598
-0.0647516
-0.066451
-0.0681748
-0.0699331
-0.0717143
-0.073507
-0.0753538
-0.0772407
-0.0791466
-0.0810959
-0.0830907
-0.0851027
-0.0871198
-0.0891675
-0.0912824
-0.0934266
-0.0956067
-0.0978382
-0.100095
-0.102407
-0.104797
-0.10721
-0.10965
-0.112104
-0.114589
-0.117138
-0.119785
-0.122492
-0.125212
-0.127965
-0.130806
-0.133672
-0.136589
-0.13956
-0.142577
-0.145671
-0.148803
-0.151997
-0.15522
-0.158577
-0.161922
-0.165365
-0.168806
-0.172319
-0.175917
-0.179505
-0.183274
-0.186839
-0.19025
-0.193826
0.0446397
0.0330048
0.0172789
0.00696483
0.00197415
0.000124622
-0.00107113
-0.00295996
-0.00556738
-0.00817854
-0.0101888
-0.0115544
-0.0126924
-0.0139335
-0.0152292
-0.0164466
-0.0175316
-0.0184972
-0.0195925
-0.0209253
-0.022238
-0.0234284
-0.024597
-0.0257978
-0.0269966
-0.0281674
-0.0293596
-0.0306814
-0.0323596
-0.0343119
-0.0360593
-0.0373572
-0.0383523
-0.0393504
-0.0405551
-0.0419048
-0.0433099
-0.0447595
-0.0462351
-0.0477466
-0.0492458
-0.0506849
-0.0521052
-0.0535818
-0.0550902
-0.056623
-0.058201
-0.0597959
-0.0614029
-0.0630593
-0.0647512
-0.0664506
-0.0681744
-0.0699327
-0.071714
-0.0735067
-0.0753535
-0.0772404
-0.0791463
-0.0810956
-0.0830905
-0.0851024
-0.0871196
-0.0891673
-0.0912822
-0.0934264
-0.0956065
-0.097838
-0.100095
-0.102407
-0.104797
-0.10721
-0.10965
-0.112104
-0.114589
-0.117138
-0.119785
-0.122492
-0.125212
-0.127965
-0.130806
-0.133671
-0.136589
-0.13956
-0.142577
-0.145671
-0.148803
-0.151997
-0.15522
-0.158577
-0.161922
-0.165365
-0.168806
-0.172318
-0.175916
-0.179505
-0.183274
-0.186839
-0.19025
-0.193827
0.0427524
0.0326566
0.0174731
0.00723358
0.00216642
0.000192229
-0.00106139
-0.00294932
-0.00553645
-0.00812855
-0.0101342
-0.011514
-0.012673
-0.0139273
-0.0152243
-0.016437
-0.0175206
-0.0184905
-0.0195897
-0.0209223
-0.0222341
-0.0234254
-0.0245958
-0.0257977
-0.0269969
-0.0281669
-0.0293572
-0.0306774
-0.0323561
-0.0343102
-0.0360583
-0.0373554
-0.0383497
-0.0393477
-0.0405529
-0.0419028
-0.0433081
-0.0447579
-0.0462337
-0.0477454
-0.0492447
-0.0506839
-0.0521042
-0.0535808
-0.0550893
-0.0566222
-0.0582004
-0.0597953
-0.0614022
-0.0630588
-0.0647508
-0.0664501
-0.0681739
-0.0699323
-0.0717136
-0.0735063
-0.0753531
-0.07724
-0.0791459
-0.0810953
-0.0830902
-0.0851022
-0.0871193
-0.089167
-0.091282
-0.0934261
-0.0956063
-0.0978378
-0.100095
-0.102407
-0.104797
-0.107209
-0.10965
-0.112103
-0.114589
-0.117137
-0.119785
-0.122492
-0.125212
-0.127964
-0.130806
-0.133671
-0.136589
-0.13956
-0.142577
-0.145671
-0.148802
-0.151997
-0.15522
-0.158577
-0.161921
-0.165364
-0.168806
-0.172318
-0.175916
-0.179505
-0.183274
-0.186839
-0.190251
-0.193828
0.0408826
0.0322245
0.0176603
0.00750112
0.0023575
0.000259813
-0.00105475
-0.00294128
-0.0055055
-0.00807629
-0.0100754
-0.011469
-0.0126508
-0.0139205
-0.0152195
-0.0164268
-0.0175084
-0.0184832
-0.0195863
-0.0209176
-0.0222279
-0.023421
-0.024594
-0.0257979
-0.0269983
-0.0281681
-0.0293563
-0.0306742
-0.0323527
-0.0343082
-0.0360566
-0.0373526
-0.0383461
-0.0393444
-0.0405502
-0.0419003
-0.0433055
-0.0447556
-0.0462318
-0.0477437
-0.0492431
-0.0506825
-0.0521028
-0.0535794
-0.055088
-0.0566212
-0.0581996
-0.0597944
-0.0614014
-0.0630581
-0.0647502
-0.0664495
-0.0681733
-0.0699317
-0.0717131
-0.0735058
-0.0753526
-0.0772396
-0.0791455
-0.081095
-0.0830899
-0.0851019
-0.087119
-0.0891667
-0.0912817
-0.0934259
-0.095606
-0.0978376
-0.100094
-0.102406
-0.104796
-0.107209
-0.10965
-0.112103
-0.114589
-0.117137
-0.119784
-0.122492
-0.125212
-0.127964
-0.130806
-0.133671
-0.136589
-0.139559
-0.142577
-0.145671
-0.148802
-0.151997
-0.15522
-0.158577
-0.161921
-0.165364
-0.168805
-0.172318
-0.175916
-0.179505
-0.183274
-0.186839
-0.190251
-0.193829
0.039042
0.0317052
0.017832
0.00776421
0.00254633
0.000328707
-0.00104987
-0.00293572
-0.00547503
-0.00802295
-0.0100146
-0.0114215
-0.0126271
-0.0139136
-0.0152152
-0.0164166
-0.0174961
-0.0184763
-0.0195832
-0.0209118
-0.0222199
-0.023415
-0.0245914
-0.0257977
-0.0270001
-0.0281709
-0.0293576
-0.030673
-0.0323507
-0.0343065
-0.0360542
-0.0373486
-0.0383416
-0.0393406
-0.0405472
-0.0418971
-0.0433022
-0.0447526
-0.0462294
-0.0477417
-0.0492412
-0.0506807
-0.0521011
-0.0535776
-0.0550863
-0.0566199
-0.0581985
-0.0597933
-0.0614004
-0.0630571
-0.0647494
-0.0664488
-0.0681725
-0.069931
-0.0717125
-0.0735052
-0.075352
-0.0772389
-0.079145
-0.0810946
-0.0830895
-0.0851015
-0.0871187
-0.0891664
-0.0912814
-0.0934256
-0.0956057
-0.0978373
-0.100094
-0.102406
-0.104796
-0.107209
-0.10965
-0.112103
-0.114588
-0.117137
-0.119784
-0.122492
-0.125212
-0.127964
-0.130805
-0.133671
-0.136588
-0.139559
-0.142576
-0.145671
-0.148802
-0.151997
-0.15522
-0.158577
-0.161921
-0.165364
-0.168805
-0.172318
-0.175916
-0.179505
-0.183275
-0.18684
-0.190252
-0.193831
0.0372607
0.0310971
0.0179805
0.00802181
0.00273401
0.000400747
-0.00104578
-0.00293325
-0.00544593
-0.00796921
-0.00995242
-0.0113724
-0.0126022
-0.0139067
-0.0152115
-0.0164068
-0.0174837
-0.0184698
-0.0195808
-0.0209061
-0.0222109
-0.0234079
-0.0245881
-0.0257972
-0.027002
-0.0281748
-0.0293611
-0.0306744
-0.0323509
-0.0343061
-0.0360519
-0.0373436
-0.0383358
-0.0393361
-0.0405437
-0.0418935
-0.0432981
-0.0447489
-0.0462264
-0.0477392
-0.0492389
-0.0506788
-0.0520993
-0.0535754
-0.0550841
-0.0566182
-0.058197
-0.0597919
-0.061399
-0.0630559
-0.0647483
-0.0664477
-0.0681715
-0.0699302
-0.0717117
-0.0735044
-0.0753511
-0.0772381
-0.0791444
-0.0810941
-0.083089
-0.0851011
-0.0871183
-0.089166
-0.091281
-0.0934252
-0.0956054
-0.097837
-0.100094
-0.102406
-0.104796
-0.107209
-0.10965
-0.112103
-0.114588
-0.117137
-0.119784
-0.122492
-0.125212
-0.127964
-0.130805
-0.133671
-0.136588
-0.139559
-0.142576
-0.145671
-0.148802
-0.151997
-0.15522
-0.158577
-0.161921
-0.165364
-0.168805
-0.172318
-0.175916
-0.179505
-0.183275
-0.18684
-0.190253
-0.193834
0.0355146
0.0303994
0.0180988
0.00827492
0.00292244
0.0004771
-0.00104227
-0.00293501
-0.00541942
-0.00791572
-0.00988931
-0.011322
-0.0125766
-0.0139001
-0.0152087
-0.0163975
-0.0174712
-0.0184634
-0.0195794
-0.0209011
-0.0222019
-0.0234003
-0.0245843
-0.0257964
-0.0270041
-0.0281799
-0.029367
-0.0306786
-0.0323537
-0.034308
-0.0360506
-0.0373383
-0.038329
-0.0393307
-0.0405397
-0.0418894
-0.0432935
-0.0447445
-0.0462229
-0.0477361
-0.0492362
-0.0506767
-0.0520975
-0.053573
-0.0550816
-0.0566162
-0.0581953
-0.0597902
-0.0613974
-0.0630544
-0.0647469
-0.0664463
-0.0681702
-0.069929
-0.0717108
-0.0735036
-0.0753501
-0.077237
-0.0791435
-0.0810934
-0.0830884
-0.0851005
-0.0871179
-0.0891656
-0.0912806
-0.0934249
-0.0956051
-0.0978366
-0.100093
-0.102406
-0.104796
-0.107209
-0.109649
-0.112103
-0.114588
-0.117136
-0.119784
-0.122491
-0.125211
-0.127963
-0.130805
-0.133671
-0.136588
-0.139559
-0.142576
-0.14567
-0.148802
-0.151997
-0.155219
-0.158577
-0.161921
-0.165364
-0.168805
-0.172318
-0.175916
-0.179505
-0.183275
-0.186841
-0.190255
-0.193837
0.0338273
0.0296141
0.0181819
0.00852386
0.00311116
0.000557289
-0.00103985
-0.00294208
-0.0053966
-0.00786284
-0.00982532
-0.0112704
-0.0125506
-0.0138941
-0.0152069
-0.0163886
-0.0174585
-0.0184571
-0.0195787
-0.0208973
-0.0221934
-0.0233926
-0.0245804
-0.0257957
-0.0270067
-0.0281865
-0.0293755
-0.0306859
-0.032359
-0.0343122
-0.0360513
-0.0373334
-0.0383216
-0.0393245
-0.0405352
-0.0418849
-0.0432884
-0.0447397
-0.0462189
-0.0477327
-0.0492332
-0.0506746