/*--------------------------------*- C++ -*----------------------------------*\
| =========                 |                                                 |
| \\      /  F ield         | OpenFOAM: The Open Source CFD Toolbox           |
|  \\    /   O peration     | Version:  v1912                                 |
|   \\  /    A nd           | Website:  www.openfoam.com                      |
|    \\/     M anipulation  |                                                 |
\*---------------------------------------------------------------------------*/
FoamFile
{
    version     2.0;
    format      ascii;
    class       surfaceScalarField;
    location    "6.2";
    object      phi;
}
// * * * * * * * * * * * * * * * * * * * * * * * * * * * * * * * * * * * * * //

dimensions      [0 3 -1 0 0 0 0];
oriented        oriented;


internalField   nonuniform List<scalar> 
19000
(
1.16303e-06
-1.84703e-07
1.14989e-06
-1.19512e-06
1.16412e-06
1.548e-06
1.15394e-06
-3.5442e-08
1.16111e-06
1.74912e-07
1.13348e-06
-1.71562e-06
1.21869e-06
7.12172e-07
1.1457e-06
-1.4136e-06
1.18538e-06
8.06911e-07
1.19224e-06
1.94547e-06
1.16336e-06
7.87209e-07
1.20212e-06
1.22394e-06
1.16269e-06
8.16589e-08
1.16784e-06
3.61968e-07
1.15946e-06
-7.80228e-08
1.14742e-06
-4.66311e-07
1.164e-06
-1.43339e-07
1.11014e-06
-8.53443e-07
1.13657e-06
-1.84029e-07
-8.88775e-07
1.02442e-06
1.21952e-06
-1.7996e-07
1.20623e-06
-1.18182e-06
1.21749e-06
1.53674e-06
1.2088e-06
-2.67505e-08
1.21241e-06
1.71296e-07
1.18645e-06
-1.68965e-06
1.27009e-06
6.28533e-07
1.19874e-06
-1.34225e-06
1.22966e-06
7.75987e-07
1.26865e-06
1.90648e-06
1.2204e-06
8.3546e-07
1.26306e-06
1.18127e-06
1.22502e-06
1.19698e-07
1.23132e-06
3.55672e-07
1.21426e-06
-6.09622e-08
1.21512e-06
-4.6717e-07
1.21075e-06
-1.38966e-07
1.18434e-06
-8.27033e-07
1.18184e-06
-1.81535e-07
-8.23355e-07
1.11642e-06
1.27838e-06
-1.75553e-07
1.2657e-06
-1.16915e-06
1.27628e-06
1.52615e-06
1.26594e-06
-1.64083e-08
1.2662e-06
1.7104e-07
1.24238e-06
-1.66584e-06
1.32314e-06
5.47773e-07
1.2574e-06
-1.27651e-06
1.27719e-06
7.56199e-07
1.33866e-06
1.84502e-06
1.2848e-06
8.89314e-07
1.30831e-06
1.15777e-06
1.28355e-06
1.44453e-07
1.28273e-06
3.56491e-07
1.27478e-06
-5.30094e-08
1.26923e-06
-4.61621e-07
1.27162e-06
-1.41355e-07
1.24879e-06
-8.04205e-07
1.25069e-06
-1.83435e-07
-7.74391e-07
1.20173e-06
1.33957e-06
-1.71017e-07
1.32876e-06
-1.15834e-06
1.33978e-06
1.51513e-06
1.32698e-06
-3.61068e-09
1.32295e-06
1.75073e-07
1.30289e-06
-1.64577e-06
1.37763e-06
4.73028e-07
1.32666e-06
-1.22553e-06
1.32657e-06
7.56291e-07
1.39355e-06
1.77803e-06
1.35061e-06
9.32254e-07
1.35685e-06
1.15152e-06
1.34206e-06
1.59242e-07
1.34478e-06
3.53776e-07
1.34016e-06
-4.83922e-08
1.33545e-06
-4.56906e-07
1.33615e-06
-1.42054e-07
1.31205e-06
-7.80107e-07
1.31348e-06
-1.84864e-07
-7.22228e-07
1.26132e-06
1.40316e-06
-1.65823e-07
1.39491e-06
-1.15008e-06
1.40765e-06
1.50239e-06
1.39219e-06
1.18461e-08
1.38399e-06
1.83278e-07
1.36756e-06
-1.62934e-06
1.43436e-06
4.06231e-07
1.40205e-06
-1.19322e-06
1.3845e-06
7.7384e-07
1.44097e-06
1.72156e-06
1.41733e-06
9.55896e-07
1.41759e-06
1.15127e-06
1.40807e-06
1.68756e-07
1.41467e-06
3.47181e-07
1.41183e-06
-4.55513e-08
1.40653e-06
-4.51606e-07
1.40663e-06
-1.42152e-07
1.3793e-06
-7.5278e-07
1.38158e-06
-1.87146e-07
-6.68856e-07
1.32821e-06
1.46934e-06
-1.59485e-07
1.46342e-06
-1.14417e-06
1.4789e-06
1.48691e-06
1.46173e-06
2.90162e-08
1.45047e-06
1.94539e-07
1.43569e-06
-1.61457e-06
1.49364e-06
3.48284e-07
1.47781e-06
-1.17739e-06
1.45272e-06
7.98927e-07
1.49392e-06
1.68036e-06
1.48747e-06
9.62342e-07
1.4895e-06
1.14923e-06
1.48177e-06
1.76486e-07
1.4906e-06
3.38358e-07
1.48754e-06
-4.24912e-08
1.48137e-06
-4.45438e-07
1.48021e-06
-1.40996e-07
1.44962e-06
-7.22189e-07
1.45174e-06
-1.89269e-07
-6.1461e-07
1.3975e-06
1.53831e-06
-1.51583e-07
1.53385e-06
-1.1397e-06
1.55274e-06
1.46802e-06
1.53583e-06
4.59243e-08
1.52308e-06
2.07285e-07
1.50726e-06
-1.59874e-06
1.55562e-06
2.99922e-07
1.55076e-06
-1.17253e-06
1.5286e-06
8.21085e-07
1.5587e-06
1.65026e-06
1.5632e-06
9.57841e-07
1.56865e-06
1.14378e-06
1.5605e-06
1.84639e-07
1.57049e-06
3.28372e-07
1.56604e-06
-3.80477e-08
1.55894e-06
-4.38334e-07
1.55699e-06
-1.39046e-07
1.52325e-06
-6.88451e-07
1.5247e-06
-1.90712e-07
-5.59956e-07
1.47004e-06
1.61038e-06
-1.41833e-07
1.60639e-06
-1.13572e-06
1.62904e-06
1.44537e-06
1.61457e-06
6.04001e-08
1.60184e-06
2.20009e-07
1.58299e-06
-1.57989e-06
1.62046e-06
2.62451e-07
1.62034e-06
-1.17241e-06
1.60887e-06
8.32561e-07
1.6348e-06
1.62432e-06
1.64477e-06
9.47878e-07
1.65223e-06
1.13632e-06
1.64236e-06
1.9451e-07
1.65307e-06
3.17665e-07
1.64726e-06
-3.22438e-08
1.63909e-06
-4.30157e-07
1.63675e-06
-1.36709e-07
1.60048e-06
-6.52183e-07
1.60109e-06
-1.91315e-07
-5.05038e-07
1.54617e-06
1.68596e-06
-1.30224e-07
1.68178e-06
-1.13153e-06
1.70815e-06
1.41899e-06
1.69753e-06
7.10246e-08
1.68603e-06
2.31504e-07
1.66367e-06
-1.55753e-06
1.68846e-06
2.37661e-07
1.68758e-06
-1.17153e-06
1.69162e-06
8.28523e-07
1.719e-06
1.59694e-06
1.73085e-06
9.3602e-07
1.73863e-06
1.12854e-06
1.72664e-06
2.06503e-07
1.7379e-06
3.06409e-07
1.73113e-06
-2.54796e-08
1.72184e-06
-4.20861e-07
1.71946e-06
-1.34331e-07
1.68134e-06
-6.14069e-07
1.68143e-06
-1.91403e-07
-4.50264e-07
1.62666e-06
1.76558e-06
-1.17082e-07
1.7608e-06
-1.12674e-06
1.7904e-06
1.38939e-06
1.78386e-06
7.75626e-08
1.77442e-06
2.40948e-07
1.74937e-06
-1.53248e-06
1.76035e-06
2.26683e-07
1.75443e-06
-1.16562e-06
1.77572e-06
8.07233e-07
1.80753e-06
1.56513e-06
1.81939e-06
9.24163e-07
1.82682e-06
1.12111e-06
1.81313e-06
2.20197e-07
1.82497e-06
2.94572e-07
1.81755e-06
-1.80609e-08
1.80705e-06
-4.10361e-07
1.80498e-06
-1.32267e-07
1.76575e-06
-5.74837e-07
1.7658e-06
-1.91454e-07
-3.9661e-07
1.71215e-06
1.84965e-06
-1.02982e-07
1.84402e-06
-1.12112e-06
1.87605e-06
1.35736e-06
1.87285e-06
8.07583e-08
1.86575e-06
2.48049e-07
1.8393e-06
-1.50603e-06
1.83753e-06
2.28453e-07
1.82364e-06
-1.15172e-06
1.85998e-06
7.70889e-07
1.89685e-06
1.52827e-06
1.90847e-06
9.12541e-07
1.91636e-06
1.11321e-06
1.90201e-06
2.34549e-07
1.9145e-06
2.82083e-07
1.90657e-06
-1.01284e-08
1.89466e-06
-3.98456e-07
1.89317e-06
-1.30776e-07
1.85364e-06
-5.353e-07
1.85404e-06
-1.91858e-07
-3.45427e-07
1.80286e-06
1.93841e-06
-8.85527e-08
1.93181e-06
-1.11452e-06
1.96544e-06
1.32373e-06
1.96442e-06
8.1783e-08
1.95927e-06
2.53198e-07
1.93229e-06
-1.47906e-06
1.9217e-06
2.39043e-07
1.89836e-06
-1.12838e-06
1.94385e-06
7.25397e-07
1.9848e-06
1.48732e-06
1.99751e-06
8.99829e-07
2.0078e-06
1.10291e-06
1.99397e-06
2.48383e-07
2.00695e-06
2.69104e-07
1.99845e-06
-1.62992e-09
1.98483e-06
-3.84831e-07
1.98392e-06
-1.2987e-07
1.94485e-06
-4.96225e-07
1.94581e-06
-1.92818e-07
-2.98031e-07
1.89841e-06
2.03199e-06
-7.43536e-08
2.02442e-06
-1.10694e-06
2.05901e-06
1.28913e-06
2.05911e-06
8.16845e-08
2.055e-06
2.57313e-07
2.02763e-06
-1.45169e-06
2.01388e-06
2.52793e-07
1.98136e-06
-1.09586e-06
2.02902e-06
6.77745e-07
2.07237e-06
1.44397e-06
2.08808e-06
8.84117e-07
2.10262e-06
1.08837e-06
2.08991e-06
2.61093e-07
2.10279e-06
2.56228e-07
2.09354e-06
7.62379e-09
2.07791e-06
-3.692e-07
2.07732e-06
-1.29285e-07
2.03931e-06
-4.58215e-07
2.04078e-06
-1.94289e-07
-2.55372e-07
1.99812e-06
2.13052e-06
-6.08722e-08
2.12201e-06
-1.09843e-06
2.157e-06
1.25414e-06
2.15763e-06
8.1053e-08
2.15366e-06
2.61284e-07
2.12552e-06
-1.42354e-06
2.11371e-06
2.64596e-07
2.07412e-06
-1.05627e-06
2.11943e-06
6.32432e-07
2.16359e-06
1.39981e-06
2.18316e-06
8.6455e-07
2.20229e-06
1.06924e-06
2.19037e-06
2.73022e-07
2.20224e-06
2.44351e-07
2.19209e-06
1.77748e-08
2.17446e-06
-3.51565e-07
2.17379e-06
-1.28616e-07
2.13719e-06
-4.21619e-07
2.13888e-06
-1.95979e-07
-2.17907e-07
2.10141e-06
2.23418e-06
-4.85608e-08
2.22456e-06
-1.08881e-06
2.25931e-06
1.21939e-06
2.26036e-06
7.99962e-08
2.25633e-06
2.65321e-07
2.22689e-06
-1.3941e-06
2.21983e-06
2.71652e-07
2.17632e-06
-1.01276e-06
2.2187e-06
5.90056e-07
2.2625e-06
1.35601e-06
2.28486e-06
8.42186e-07
2.30707e-06
1.04703e-06
2.29501e-06
2.85078e-07
2.3052e-06
2.34166e-07
2.29426e-06
2.87148e-08
2.27509e-06
-3.32392e-07
2.274e-06
-1.27524e-07
2.23895e-06
-3.86572e-07
2.2404e-06
-1.97432e-07
-1.85638e-07
2.20813e-06
2.3431e-06
-3.77876e-08
2.33195e-06
-1.07766e-06
2.36573e-06
1.18561e-06
2.36736e-06
7.8371e-08
2.36393e-06
2.68755e-07
2.33277e-06
-1.36295e-06
2.33086e-06
2.73568e-07
2.28621e-06
-9.68113e-07
2.32709e-06
5.49178e-07
2.36981e-06
1.31329e-06
2.39283e-06
8.19166e-07
2.41581e-06
1.02405e-06
2.40305e-06
2.97831e-07
2.41159e-06
2.25635e-07
2.40027e-06
4.00326e-08
2.3804e-06
-3.12522e-07
2.37878e-06
-1.25905e-07
2.34527e-06
-3.5306e-07
2.34605e-06
-1.98214e-07
-1.5822e-07
2.31863e-06
2.45733e-06
-2.87194e-08
2.44414e-06
-1.06447e-06
2.47641e-06
1.15333e-06
2.4787e-06
7.60774e-08
2.47702e-06
2.70435e-07
2.44381e-06
-1.32974e-06
2.44616e-06
2.71216e-07
2.40167e-06
-9.23626e-07
2.44167e-06
5.09182e-07
2.48282e-06
1.27213e-06
2.50495e-06
7.97043e-07
2.52716e-06
1.00184e-06
2.51403e-06
3.10959e-07
2.52175e-06
2.17916e-07
2.51063e-06
5.11533e-08
2.49093e-06
-2.9282e-07
2.48889e-06
-1.23868e-07
2.45686e-06
-3.2103e-07
2.45665e-06
-1.98008e-07
-1.35132e-07
2.43357e-06
2.57682e-06
-2.12493e-08
2.56132e-06
-1.04896e-06
2.5919e-06
1.12275e-06
2.59475e-06
7.3225e-08
2.59582e-06
2.69372e-07
2.56029e-06
-1.29422e-06
2.56592e-06
2.65593e-07
2.52134e-06
-8.79045e-07
2.55924e-06
4.71275e-07
2.59841e-06
1.23297e-06
2.61956e-06
7.75889e-07
2.64099e-06
9.80416e-07
2.62844e-06
3.23503e-07
2.63653e-06
2.09829e-07
2.6261e-06
6.158e-08
2.60711e-06
-2.7383e-07
2.60485e-06
-1.21611e-07
2.57426e-06
-2.90436e-07
2.57284e-06
-1.9659e-07
-1.15914e-07
2.55363e-06
2.70162e-06
-1.50435e-08
2.6839e-06
-1.03124e-06
2.71299e-06
1.09366e-06
2.7161e-06
7.01189e-08
2.72034e-06
2.65131e-07
2.68245e-06
-1.25632e-06
2.6907e-06
2.57336e-07
2.64503e-06
-8.33369e-07
2.67898e-06
4.37319e-07
2.71587e-06
1.19607e-06
2.73701e-06
7.54758e-07
2.75865e-06
9.58774e-07
2.74755e-06
3.34598e-07
2.7569e-06
2.00479e-07
2.74743e-06
7.10486e-08
2.72925e-06
-2.55644e-07
2.72698e-06
-1.19346e-07
2.69776e-06
-2.61213e-07
2.69501e-06
-1.93834e-07
-1.00241e-07
2.67933e-06
2.8319e-06
-9.67216e-09
2.81235e-06
-1.0117e-06
2.84037e-06
1.06564e-06
2.84334e-06
6.71469e-08
2.85065e-06
2.57824e-07
2.81054e-06
-1.21622e-06
2.8211e-06
2.46781e-07
2.77345e-06
-7.85721e-07
2.80248e-06
4.0829e-07
2.83706e-06
1.16149e-06
2.85912e-06
7.32695e-07
2.8821e-06
9.35795e-07
2.87274e-06
3.4396e-07
2.88363e-06
1.89588e-07
2.87516e-06
7.95191e-08
2.8575e-06
-2.37983e-07
2.85545e-06
-1.17301e-07
2.82749e-06
-2.33246e-07
2.82335e-06
-1.897e-07
-8.79171e-08
2.81103e-06
2.96796e-06
-4.73718e-09
2.94708e-06
-9.90812e-07
2.97448e-06
1.03824e-06
2.97696e-06
6.46663e-08
2.98692e-06
2.47858e-07
2.9449e-06
-1.17419e-06
2.95754e-06
2.34139e-07
2.90759e-06
-7.35772e-07
2.93208e-06
3.83799e-07
2.96456e-06
1.12901e-06
2.98789e-06
7.09366e-07
3.01289e-06
9.10798e-07
3.00496e-06
3.51891e-07
3.0171e-06
1.77446e-07
3.00958e-06
8.70363e-08
2.99196e-06
-2.20367e-07
2.99036e-06
-1.15691e-07
2.96355e-06
-2.06444e-07
2.95801e-06
-1.84157e-07
-7.88381e-08
2.94893e-06
3.11021e-06
5.84423e-11
3.08841e-06
-9.69007e-07
3.11556e-06
1.01108e-06
3.11729e-06
6.29409e-08
3.12946e-06
2.35691e-07
3.08579e-06
-1.13052e-06
3.10035e-06
2.1958e-07
3.0483e-06
-6.83728e-07
3.06948e-06
3.62623e-07
3.10018e-06
1.09832e-06
3.12448e-06
6.85058e-07
3.15173e-06
8.83552e-07
3.14464e-06
3.58981e-07
3.15744e-06
1.64645e-07
3.15088e-06
9.35986e-08
3.13277e-06
-2.02258e-07
3.13179e-06
-1.14712e-07
3.10615e-06
-1.80802e-07
3.09911e-06
-1.7712e-07
-7.28907e-08
3.09316e-06
3.25907e-06
4.90296e-09
3.23663e-06
-9.46571e-07
3.26381e-06
9.83905e-07
3.26463e-06
6.21217e-08
3.27861e-06
2.21706e-07
3.23345e-06
-1.08536e-06
3.24977e-06
2.03263e-07
3.19616e-06
-6.30117e-07
3.21535e-06
3.43428e-07
3.24458e-06
1.06909e-06
3.26925e-06
6.60386e-07
3.29874e-06
8.54057e-07
3.29193e-06
3.65793e-07
3.30474e-06
1.51842e-07
3.29925e-06
9.90826e-08
3.28015e-06
-1.83156e-07
3.27991e-06
-1.14474e-07
3.25562e-06
-1.56506e-07
3.24686e-06
-1.68366e-07
-6.98727e-08
3.24384e-06
3.41493e-06
9.90266e-09
3.39203e-06
-9.23669e-07
3.41941e-06
9.56528e-07
3.41927e-06
6.22552e-08
3.43478e-06
2.06196e-07
3.38811e-06
-1.03869e-06
3.40603e-06
1.85341e-07
3.35151e-06
-5.75592e-07
3.36973e-06
3.25203e-07
3.39778e-06
1.04104e-06
3.42214e-06
6.36021e-07
3.45383e-06
8.22372e-07
3.44693e-06
3.72692e-07
3.45912e-06
1.39654e-07
3.45496e-06
1.03244e-07
3.4345e-06
-1.62701e-07
3.43492e-06
-1.14892e-07
3.41245e-06
-1.34041e-07
3.40163e-06
-1.57539e-07
-6.93242e-08
3.40108e-06
3.5782e-06
1.51165e-08
3.55492e-06
-9.0039e-07
3.58262e-06
9.28823e-07
3.58157e-06
6.33058e-08
3.59837e-06
1.89399e-07
3.55006e-06
-9.9038e-07
3.56941e-06
1.65996e-07
3.51462e-06
-5.208e-07
3.5325e-06
3.07319e-07
3.55967e-06
1.01387e-06
3.58312e-06
6.12571e-07
3.61691e-06
7.88582e-07
3.60984e-06
3.79766e-07
3.62084e-06
1.28652e-07
3.61831e-06
1.05771e-07
3.59638e-06
-1.40768e-07
3.59708e-06
-1.15589e-07
3.57703e-06
-1.13989e-07
3.56391e-06
-1.44423e-07
-7.04853e-08
3.56507e-06
3.74924e-06
2.05838e-08
3.72563e-06
-8.76787e-07
3.75378e-06
9.00673e-07
3.7519e-06
6.51885e-08
3.76977e-06
1.71527e-07
3.71966e-06
-9.40264e-07
3.74019e-06
1.45466e-07
3.6857e-06
-4.66312e-07
3.70356e-06
2.89462e-07
3.73028e-06
9.87152e-07
3.7523e-06
5.90546e-07
3.78809e-06
7.52794e-07
3.78098e-06
3.86875e-07
3.79027e-06
1.19364e-07
3.78966e-06
1.06382e-07
3.76642e-06
-1.17531e-07
3.7667e-06
-1.15867e-07
3.74965e-06
-9.69417e-08
3.73437e-06
-1.29143e-07
-7.22545e-08
3.73614e-06
3.92843e-06
2.63411e-08
3.90454e-06
-8.52899e-07
3.93327e-06
8.71947e-07
3.93065e-06
6.78093e-08
3.94939e-06
1.52788e-07
3.89732e-06
-8.88201e-07
3.91873e-06
1.24061e-07
3.86501e-06
-4.12598e-07
3.88293e-06
2.71542e-07
3.90977e-06
9.60314e-07
3.92997e-06
5.70352e-07
3.96757e-06
7.15188e-07
3.96076e-06
3.93684e-07
3.96784e-06
1.1229e-07
3.96932e-06
1.04902e-07
3.94522e-06
-9.34363e-08
3.94418e-06
-1.14826e-07
3.93059e-06
-8.33433e-08
3.91375e-06
-1.12302e-07
-7.32267e-08
3.91472e-06
4.11617e-06
3.24259e-08
4.09203e-06
-8.2876e-07
4.12148e-06
8.42492e-07
4.1182e-06
7.10942e-08
4.13759e-06
1.33393e-07
4.08355e-06
-8.34157e-07
4.10543e-06
1.02175e-07
4.05288e-06
-3.60039e-07
4.07077e-06
2.53651e-07
4.09842e-06
9.32656e-07
4.11653e-06
5.52251e-07
4.15564e-06
6.76075e-07
4.14961e-06
3.99712e-07
4.15407e-06
1.07828e-07
4.15762e-06
1.01354e-07
4.13333e-06
-6.91458e-08
4.13007e-06
-1.11571e-07
4.12009e-06
-7.33591e-08
4.10254e-06
-9.47524e-08
-7.21507e-08
4.10146e-06
4.31286e-06
3.88697e-08
4.28849e-06
-8.04394e-07
4.31884e-06
8.12142e-07
4.31492e-06
7.50207e-08
4.33477e-06
1.13538e-07
4.27886e-06
-7.78247e-07
4.30077e-06
8.02667e-08
4.24971e-06
-3.0898e-07
4.2673e-06
2.36066e-07
4.29655e-06
9.034e-07
4.3124e-06
5.36403e-07
4.35257e-06
6.35901e-07
4.34794e-06
4.04344e-07
4.3495e-06
1.06273e-07
4.35481e-06
9.60371e-08
4.33116e-06
-4.5494e-08
4.32502e-06
-1.05426e-07
4.31838e-06
-6.67272e-08
4.30116e-06
-7.75239e-08
-6.82036e-08
4.29721e-06
4.51896e-06
4.56855e-08
4.49436e-06
-7.79799e-07
4.52577e-06
7.80738e-07
4.52116e-06
7.96282e-08
4.54131e-06
9.3391e-08
4.48381e-06
-7.2075e-07
4.50524e-06
5.88335e-08
4.45605e-06
-2.59788e-07
4.47286e-06
2.19258e-07
4.50447e-06
8.7179e-07
4.51805e-06
5.2282e-07
4.55867e-06
5.95281e-07
4.55607e-06
4.06947e-07
4.55461e-06
1.0773e-07
4.56121e-06
8.94369e-08
4.539e-06
-2.32834e-08
4.52973e-06
-9.61535e-08
4.52567e-06
-6.26675e-08
4.50986e-06
-6.17118e-08
-6.11906e-08
4.50284e-06
4.73495e-06
5.28555e-08
4.71009e-06
-7.54946e-07
4.74267e-06
7.48155e-07
4.73729e-06
8.50113e-08
4.7576e-06
7.30865e-08
4.69895e-06
-6.621e-07
4.71939e-06
3.83857e-08
4.67251e-06
-2.12908e-07
4.68788e-06
2.03887e-07
4.72242e-06
8.37252e-07
4.73395e-06
5.11291e-07
4.77427e-06
5.54961e-07
4.77421e-06
4.07006e-07
4.76989e-06
1.12057e-07
4.77712e-06
8.22063e-08
4.75706e-06
-3.22417e-09
4.74482e-06
-8.39202e-08
4.74218e-06
-6.00218e-08
4.72878e-06
-4.83089e-08
-5.15449e-08
4.71913e-06
4.96133e-06
6.03246e-08
4.93615e-06
-7.29773e-07
4.96999e-06
7.14321e-07
4.9637e-06
9.13042e-08
4.98405e-06
5.27358e-08
4.9248e-06
-6.02851e-07
4.94376e-06
1.94283e-08
4.89975e-06
-1.68898e-07
4.91293e-06
1.90699e-07
4.95059e-06
7.99596e-07
4.96057e-06
5.01311e-07
4.99971e-06
5.15818e-07
5.00257e-06
4.04145e-07
4.99577e-06
1.18858e-07
5.00289e-06
7.5088e-08
4.9855e-06
1.41643e-08
4.97085e-06
-6.92661e-08
4.96832e-06
-5.74978e-08
4.95797e-06
-3.79538e-08
-4.02638e-08
4.94669e-06
5.19864e-06
6.80023e-08
5.17306e-06
-7.04193e-07
5.20816e-06
6.79221e-07
5.20081e-06
9.86527e-08
5.22109e-06
3.24518e-08
5.1619e-06
-5.43658e-07
5.17887e-06
2.46354e-09
5.1384e-06
-1.28428e-07
5.14874e-06
1.80352e-07
5.18921e-06
7.59126e-07
5.19837e-06
4.92154e-07
5.23546e-06
4.78732e-07
5.24141e-06
3.98187e-07
5.23268e-06
1.27597e-07
5.23901e-06
6.8753e-08
5.22456e-06
2.86175e-08
5.20821e-06
-5.2921e-08
5.20481e-06
-5.40927e-08
5.19751e-06
-3.06554e-08
-2.86811e-08
5.18593e-06
5.44742e-06
7.57691e-08
5.42134e-06
-6.78113e-07
5.45767e-06
6.42897e-07
5.44914e-06
1.07177e-07
5.46921e-06
1.23865e-08
5.41081e-06
-4.85261e-07
5.42524e-06
-1.19702e-08
5.38903e-06
-9.22188e-08
5.39615e-06
1.73234e-07
5.43866e-06
7.16623e-07
5.44778e-06
4.83024e-07
5.4821e-06
4.44416e-07
5.49102e-06
3.89267e-07
5.48106e-06
1.37554e-07
5.48606e-06
6.37596e-08
5.47452e-06
4.0154e-08
5.45731e-06
-3.57078e-08
5.45239e-06
-4.91737e-08
5.44761e-06
-2.58721e-08
-1.80827e-08
5.43701e-06
5.70824e-06
8.34879e-08
5.68156e-06
-6.51435e-07
5.71903e-06
6.05425e-07
5.70926e-06
1.16951e-07
5.72889e-06
-7.24492e-09
5.67209e-06
-4.28463e-07
5.6834e-06
-2.3276e-08
5.65213e-06
-6.09517e-08
5.65601e-06
1.69359e-07
5.69946e-06
6.73172e-07
5.70928e-06
4.73202e-07
5.74038e-06
4.13321e-07
5.75185e-06
3.77788e-07
5.74141e-06
1.47994e-07
5.74464e-06
6.05343e-08
5.73584e-06
4.89487e-08
5.71852e-06
-1.8379e-08
5.71189e-06
-4.25455e-08
5.70866e-06
-2.26485e-08
-9.45971e-09
5.70004e-06
5.98167e-06
9.10123e-08
5.9543e-06
-6.24071e-07
5.99283e-06
5.66901e-07
5.98179e-06
1.27989e-07
6.0007e-06
-2.61526e-08
5.94629e-06
-3.74053e-07
5.95385e-06
-3.08382e-08
5.92798e-06
-3.50813e-08
5.92908e-06
1.68255e-07
5.97231e-06
6.29948e-07
5.98333e-06
4.62174e-07
6.01109e-06
3.85569e-07
6.02452e-06
3.64352e-07
6.01428e-06
1.58232e-07
6.0155e-06
5.93204e-08
6.0091e-06
5.53501e-08
5.99228e-06
-1.56633e-09
5.98401e-06
-3.42711e-08
5.98141e-06
-2.00515e-08
-3.22613e-09
5.97518e-06
6.2683e-06
9.81963e-08
6.24017e-06
-5.95936e-07
6.27964e-06
5.27436e-07
6.26741e-06
1.40217e-07
6.28522e-06
-4.39648e-08
6.23396e-06
-3.22799e-07
6.23714e-06
-3.40151e-08
6.21681e-06
-1.47508e-08
6.21603e-06
1.69033e-07
6.25798e-06
5.87999e-07
6.27048e-06
4.49681e-07
6.29504e-06
3.61008e-07
6.30979e-06
3.49594e-07
6.30023e-06
1.67801e-07
6.29942e-06
6.01245e-08
6.29502e-06
5.97467e-08
6.27914e-06
1.43154e-08
6.26946e-06
-2.45913e-08
6.26662e-06
-1.72091e-08
7.77209e-10
6.26262e-06
6.56877e-06
1.04898e-07
6.53978e-06
-5.66951e-07
6.58007e-06
4.87143e-07
6.56682e-06
1.53472e-07
6.58307e-06
-6.02194e-08
6.53574e-06
-2.75467e-07
6.5343e-06
-3.25757e-08
6.519e-06
5.51377e-10
6.51739e-06
1.70643e-07
6.55732e-06
5.48074e-07
6.57122e-06
4.35777e-07
6.59301e-06
3.39215e-07
6.60849e-06
3.34121e-07
6.59986e-06
1.76432e-07
6.59716e-06
6.28171e-08
6.59433e-06
6.258e-08
6.57977e-06
2.88726e-08
6.56895e-06
-1.37665e-08
6.56542e-06
-1.36787e-08
3.4316e-09
6.56276e-06
6.8837e-06
1.10987e-07
6.85379e-06
-5.37038e-07
6.89477e-06
4.46158e-07
6.8808e-06
1.67447e-07
6.89492e-06
-7.43452e-08
6.85225e-06
-2.32795e-07
6.8465e-06
-2.68191e-08
6.83508e-06
1.19669e-08
6.83367e-06
1.72051e-07
6.87111e-06
5.10636e-07
6.88613e-06
4.20754e-07
6.90568e-06
3.19668e-07
6.92148e-06
3.18318e-07
6.91392e-06
1.83993e-07
6.90952e-06
6.72159e-08
6.90773e-06
6.43778e-08
6.89474e-06
4.18619e-08
6.88311e-06
-2.14042e-09
6.87876e-06
-9.32438e-09
5.62154e-09
6.87657e-06
7.21378e-06
1.1634e-07
7.18287e-06
-5.06129e-07
7.22436e-06
4.04668e-07
7.21011e-06
1.81707e-07
7.22148e-06
-8.57202e-08
7.18417e-06
-1.95485e-07
7.17454e-06
-1.71895e-08
7.1657e-06
2.08114e-08
7.16534e-06
1.72405e-07
7.20015e-06
4.75824e-07
7.21594e-06
4.04964e-07
7.23362e-06
3.01996e-07
7.24953e-06
3.02403e-07
7.24326e-06
1.90264e-07
7.23734e-06
7.31305e-08
7.23593e-06
6.57896e-08
7.22479e-06
5.30093e-08
7.21248e-06
1.01618e-08
7.20738e-06
-4.2226e-09
7.8454e-09
7.20516e-06
7.55972e-06
1.20846e-07
7.52774e-06
-4.74151e-07
7.56954e-06
3.62872e-07
7.55556e-06
1.95689e-07
7.56353e-06
-9.36915e-08
7.53209e-06
-1.64051e-07
7.51922e-06
-4.31895e-09
7.51169e-06
2.83489e-08
7.51289e-06
1.71199e-07
7.54518e-06
4.43535e-07
7.56135e-06
3.8879e-07
7.57748e-06
2.85871e-07
7.5935e-06
2.86377e-07
7.58882e-06
1.94953e-07
7.58161e-06
8.03393e-08
7.57999e-06
6.74086e-08
7.57039e-06
6.26087e-08
7.55731e-06
2.32436e-08
7.55179e-06
1.29641e-09
1.01862e-08
7.54945e-06
7.92227e-06
1.24384e-07
7.88916e-06
-4.41036e-07
7.93095e-06
3.2108e-07
7.91793e-06
2.08707e-07
7.92192e-06
-9.76766e-08
7.89643e-06
-1.38568e-07
7.88132e-06
1.07916e-08
7.87391e-06
3.57622e-08
7.8769e-06
1.68209e-07
7.907e-06
4.1344e-07
7.92318e-06
3.72603e-07
7.93781e-06
2.71248e-07
7.95393e-06
2.70249e-07
7.95131e-06
1.97581e-07
7.94409e-06
8.7553e-08
7.9418e-06
6.96983e-08
7.9325e-06
7.19087e-08
7.91812e-06
3.76275e-08
7.91112e-06
8.29663e-09
1.05795e-08
7.91072e-06
8.3022e-06
1.26862e-07
8.26791e-06
-4.0674e-07
8.30939e-06
2.796e-07
8.29809e-06
2.20002e-07
8.29752e-06
-9.71007e-08
8.27765e-06
-1.18705e-07
8.26154e-06
2.69024e-08
8.25339e-06
4.39137e-08
8.25798e-06
1.63618e-07
8.28629e-06
3.85137e-07
8.30233e-06
3.56563e-07
8.31551e-06
2.58064e-07
8.33167e-06
2.5409e-07
8.33076e-06
1.98488e-07
8.32432e-06
9.39944e-08
8.32808e-06
6.59415e-08
8.33085e-06
6.91331e-08
8.3246e-06
4.38817e-08
8.31855e-06
1.435e-08
1.65252e-08
8.3126e-06
8.70036e-06
1.28166e-07
8.66483e-06
-3.71213e-07
8.70561e-06
2.38822e-07
8.69684e-06
2.28774e-07
8.69147e-06
-9.17333e-08
8.67641e-06
-1.03648e-07
8.66062e-06
4.26968e-08
8.6512e-06
5.3331e-08
8.65693e-06
1.57889e-07
8.68382e-06
3.58248e-07
8.6997e-06
3.40678e-07
8.71125e-06
2.46512e-07
8.72752e-06
2.37826e-07
8.73018e-06
1.95824e-07
8.7267e-06
9.74781e-08
8.73012e-06
6.25236e-08
8.73213e-06
6.71201e-08
8.72436e-06
5.165e-08
8.71592e-06
2.2787e-08
2.08206e-08
8.71163e-06
9.11754e-06
1.28241e-07
9.08082e-06
-3.34485e-07
9.12051e-06
1.99124e-07
9.11507e-06
2.34215e-07
9.10487e-06
-8.15283e-08
9.09356e-06
-9.23395e-08
9.07915e-06
5.71022e-08
9.06847e-06
6.40166e-08
9.0745e-06
1.51861e-07
9.10042e-06
3.32325e-07
9.11616e-06
3.24933e-07
9.12659e-06
2.36085e-07
9.14248e-06
2.21939e-07
9.14689e-06
1.91409e-07
9.14226e-06
1.02106e-07
9.14471e-06
6.00805e-08
9.14941e-06
6.24169e-08
9.14545e-06
5.56083e-08
9.13579e-06
3.2452e-08
2.79328e-08
9.12867e-06
9.55467e-06
1.27033e-07
9.51687e-06
-2.96685e-07
9.55494e-06
1.6105e-07
9.55365e-06
2.3551e-07
9.53883e-06
-6.67122e-08
9.52993e-06
-8.34403e-08
9.51789e-06
6.91392e-08
9.50629e-06
7.56168e-08
9.51174e-06
1.46413e-07
9.53683e-06
3.07239e-07
9.5526e-06
3.09159e-07
9.5624e-06
2.26286e-07
9.57733e-06
2.07015e-07
9.58105e-06
1.87689e-07
9.571e-06
1.12149e-07
9.56333e-06
6.77568e-08
9.55928e-06
6.64623e-08
9.55044e-06
6.44479e-08
9.54251e-06
4.03785e-08
2.81951e-08
9.54225e-06
1.00126e-05
1.2456e-07
9.9741e-06
-2.5818e-07
1.00099e-05
1.25225e-07
1.00133e-05
2.32153e-07
9.99454e-06
-4.79624e-08
9.98647e-06
-7.53745e-08
9.97763e-06
7.7981e-08
9.9655e-06
8.77491e-08
9.96973e-06
1.4218e-07
9.99386e-06
2.83105e-07
1.00098e-05
2.93233e-07
1.00179e-05
2.18186e-07
1.00313e-05
1.93555e-07
1.00392e-05
1.79849e-07
1.00373e-05
1.14021e-07
1.00389e-05
6.61933e-08
1.00455e-05
5.98435e-08
1.00467e-05
6.32867e-08
1.00367e-05
5.03748e-08
3.90998e-08
1.00258e-05
1.04923e-05
1.20916e-07
1.04538e-05
-2.19674e-07
1.04864e-05
9.25967e-08
1.04946e-05
2.23977e-07
1.04728e-05
-2.62161e-08
1.04646e-05
-6.71273e-08
1.04589e-05
8.36597e-08
1.04471e-05
9.96043e-08
1.04497e-05
1.39569e-07
1.04725e-05
2.60262e-07
1.04887e-05
2.77085e-07
1.04961e-05
2.10705e-07
1.05074e-05
1.82279e-07
1.05128e-05
1.74483e-07
1.05054e-05
1.21353e-07
1.04967e-05
7.49374e-08
1.04938e-05
6.27292e-08
1.04901e-05
6.70267e-08
1.04844e-05
5.60154e-08
4.21631e-08
1.04814e-05
1.09947e-05
1.16258e-07
1.0957e-05
-1.82038e-07
1.09855e-05
6.41083e-08
1.0998e-05
2.11503e-07
1.09751e-05
-3.27577e-09
1.09653e-05
-5.73803e-08
1.09625e-05
8.64262e-08
1.09518e-05
1.10321e-07
1.09527e-05
1.3869e-07
1.09736e-05
2.39385e-07
1.09896e-05
2.61099e-07
1.0996e-05
2.04232e-07
1.1005e-05
1.73285e-07
1.10105e-05
1.69028e-07
1.10055e-05
1.26358e-07
1.0998e-05
8.2416e-08
1.09955e-05
6.52008e-08
1.09953e-05
6.73002e-08
1.0991e-05
6.02978e-08
4.84516e-08
1.09847e-05
1.15208e-05
1.1082e-07
1.14849e-05
-1.46116e-07
1.15085e-05
4.05038e-08
1.15244e-05
1.95565e-07
1.15021e-05
1.90041e-08
1.149e-05
-4.52605e-08
1.14898e-05
8.66914e-08
1.14807e-05
1.19403e-07
1.148e-05
1.39411e-07
1.14982e-05
2.21124e-07
1.15138e-05
2.45543e-07
1.15198e-05
1.98237e-07
1.15272e-05
1.65879e-07
1.15328e-05
1.63376e-07
1.15301e-05
1.29051e-07
1.15236e-05
8.89098e-08
1.15207e-05
6.81412e-08
1.15205e-05
6.74839e-08
1.15179e-05
6.2923e-08
5.3148e-08
1.15132e-05
1.20717e-05
1.04905e-07
1.20384e-05
-1.1281e-07
1.20565e-05
2.24335e-08
1.2075e-05
1.77103e-07
1.20548e-05
3.91783e-08
1.20405e-05
-3.09907e-08
1.20415e-05
8.57443e-08
1.20344e-05
1.26421e-07
1.20326e-05
1.41214e-07
1.20481e-05
2.0568e-07
1.20631e-05
2.30486e-07
1.20687e-05
1.92639e-07
1.20746e-05
1.5998e-07
1.20807e-05
1.57348e-07
1.20798e-05
1.29937e-07
1.20742e-05
9.44844e-08
1.2071e-05
7.13817e-08
1.20707e-05
6.77149e-08
1.20695e-05
6.41662e-08
5.64424e-08
1.20662e-05
1.26487e-05
9.87923e-08
1.26186e-05
-8.26922e-08
1.2631e-05
1.00231e-08
1.2651e-05
1.57135e-07
1.2634e-05
5.61267e-08
1.26179e-05
-1.489e-08
1.26191e-05
8.4565e-08
1.26143e-05
1.3119e-07
1.2612e-05
1.43592e-07
1.26245e-05
1.93092e-07
1.26388e-05
2.16227e-07
1.26442e-05
1.87214e-07
1.26491e-05
1.55094e-07
1.26552e-05
1.51221e-07
1.26557e-05
1.29442e-07
1.26516e-05
9.86604e-08
1.2648e-05
7.48947e-08
1.26475e-05
6.82579e-08
1.26469e-05
6.47597e-08
5.86253e-08
1.26447e-05
1.32529e-05
9.27898e-08
1.32265e-05
-5.62279e-08
1.32335e-05
3.04491e-09
1.32537e-05
1.36869e-07
1.32406e-05
6.92387e-08
1.32238e-05
1.94778e-09
1.32243e-05
8.40378e-08
1.32214e-05
1.34051e-07
1.3219e-05
1.46054e-07
1.3229e-05
1.83068e-07
1.32423e-05
2.02953e-07
1.3248e-05
1.81468e-07
1.3252e-05
1.51093e-07
1.32577e-05
1.45581e-07
1.32592e-05
1.27883e-07
1.32563e-05
1.01559e-07
1.3253e-05
7.82308e-08
1.32521e-05
6.91113e-08
1.32522e-05
6.46368e-08
6.0218e-08
1.32507e-05
1.38859e-05
8.71012e-08
1.38631e-05
-3.3495e-08
1.38654e-05
7.20805e-10
1.38848e-05
1.17559e-07
1.38756e-05
7.84241e-08
1.38591e-05
1.84032e-08
1.38585e-05
8.46114e-08
1.38571e-05
1.35449e-07
1.3855e-05
1.48157e-07
1.3863e-05
1.75137e-07
1.3875e-05
1.90887e-07
1.3881e-05
1.755e-07
1.38844e-05
1.47698e-07
1.38895e-05
1.40496e-07
1.38918e-05
1.25543e-07
1.38902e-05
1.03141e-07
1.38875e-05
8.09903e-08
1.38862e-05
7.04154e-08
1.38865e-05
6.4284e-08
6.13069e-08
1.38854e-05
1.45489e-05
8.18998e-08
1.45298e-05
-1.44655e-08
1.45285e-05
2.06539e-09
1.45458e-05
1.00267e-07
1.45401e-05
8.41398e-08
1.45249e-05
3.36215e-08
1.45233e-05
8.6198e-08
1.45229e-05
1.35804e-07
1.45214e-05
1.49645e-07
1.45277e-05
1.68854e-07
1.45385e-05
1.80112e-07
1.45447e-05
1.69256e-07
1.45479e-05
1.44508e-07
1.45523e-05
1.36086e-07
1.4555e-05
1.22889e-07
1.45542e-05
1.03924e-07
1.45523e-05
8.29073e-08
1.45507e-05
7.19765e-08
1.45509e-05
6.40504e-08
6.13639e-08
1.45509e-05
1.52435e-05
7.72573e-08
1.52279e-05
1.12178e-09
1.5224e-05
5.98535e-09
1.52385e-05
8.57882e-08
1.52354e-05
8.72352e-08
1.5222e-05
4.70376e-08
1.52197e-05
8.84703e-08
1.52201e-05
1.35388e-07
1.52194e-05
1.50324e-07
1.52245e-05
1.63798e-07
1.5234e-05
1.70635e-07
1.52404e-05
1.62845e-07
1.52435e-05
1.41363e-07
1.52472e-05
1.32376e-07
1.52502e-05
1.19986e-07
1.52501e-05
1.0395e-07
1.5249e-05
8.40301e-08
1.52478e-05
7.32268e-08
1.52475e-05
6.42675e-08
6.06407e-08
1.52483e-05
1.59714e-05
7.31928e-08
1.59588e-05
1.37314e-08
1.59534e-05
1.13772e-08
1.59646e-05
7.45486e-08
1.59632e-05
8.86667e-08
1.59516e-05
5.86262e-08
1.59491e-05
9.10085e-08
1.59503e-05
1.34203e-07
1.59505e-05
1.50121e-07
1.59547e-05
1.59587e-07
1.5963e-05
1.62334e-07
1.59694e-05
1.56463e-07
1.59729e-05
1.37868e-07
1.59762e-05
1.29035e-07
1.59791e-05
1.17074e-07
1.59796e-05
1.03469e-07
1.59788e-05
8.47773e-08
1.59782e-05
7.38431e-08
1.59776e-05
6.48864e-08
5.97394e-08
1.59785e-05
1.67341e-05
6.97043e-08
1.6724e-05
2.38185e-08
1.67178e-05
1.762e-08
1.67258e-05
6.64724e-08
1.67252e-05
8.93458e-08
1.67153e-05
6.85076e-08
1.67129e-05
9.33394e-08
1.6715e-05
1.32176e-07
1.67162e-05
1.48934e-07
1.67198e-05
1.55956e-07
1.6727e-05
1.5511e-07
1.67333e-05
1.50209e-07
1.67372e-05
1.33984e-07
1.67404e-05
1.25822e-07
1.67431e-05
1.14309e-07
1.67441e-05
1.02466e-07
1.67437e-05
8.52509e-08
1.67436e-05
7.38758e-08
1.67433e-05
6.52201e-08
5.91202e-08
1.67439e-05
1.75333e-05
6.6782e-08
1.75254e-05
3.16966e-08
1.75185e-05
2.44855e-08
1.75241e-05
6.09472e-08
1.75238e-05
8.9635e-08
1.75156e-05
7.67246e-08
1.75136e-05
9.52766e-08
1.75163e-05
1.29517e-07
1.75184e-05
1.46855e-07
1.75215e-05
1.52774e-07
1.75278e-05
1.48832e-07
1.75338e-05
1.44244e-07
1.7538e-05
1.2976e-07
1.75414e-05
1.2244e-07
1.75442e-05
1.11545e-07
1.75456e-05
1.00978e-07
1.75455e-05
8.53733e-08
1.75456e-05
7.37873e-08
1.75457e-05
6.50779e-08
5.8836e-08
1.7546e-05
1.83707e-05
6.44041e-08
1.83647e-05
3.77393e-08
1.83576e-05
3.16037e-08
1.83612e-05
5.72714e-08
1.83615e-05
8.93771e-08
1.83546e-05
8.3572e-08
1.83529e-05
9.69793e-08
1.83561e-05
1.26347e-07
1.83591e-05
1.43912e-07
1.8362e-05
1.49875e-07
1.83673e-05
1.43509e-07
1.83728e-05
1.3877e-07
1.83772e-05
1.25345e-07
1.83809e-05
1.18754e-07
1.83838e-05
1.08639e-07
1.83856e-05
9.91806e-08
1.83859e-05
8.49999e-08
1.8386e-05
7.37242e-08
1.83866e-05
6.45183e-08
5.84276e-08
1.8387e-05
1.92483e-05
6.25121e-08
1.92437e-05
4.22925e-08
1.92368e-05
3.85108e-08
1.9239e-05
5.51221e-08
1.92399e-05
8.84419e-08
1.92343e-05
8.91683e-08
1.92326e-05
9.87035e-08
1.92361e-05
1.22864e-07