/*--------------------------------*- C++ -*----------------------------------*\
| =========                 |                                                 |
| \\      /  F ield         | OpenFOAM: The Open Source CFD Toolbox           |
|  \\    /   O peration     | Version:  v1912                                 |
|   \\  /    A nd           | Website:  www.openfoam.com                      |
|    \\/     M anipulation  |                                                 |
\*---------------------------------------------------------------------------*/
FoamFile
{
    version     2.0;
    format      ascii;
    class       volVectorField;
    location    "6.2";
    object      U;
}
// * * * * * * * * * * * * * * * * * * * * * * * * * * * * * * * * * * * * * //

dimensions      [0 1 -1 0 0 0 0];


internalField   nonuniform List<vector> 
9600
(
(0.992989 -0.001886 0)
(0.997822 -0.0131648 0)
(0.974578 0.0185062 0)
(1.01022 -0.000551356 0)
(0.970891 0.00254239 0)
(1.01163 -0.0266338 0)
(0.93534 0.0129311 0)
(1.14269 -0.026677 0)
(0.832871 0.0160746 0)
(1.16743 0.04195 0)
(0.893759 0.017942 0)
(1.08959 0.0317063 0)
(0.966741 0.0012864 0)
(1.02558 0.0110135 0)
(0.972335 -0.00279073 0)
(1.01077 -0.0169088 0)
(0.957725 -0.00505321 0)
(1.0251 -0.0376687 0)
(0.886836 -0.00789685 0)
(1.03988 -0.0469664 0)
(0.994402 -0.00183821 0)
(0.997576 -0.0129971 0)
(0.976196 0.0183974 0)
(1.00755 -0.000411716 0)
(0.971994 0.00242825 0)
(1.00449 -0.0260966 0)
(0.938233 0.0113051 0)
(1.13086 -0.0249915 0)
(0.83687 0.0158839 0)
(1.15673 0.041591 0)
(0.927963 0.0189473 0)
(1.06158 0.0307904 0)
(1.00042 0.00301437 0)
(1.004 0.0109463 0)
(1.00423 -0.00221611 0)
(0.981526 -0.016661 0)
(1.00378 -0.00558515 0)
(0.968656 -0.0358066 0)
(0.973505 -0.00763094 0)
(0.944049 -0.0464122 0)
(0.996575 -0.00178601 0)
(0.996469 -0.0128451 0)
(0.98004 0.0182388 0)
(1.00465 -0.000287282 0)
(0.973952 0.00239565 0)
(0.996199 -0.0257257 0)
(0.944908 0.00974686 0)
(1.11318 -0.0237219 0)
(0.855307 0.0152384 0)
(1.12263 0.0405904 0)
(0.973565 0.0203181 0)
(1.02877 0.0298139 0)
(1.0075 0.00374416 0)
(0.997993 0.0107143 0)
(0.998106 -0.00191532 0)
(0.991247 -0.0166448 0)
(0.98866 -0.00572832 0)
(0.9869 -0.034117 0)
(0.969674 -0.00966455 0)
(0.965053 -0.0386559 0)
(0.998962 -0.00174107 0)
(0.994449 -0.0127223 0)
(0.985647 0.0180929 0)
(1.00279 -0.00014031 0)
(0.97667 0.00242122 0)
(0.988053 -0.0254088 0)
(0.954246 0.00843877 0)
(1.09197 -0.0226354 0)
(0.888084 0.0148338 0)
(1.07552 0.0390486 0)
(1.00412 0.0214442 0)
(1.007 0.0293591 0)
(1.00707 0.00420887 0)
(0.994892 0.010724 0)
(1.00152 -0.00164044 0)
(0.994805 -0.0165605 0)
(0.99312 -0.0053089 0)
(0.988058 -0.0340082 0)
(0.974567 -0.00814298 0)
(0.964587 -0.0377682 0)
(1.00122 -0.00169406 0)
(0.991835 -0.0126239 0)
(0.991723 0.0179523 0)
(1.00215 4.57999e-05 0)
(0.979934 0.00251155 0)
(0.981784 -0.0251451 0)
(0.963541 0.00728877 0)
(1.07079 -0.0219403 0)
(0.924142 0.0149924 0)
(1.03458 0.0375739 0)
(1.01582 0.0221791 0)
(0.999249 0.0293336 0)
(1.00812 0.00455364 0)
(0.997018 0.0106214 0)
(1.00676 -0.0015357 0)
(1.00063 -0.0162511 0)
(0.997541 -0.00559386 0)
(0.992819 -0.0324731 0)
(0.977283 -0.00859374 0)
(0.969196 -0.0348333 0)
(1.00324 -0.00163741 0)
(0.988888 -0.0125495 0)
(0.996892 0.0177889 0)
(1.00228 0.000262877 0)
(0.983948 0.00265392 0)
(0.978234 -0.0249149 0)
(0.970699 0.00625785 0)
(1.05187 -0.0215581 0)
(0.953262 0.0155251 0)
(1.01012 0.0365276 0)
(1.01779 0.0225169 0)
(1.00061 0.0293743 0)
(1.01182 0.00479825 0)
(1.00244 0.0103669 0)
(1.0122 -0.00141311 0)
(1.00654 -0.0161025 0)
(1.00198 -0.00550148 0)
(0.996819 -0.0313146 0)
(0.980114 -0.00873263 0)
(0.972015 -0.0321748 0)
(1.00507 -0.00156678 0)
(0.985728 -0.0124936 0)
(1.00045 0.0175886 0)
(1.00266 0.000491425 0)
(0.989104 0.0028286 0)
(0.977287 -0.0246859 0)
(0.975548 0.00536353 0)
(1.03537 -0.0213969 0)
(0.971733 0.0160753 0)
(1.00075 0.0358216 0)
(1.01838 0.0225307 0)
(1.00587 0.0292921 0)
(1.01644 0.00501747 0)
(1.00845 0.0100813 0)
(1.01709 -0.00129741 0)
(1.01133 -0.0158587 0)
(1.00604 -0.00543934 0)
(1.00039 -0.0299154 0)
(0.982879 -0.00885687 0)
(0.974165 -0.0294128 0)
(1.00673 -0.00147844 0)
(0.982553 -0.0124479 0)
(1.00248 0.0173465 0)
(1.003 0.000703569 0)
(0.995349 0.00301482 0)
(0.978321 -0.0244198 0)
(0.979311 0.00463989 0)
(1.02019 -0.0213674 0)
(0.98082 0.016431 0)
(1.00052 0.0352711 0)
(1.02068 0.0223546 0)
(1.01193 0.0291112 0)
(1.02068 0.00526914 0)
(1.01355 0.00976352 0)
(1.0211 -0.00112777 0)
(1.01518 -0.0155796 0)
(1.00934 -0.00535167 0)
(1.0035 -0.0284319 0)
(0.985738 -0.00892232 0)
(0.976186 -0.0266366 0)
(1.00812 -0.00137028 0)
(0.979796 -0.0124043 0)
(1.00345 0.0170607 0)
(1.00327 0.00087179 0)
(1.00188 0.00319299 0)
(0.980649 -0.0240928 0)
(0.98319 0.0041184 0)
(1.00542 -0.0213756 0)
(0.98344 0.0165093 0)
(1.0043 0.0347346 0)
(1.02423 0.0220956 0)
(1.01717 0.0289056 0)
(1.02392 0.00557583 0)
(1.01738 0.00942536 0)
(1.02404 -0.000916703 0)
(1.01817 -0.0152551 0)
(1.01184 -0.00527327 0)
(1.00611 -0.0268509 0)
(0.98858 -0.00892052 0)
(0.978589 -0.0238638 0)
(1.00906 -0.00124462 0)
(0.977984 -0.0123544 0)
(1.00363 0.0167326 0)
(1.00351 0.000981979 0)
(1.0075 0.00334437 0)
(0.983628 -0.0237099 0)
(0.98747 0.00382506 0)
(0.991402 -0.0213249 0)
(0.98206 0.0162692 0)
(1.00863 0.034112 0)
(1.02729 0.0218177 0)
(1.02068 0.0287109 0)
(1.0259 0.00593716 0)
(1.02003 0.00907442 0)
(1.02593 -0.000682708 0)
(1.02018 -0.014899 0)
(1.0135 -0.00520384 0)
(1.0081 -0.0251854 0)
(0.991239 -0.00890947 0)
(0.981357 -0.0211311 0)
(1.00941 -0.0011062 0)
(0.97743 -0.0122952 0)
(1.00315 0.0163659 0)
(1.00379 0.00104046 0)
(1.01129 0.00346137 0)
(0.986602 -0.0232973 0)
(0.991578 0.00376074 0)
(0.979866 -0.0211335 0)
(0.978255 0.0157083 0)
(1.01104 0.0333602 0)
(1.02823 0.0215458 0)
(1.02204 0.0285196 0)
(1.02671 0.00633202 0)
(1.02169 0.0087102 0)
(1.02689 -0.000443474 0)
(1.02119 -0.0144934 0)
(1.01426 -0.00514455 0)
(1.00937 -0.0234855 0)
(0.993599 -0.00892494 0)
(0.984214 -0.0185044 0)
(1.00923 -0.000961611 0)
(0.978053 -0.012226 0)
(1.00218 0.0159705 0)
(1.0042 0.00106318 0)
(1.01312 0.00354734 0)
(0.988934 -0.0228795 0)
(0.99475 0.00388187 0)
(0.972749 -0.0207607 0)
(0.973273 0.0148966 0)
(1.01021 0.0324929 0)
(1.02645 0.0212649 0)
(1.02158 0.0282922 0)
(1.0268 0.00673058 0)
(1.02266 0.00832079 0)
(1.02712 -0.00018989 0)
(1.02132 -0.0140249 0)
(1.01416 -0.00510796 0)
(1.00982 -0.0218122 0)
(0.995511 -0.00895912 0)
(0.986774 -0.0160425 0)
(1.00872 -0.000816864 0)
(0.9795 -0.0121477 0)
(1.00104 0.0155582 0)
(1.00471 0.00106526 0)
(1.01359 0.0036087 0)
(0.990226 -0.022467 0)
(0.996661 0.00410566 0)
(0.970692 -0.0202169 0)
(0.968627 0.0139565 0)
(1.00675 0.0315586 0)
(1.02291 0.0209339 0)
(1.0203 0.0279778 0)
(1.02676 0.00710191 0)
(1.02324 0.00791881 0)
(1.02679 9.02231e-05 0)
(1.02079 -0.013492 0)
(1.01335 -0.00509379 0)
(1.00946 -0.0201834 0)
(0.996849 -0.0090003 0)
(0.988742 -0.0137986 0)
(1.00813 -0.000676649 0)
(0.98141 -0.0120614 0)
(0.999941 0.0151383 0)
(1.00516 0.0010567 0)
(1.01343 0.00365927 0)
(0.990555 -0.0220564 0)
(0.997523 0.00433446 0)
(0.972513 -0.0195454 0)
(0.965918 0.0130056 0)
(1.00292 0.0306098 0)
(1.01952 0.0205151 0)
(1.01925 0.0275442 0)
(1.02689 0.00743718 0)
(1.02351 0.00754311 0)
(1.02593 0.000400838 0)
(1.01979 -0.0128825 0)
(1.01208 -0.005081 0)
(1.00847 -0.0186059 0)
(0.997589 -0.00905337 0)
(0.990002 -0.0118049 0)
(1.00762 -0.000545884 0)
(0.983552 -0.0119646 0)
(0.998835 0.0147188 0)
(1.00535 0.00104259 0)
(1.01308 0.00371323 0)
(0.990447 -0.0216325 0)
(0.997716 0.00449777 0)
(0.976112 -0.0187961 0)
(0.965903 0.0121016 0)
(1.00077 0.0296714 0)
(1.01771 0.0200125 0)
(1.01873 0.0270083 0)
(1.02688 0.00776124 0)
(1.02332 0.00721542 0)
(1.02451 0.000744006 0)
(1.01848 -0.0122022 0)
(1.01064 -0.00504826 0)
(1.00714 -0.0170999 0)
(0.997851 -0.00911041 0)
(0.990645 -0.0100644 0)
(1.0072 -0.000428993 0)
(0.985787 -0.0118523 0)
(0.997533 0.0143069 0)
(1.00513 0.00102457 0)
(1.01256 0.00376766 0)
(0.990537 -0.0211779 0)
(0.997449 0.00457165 0)
(0.97982 -0.0180069 0)
(0.967913 0.0112436 0)
(1.00046 0.0287481 0)
(1.01735 0.0194707 0)
(1.01815 0.0264243 0)
(1.02612 0.00809848 0)
(1.02247 0.00693992 0)
(1.02257 0.00111422 0)
(1.01697 -0.0114861 0)
(1.00929 -0.00498688 0)
(1.00579 -0.0156742 0)
(0.997852 -0.00914539 0)
(0.990903 -0.008567 0)
(1.00684 -0.000329214 0)
(0.987963 -0.0117185 0)
(0.995975 0.0139116 0)
(1.00458 0.000999208 0)
(1.01177 0.00380707 0)
(0.991166 -0.0206841 0)
(0.996762 0.00456509 0)
(0.982961 -0.0172014 0)
(0.970421 0.0104228 0)
(1.00044 0.027841 0)
(1.01716 0.0189382 0)
(1.01669 0.0258413 0)
(1.02423 0.00845593 0)
(1.02097 0.0066985 0)
(1.02033 0.0014868 0)
(1.01539 -0.0107708 0)
(1.00819 -0.00489732 0)
(1.00465 -0.0143166 0)
(0.997811 -0.00914491 0)
(0.991028 -0.00728603 0)
(1.00649 -0.00024673 0)
(0.989906 -0.01156 0)
(0.994326 0.0135381 0)
(1.00386 0.000965275 0)
(1.01073 0.00381451 0)
(0.992262 -0.0201515 0)
(0.995749 0.0044965 0)
(0.98552 -0.0163877 0)
(0.972207 0.00964649 0)
(0.999181 0.0269612 0)
(1.01597 0.0184321 0)
(1.01412 0.025282 0)
(1.02139 0.00881757 0)
(1.0191 0.0064715 0)
(1.01811 0.00184369 0)
(1.01389 -0.0100846 0)
(1.00737 -0.00478518 0)
(1.00384 -0.0130096 0)
(0.997862 -0.00909718 0)
(0.991198 -0.00620436 0)
(1.00615 -0.000179054 0)
(0.991486 -0.0113766 0)
(0.992853 0.0131852 0)
(1.00316 0.000925506 0)
(1.00957 0.00377826 0)
(0.993511 -0.0195812 0)
(0.994648 0.00437902 0)
(0.987617 -0.0155597 0)
(0.972991 0.00893996 0)
(0.996423 0.0261301 0)
(1.01364 0.0179381 0)
(1.01093 0.0247376 0)
(1.01821 0.00914573 0)
(1.0172 0.00621515 0)
(1.01616 0.00216998 0)
(1.01258 -0.00943415 0)
(1.00676 -0.00467089 0)
(1.0033 -0.0117508 0)
(0.998043 -0.00899826 0)
(0.991491 -0.00531559 0)
(1.00581 -0.000122285 0)
(0.992667 -0.0111706 0)
(0.991744 0.012847 0)
(1.00256 0.000885102 0)
(1.00844 0.00369624 0)
(0.994618 -0.0189771 0)
(0.993727 0.00422006 0)
(0.98929 -0.0147058 0)
(0.973198 0.00832635 0)
(0.993003 0.025358 0)
(1.01082 0.0174309 0)
(1.00784 0.024179 0)
(1.0153 0.00942183 0)
(1.01553 0.00590818 0)
(1.01457 0.00246569 0)
(1.01149 -0.00881461 0)
(1.00629 -0.0045667 0)
(1.00293 -0.010538 0)
(0.998316 -0.00886504 0)
(0.991918 -0.00460789 0)
(1.0055 -7.16381e-05 0)
(0.9935 -0.0109481 0)
(0.991039 0.0125183 0)
(1.00208 0.000850205 0)
(1.00746 0.00357258 0)
(0.995442 -0.0183446 0)
(0.993126 0.00402513 0)
(0.990552 -0.0138188 0)
(0.973388 0.00780591 0)
(0.989931 0.0246453 0)
(1.00822 0.0168932 0)
(1.00538 0.0235718 0)
(1.01299 0.00965666 0)
(1.01418 0.00556144 0)
(1.01328 0.00273415 0)
(1.01056 -0.00821793 0)
(1.0059 -0.00448182 0)
(1.00262 -0.00936376 0)
(0.998612 -0.00868564 0)
(0.992463 -0.00407601 0)
(1.00522 -2.33523e-05 0)
(0.994077 -0.0107145 0)
(0.990669 0.0121951 0)
(1.00171 0.000823584 0)
(1.00663 0.00341502 0)
(0.995981 -0.0176878 0)
(0.992821 0.00379597 0)
(0.991454 -0.0128912 0)
(0.973889 0.00735918 0)
(0.98775 0.0239736 0)
(1.00624 0.0163324 0)
(1.00366 0.0229087 0)
(1.0113 0.00986127 0)
(1.01312 0.00517704 0)
(1.01221 0.0029755 0)
(1.00973 -0.00761096 0)
(1.00553 -0.00443364 0)
(1.00233 -0.00822259 0)
(0.998862 -0.00842886 0)
(0.993092 -0.00371068 0)
(1.00499 2.49296e-05 0)
(0.994485 -0.0104728 0)
(0.990528 0.0118728 0)
(1.00141 0.000806778 0)
(1.00596 0.00323065 0)
(0.996296 -0.0170077 0)
(0.992702 0.0035357 0)
(0.99208 -0.01193 0)
(0.974764 0.00696282 0)
(0.986492 0.0233339 0)
(1.00488 0.0157537 0)
(1.00257 0.022182 0)
(1.01007 0.0100565 0)
(1.01226 0.00478066 0)
(1.01127 0.00318833 0)
(1.00896 -0.00696121 0)
(1.00517 -0.00441877 0)
(1.00202 -0.00712325 0)
(0.999021 -0.00807866 0)
(0.993767 -0.00350269 0)
(1.00478 7.39706e-05 0)
(0.994788 -0.0102243 0)
(0.99053 0.0115475 0)
(1.00115 0.000801338 0)
(1.00542 0.00302127 0)
(0.996453 -0.0163027 0)
(0.992654 0.00324748 0)
(0.992507 -0.0109472 0)
(0.97593 0.00659207 0)
(0.985933 0.0227295 0)
(1.00397 0.0151703 0)
(1.0019 0.0214038 0)
(1.00914 0.01025 0)
(1.01154 0.00438855 0)
(1.01041 0.00335663 0)
(1.00823 -0.00625793 0)
(1.00481 -0.0044419 0)
(1.00173 -0.00608716 0)
(0.999073 -0.00762343 0)
(0.994451 -0.00344792 0)
(1.00461 0.00012523 0)
(0.995029 -0.00997179 0)
(0.990616 0.0112196 0)
(1.00093 0.000807531 0)
(1.00503 0.00279145 0)
(0.9965 -0.015575 0)
(0.992605 0.00293177 0)
(0.992786 -0.00994748 0)
(0.977256 0.00622893 0)
(0.985827 0.0221391 0)
(1.00336 0.01461 0)
(1.0015 0.020573 0)
(1.00838 0.0104497 0)
(1.01093 0.00402476 0)
(1.00962 0.00347022 0)
(1.00753 -0.00549295 0)
(1.00449 -0.00450388 0)
(1.00147 -0.00515112 0)
(0.999031 -0.0070508 0)
(0.995109 -0.00352085 0)
(1.00445 0.000179131 0)
(0.995231 -0.00971684 0)
(0.990755 0.0108892 0)
(1.00074 0.000828035 0)
(1.00475 0.00254626 0)
(0.996472 -0.0148213 0)
(0.992531 0.00259704 0)
(0.992944 -0.00895094 0)
(0.978624 0.00587161 0)
(0.985994 0.0215583 0)
(1.00294 0.0140747 0)
(1.00127 0.0196751 0)
(1.00771 0.0106555 0)
(1.01042 0.00371988 0)
(1.00892 0.00352323 0)
(1.0069 -0.00466485 0)
(1.00421 -0.00455829 0)
(1.00126 -0.00435838 0)
(0.998925 -0.00636031 0)
(0.995714 -0.00364983 0)
(1.00428 0.000235293 0)
(0.995409 -0.00945751 0)
(0.990929 0.0105511 0)
(1.00058 0.000857925 0)
(1.00459 0.00228786 0)
(0.996394 -0.0140361 0)
(0.992437 0.00224554 0)
(0.992999 -0.00796445 0)
(0.979943 0.00551248 0)
(0.986319 0.0209895 0)
(1.00265 0.0135739 0)
(1.00117 0.0187271 0)
(1.00708 0.0108639 0)
(1.01002 0.00346796 0)
(1.00832 0.0034997 0)
(1.00634 -0.00379418 0)
(1.00402 -0.0045662 0)
(1.00112 -0.00371969 0)
(0.998796 -0.00556671 0)
(0.996245 -0.00375286 0)
(1.00411 0.000295102 0)
(0.995573 -0.00919619 0)
(0.99113 0.0102062 0)
(1.00047 0.000893608 0)
(1.0045 0.0020182 0)
(0.996289 -0.0132186 0)
(0.992349 0.00187782 0)
(0.992968 -0.00699405 0)
(0.981156 0.00515423 0)
(0.986735 0.0204106 0)
(1.00246 0.0131284 0)
(1.00119 0.0177348 0)
(1.00649 0.0110525 0)
(1.00973 0.00329459 0)
(1.00785 0.00340984 0)
(1.00585 -0.00289944 0)
(1.00391 -0.00449947 0)
(1.00109 -0.00323785 0)
(0.998682 -0.00471689 0)
(0.996688 -0.00376549 0)
(1.00393 0.000358187 0)
(0.995728 -0.00893207 0)
(0.991349 0.00985134 0)
(1.0004 0.000941341 0)
(1.00447 0.00174002 0)
(0.996178 -0.0123731 0)
(0.992294 0.00150472 0)
(0.992879 -0.00604906 0)
(0.982246 0.00479907 0)
(0.987197 0.0198043 0)
(1.00233 0.0127387 0)
(1.00131 0.0167122 0)
(1.00593 0.0111986 0)
(1.00951 0.00320162 0)
(1.00751 0.00325333 0)
(1.00542 -0.00201869 0)
(1.00387 -0.00432052 0)
(1.00115 -0.00291495 0)
(0.998611 -0.00387211 0)
(0.99704 -0.0036345 0)
(1.00373 0.000425037 0)
(0.995883 -0.00866503 0)
(0.991579 0.00948529 0)
(1.00037 0.000997246 0)
(1.00444 0.00145765 0)
(0.996079 -0.011501 0)
(0.992296 0.00114068 0)
(0.992768 -0.00513799 0)
(0.983225 0.00445873 0)
(0.987675 0.0191482 0)
(1.00223 0.0124027 0)
(1.0015 0.0156727 0)
(1.00539 0.0113058 0)
(1.00931 0.00319869 0)
(1.00729 0.00303867 0)
(1.00504 -0.00118576 0)
(1.00386 -0.00401131 0)
(1.00129 -0.00272635 0)
(0.998603 -0.003091 0)
(0.997295 -0.00332811 0)
(1.00353 0.000495281 0)
(0.996045 -0.00839462 0)
(0.991817 0.00910554 0)
(1.00034 0.00106079 0)
(1.00439 0.00117291 0)
(0.996004 -0.0106024 0)
(0.992367 0.000789225 0)
(0.992675 -0.00426394 0)
(0.984124 0.00414175 0)
(0.988147 0.0184197 0)
(1.00213 0.0121248 0)
(1.00172 0.0146301 0)
(1.00487 0.0113419 0)
(1.00909 0.0033019 0)
(1.00715 0.0028054 0)
(1.0047 -0.000425632 0)
(1.00385 -0.00357312 0)
(1.0015 -0.00262338 0)
(0.998667 -0.00241926 0)
(0.997462 -0.00285537 0)
(1.00332 0.000569529 0)
(0.996221 -0.00812181 0)
(0.992059 0.00871033 0)
(1.00032 0.00113757 0)
(1.00431 0.000886234 0)
(0.995955 -0.00969187 0)
(0.99251 0.00045762 0)
(0.992633 -0.00343337 0)
(0.984979 0.00385932 0)
(0.988609 0.0176253 0)
(1.002 0.011887 0)
(1.00192 0.0136089 0)
(1.00435 0.0112927 0)
(1.0088 0.00348921 0)
(1.00707 0.00256841 0)
(1.00438 0.000241909 0)
(1.00379 -0.00302731 0)
(1.00175 -0.00254499 0)
(0.998807 -0.00188703 0)
(0.997557 -0.0022633 0)
(1.00312 0.000646128 0)
(0.996418 -0.00784446 0)
(0.992307 0.00830127 0)
(1.00027 0.00122618 0)
(1.00417 0.000597119 0)
(0.99593 -0.00877917 0)
(0.992716 0.000160128 0)
(0.992665 -0.00266772 0)
(0.985821 0.00363487 0)
(0.989059 0.0167706 0)
(1.00183 0.0116652 0)
(1.00208 0.0126357 0)
(1.00385 0.0111587 0)
(1.00841 0.00372847 0)
(1.007 0.00234287 0)
(1.00409 0.000809402 0)
(1.00367 -0.0024009 0)
(1.00199 -0.00243121 0)
(0.999017 -0.00150552 0)
(0.997608 -0.00164244 0)
(1.00291 0.00072394 0)
(0.996639 -0.00756106 0)
(0.992563 0.0078763 0)
(1.00019 0.00132784 0)
(1.004 0.000307678 0)
(0.995922 -0.00787269 0)
(0.992969 -9.78983e-05 0)
(0.992781 -0.00196987 0)
(0.986669 0.00347848 0)
(0.98951 0.0158589 0)
(1.00163 0.0114553 0)
(1.00218 0.011732 0)
(1.00335 0.0109345 0)
(1.00791 0.00401171 0)
(1.00692 0.00215389 0)
(1.00381 0.00126535 0)
(1.00347 -0.00172778 0)
(1.0022 -0.00226103 0)
(0.999281 -0.00125473 0)
(0.997651 -0.00107028 0)
(1.00271 0.000802224 0)
(0.996881 -0.00727337 0)
(0.992833 0.00743572 0)
(1.00007 0.00144806 0)
(1.0038 2.45307e-05 0)
(0.995926 -0.00698223 0)
(0.993253 -0.000312162 0)
(0.992973 -0.00135952 0)
(0.987528 0.00339546 0)
(0.989973 0.0149233 0)
(1.00142 0.0112338 0)
(1.00222 0.0109045 0)
(1.00288 0.0106433 0)
(1.00733 0.00433089 0)
(1.00681 0.00202207 0)
(1.00357 0.00162722 0)
(1.00321 -0.00103844 0)
(1.00235 -0.00201496 0)
(0.999586 -0.00111587 0)
(0.997723 -0.000597833 0)
(1.00251 0.000879536 0)
(0.997143 -0.00697861 0)
(0.993123 0.00698231 0)
(0.999913 0.00158309 0)
(1.00358 -0.000252238 0)
(0.995938 -0.00612307 0)
(0.993547 -0.000472386 0)
(0.993228 -0.000847184 0)
(0.988395 0.00335697 0)
(0.990458 0.0139904 0)
(1.0012 0.0109848 0)
(1.00223 0.0101643 0)
(1.00244 0.0102966 0)
(1.00668 0.00463934 0)
(1.00666 0.00194951 0)
(1.00338 0.00189511 0)
(1.00291 -0.000350826 0)
(1.00242 -0.00167321 0)
(0.999908 -0.00101888 0)
(0.997863 -0.000254198 0)
(1.00231 0.00095348 0)
(0.997418 -0.00667664 0)
(0.993436 0.0065194 0)
(0.999726 0.00173779 0)
(1.00335 -0.000515962 0)
(0.995964 -0.0053168 0)
(0.993841 -0.00056274 0)
(0.993528 -0.000424191 0)
(0.989262 0.00336214 0)
(0.990967 0.0130676 0)
(1.001 0.0106989 0)
(1.00222 0.00951483 0)
(1.00206 0.00991011 0)
(1.006 0.0049354 0)
(1.00649 0.00194382 0)
(1.00324 0.00207141 0)
(1.00259 0.000283478 0)
(1.00241 -0.00127849 0)
(1.00022 -0.000901901 0)
(0.998068 -9.78481e-06 0)
(1.00211 0.00102357 0)
(0.997699 -0.00636327 0)
(0.993773 0.00604138 0)
(0.999519 0.00190363 0)
(1.00313 -0.000753791 0)
(0.996009 -0.00455519 0)
(0.994127 -0.000577309 0)
(0.993858 -0.000111296 0)
(0.990115 0.00339417 0)
(0.991493 0.0121927 0)
(1.00083 0.0103759 0)
(1.00221 0.00892137 0)
(1.00173 0.0094822 0)
(1.00531 0.00520957 0)
(1.00627 0.00201137 0)
(1.00315 0.00220972 0)
(1.00229 0.000869804 0)
(1.00234 -0.000840685 0)
(1.00052 -0.000770291 0)
(0.998342 0.000117519 0)
(1.00191 0.00108842 0)
(0.997977 -0.00604401 0)
(0.994134 0.00556188 0)
(0.999303 0.00208318 0)
(1.00292 -0.000980661 0)
(0.996079 -0.00386276 0)
(0.994399 -0.000510662 0)
(0.994202 0.000121119 0)
(0.990954 0.00341836 0)
(0.992028 0.0113737 0)
(1.00066 0.0100289 0)
(1.00219 0.00839837 0)
(1.00147 0.00904997 0)
(1.00464 0.00545114 0)
(1.00604 0.00211745 0)
(1.00312 0.00228293 0)
(1.00201 0.0014105 0)
(1.0022 -0.00034133 0)
(1.00077 -0.000566146 0)
(0.998661 0.000204091 0)
(1.00172 0.00114668 0)
(0.998245 -0.00570952 0)
(0.994517 0.00505723 0)
(0.999085 0.00227208 0)
(1.00271 -0.00115203 0)
(0.996184 -0.00325991 0)
(0.994664 -0.000376973 0)
(0.994552 0.000297026 0)
(0.991767 0.0034334 0)
(0.992562 0.0106034 0)
(1.00052 0.00965916 0)
(1.00217 0.00791551 0)
(1.00127 0.00861402 0)
(1.004 0.00568183 0)
(1.00576 0.00230201 0)
(1.00315 0.00232324 0)
(1.00179 0.00187066 0)
(1.00203 0.000193878 0)
(1.00097 -0.000340599 0)
(0.99898 0.00033612 0)
(1.00154 0.00119573 0)
(0.998495 -0.00536774 0)
(0.994917 0.00456389 0)
(0.998879 0.00245174 0)
(1.00252 -0.00129502 0)
(0.996321 -0.0027248 0)
(0.99492 -0.000191412 0)
(0.994901 0.000436267 0)
(0.992556 0.00341567 0)
(0.993089 0.00989277 0)
(1.00037 0.00928797 0)
(1.00215 0.00748747 0)
(1.00113 0.00816234 0)
(1.00341 0.0058257 0)
(1.00546 0.00252179 0)
(1.0032 0.00240038 0)
(1.00163 0.00226757 0)
(1.00182 0.000684496 0)
(1.00112 -0.000117277 0)
(0.999312 0.000439025 0)
(1.00138 0.00123847 0)
(0.998729 -0.00501543 0)
(0.995331 0.00405789 0)
(0.998682 0.00263733 0)
(1.00233 -0.00137912 0)
(0.996497 -0.0023071 0)
(0.995175 5.88089e-05 0)
(0.995243 0.000566979 0)
(0.993316 0.00336254 0)
(0.993609 0.00922524 0)
(1.00024 0.00891276 0)
(1.00212 0.00708669 0)
(1.00104 0.00772418 0)
(1.00286 0.00595483 0)
(1.00514 0.00274581 0)
(1.00329 0.00244964 0)
(1.00152 0.00267702 0)
(1.00158 0.00135046 0)
(1.00122 0.000291862 0)
(0.999625 0.000531974 0)
(1.00122 0.00126507 0)
(0.998939 -0.00463784 0)
(0.995756 0.00355203 0)
(0.998509 0.00279312 0)
(1.00215 -0.0013951 0)
(0.996705 -0.00195806 0)
(0.995431 0.000325372 0)
(0.995569 0.000711087 0)
(0.994048 0.00327198 0)
(0.994122 0.00859963 0)
(1.00011 0.00853941 0)
(1.00208 0.00672305 0)
(1.00101 0.00726045 0)
(1.00237 0.00599656 0)
(1.00478 0.00299534 0)
(1.00342 0.00244594 0)
(1.00155 0.00281905 0)
(1.00134 0.00178027 0)
(1.00118 0.000503257 0)
(0.99978 0.000632069 0)
(1.00108 0.00128904 0)
(0.999133 -0.0042681 0)
(0.996187 0.00307172 0)
(0.998351 0.00292046 0)
(1.00198 -0.00135139 0)
(0.996944 -0.00169822 0)
(0.995694 0.000603678 0)
(0.99588 0.000875143 0)
(0.994747 0.00315921 0)
(0.994636 0.00800082 0)
(1 0.00816525 0)
(1.00202 0.00642366 0)
(1.001 0.0068111 0)
(1.00195 0.00596101 0)
(1.00441 0.00317038 0)
(1.0035 0.00232011 0)
(1.00158 0.00268032 0)
(1.0011 0.00207323 0)
(1.00117 0.000862514 0)
(1.00012 0.000933446 0)
(1.00095 0.00129108 0)
(0.999301 -0.00385701 0)
(0.996628 0.00256908 0)
(0.998224 0.00302724 0)
(1.0018 -0.00123237 0)
(0.997207 -0.00150947 0)
(0.995969 0.000861619 0)
(0.996165 0.00106521 0)
(0.995411 0.00303762 0)
(0.995148 0.00742926 0)
(0.999903 0.00779897 0)
(1.00196 0.0061321 0)
(1.00104 0.0063671 0)
(1.00159 0.0059098 0)
(1.00399 0.00329917 0)
(1.00355 0.00210019 0)
(1.00175 0.00242244 0)
(1.00101 0.00219656 0)
(1.00112 0.00119081 0)
(1.00034 0.00123868 0)
(1.00083 0.00128953 0)
(0.999453 -0.00345949 0)
(0.997067 0.0021257 0)
(0.998121 0.00305679 0)
(1.00161 -0.00105004 0)
(0.997484 -0.00134691 0)
(0.996257 0.00107722 0)
(0.996434 0.00128506 0)
(0.996036 0.00292465 0)
(0.995666 0.00686599 0)
(0.999826 0.0074384 0)
(1.00187 0.00589261 0)
(1.0011 0.00593845 0)
(1.00128 0.00571884 0)
(1.00352 0.00352199 0)
(1.00352 0.00230135 0)
(1.00191 0.00254523 0)
(1.00095 0.00260839 0)
(1.00117 0.00174898 0)
(1.00078 0.00139551 0)
(1.00073 0.00126822 0)
(0.99958 -0.00302692 0)
(0.997505 0.00167101 0)
(0.998051 0.00304807 0)
(1.00142 -0.000795067 0)
(0.997768 -0.00123321 0)
(0.996561 0.00125522 0)
(0.996678 0.00150452 0)
(0.996608 0.00283383 0)
(0.996178 0.00632426 0)
(0.999781 0.00706186 0)
(1.00177 0.00567362 0)
(1.00116 0.00553892 0)
(1.00107 0.00555015 0)
(1.00317 0.00374406 0)
(1.00353 0.0024126 0)
(1.00219 0.00248287 0)
(1.00104 0.00278239 0)
(1.00099 0.00215318 0)
(1.00075 0.00165648 0)
(1.00063 0.00123478 0)
(0.999684 -0.00259762 0)
(0.99793 0.00126652 0)
(0.998019 0.00297588 0)
(1.00123 -0.00052153 0)
(0.998047 -0.00110438 0)
(0.996883 0.0013599 0)
(0.99691 0.00172983 0)
(0.997131 0.00277166 0)
(0.996684 0.00582267 0)
(0.999767 0.00668136 0)
(1.00166 0.00547914 0)
(1.00123 0.00520359 0)
(1.00093 0.00536502 0)
(1.00274 0.00388375 0)
(1.00338 0.00245463 0)
(1.00239 0.00227185 0)
(1.00117 0.00264854 0)
(1.00106 0.00237041 0)
(1.00109 0.00204624 0)
(1.00055 0.00119609 0)
(0.999766 -0.00218517 0)
(0.99834 0.000912394 0)
(0.998019 0.00281529 0)
(1.00103 -0.000188476 0)
(0.998313 -0.000962444 0)
(0.99722 0.00141829 0)
(0.997131 0.00193452 0)
(0.997593 0.00275041 0)
(0.997174 0.00534627 0)
(0.99979 0.00630309 0)
(1.00155 0.00529913 0)
(1.0013 0.00491593 0)
(1.00085 0.00515764 0)
(1.00242 0.00407904 0)
(1.00324 0.00284656 0)
(1.00261 0.00252231 0)
(1.00145 0.00290634 0)
(1.0011 0.00281798 0)
(1.00112 0.00234724 0)
(1.00048 0.00113732 0)
(0.999824 -0.00176583 0)
(0.998717 0.000590474 0)
(0.998064 0.0026386 0)
(1.00084 0.000125256 0)
(0.998554 -0.000800644 0)
(0.997569 0.00144094 0)
(0.99735 0.00211677 0)
(0.998001 0.00275887 0)
(0.99764 0.00493109 0)
(0.999845 0.00593148 0)
(1.00144 0.00513094 0)
(1.00137 0.00467647 0)
(1.00086 0.00501067 0)
(1.00215 0.0042208 0)
(1.00308 0.00309743 0)
(1.00276 0.00261096 0)
(1.00168 0.00284584 0)
(1.00118 0.00283068 0)
(1.00115 0.00255925 0)
(1.00041 0.001085 0)
(0.99986 -0.00139967 0)
(0.999071 0.000358659 0)
(0.99814 0.00240643 0)
(1.00066 0.000421396 0)
(0.998772 -0.000583904 0)
(0.997924 0.00142852 0)
(0.997569 0.00225272 0)
(0.998354 0.00278635 0)
(0.998076 0.00457369 0)
(0.999932 0.00556624 0)
(1.00135 0.00498442 0)
(1.00145 0.0045105 0)
(1.0009 0.00482844 0)
(1.00194 0.004268 0)
(1.00289 0.00330939 0)
(1.00285 0.00272391 0)
(1.00193 0.00286348 0)
(1.00136 0.00292903 0)
(1.00123 0.00278889 0)
(1.00036 0.00101806 0)
(0.999878 -0.00104113 0)
(0.999382 0.000174056 0)
(0.998253 0.00214726 0)
(1.0005 0.000693771 0)
(0.998953 -0.000345412 0)
(0.998272 0.0014048 0)
(0.997797 0.00235365 0)
(0.998663 0.00283333 0)
(0.998477 0.00427406 0)
(1.00005 0.00521869 0)
(1.00127 0.00484273 0)
(1.0015 0.00435811 0)
(1.00098 0.00464013 0)
(1.0018 0.00428431 0)
(1.00272 0.00349502 0)
(1.00291 0.00286842 0)
(1.00216 0.00288136 0)
(1.00154 0.00297224 0)
(1.00131 0.002883 0)
(1.00031 0.000960359 0)
(0.999879 -0.000741109 0)
(0.99966 6.34138e-05 0)
(0.998393 0.00189105 0)
(1.00037 0.00089738 0)
(0.999107 -9.81908e-05 0)
(0.998615 0.00140042 0)
(0.998033 0.00242179 0)
(0.998931 0.00287755 0)
(0.998835 0.00403177 0)
(1.00018 0.00489321 0)
(1.00122 0.0047066 0)
(1.00156 0.00425157 0)
(1.00108 0.00447365 0)
(1.00171 0.00423214 0)
(1.00256 0.00360704 0)
(1.00289 0.00298834 0)
(1.00237 0.00289575 0)
(1.00176 0.00299092 0)
(1.00144 0.00299402 0)
(1.00027 0.000898672 0)
(0.99987 -0.000470085 0)
(0.999895 1.1686e-05 0)
(0.998552 0.00162598 0)
(1.00026 0.00105181 0)
(0.999236 0.000167189 0)
(0.998938 0.0014029 0)
(0.998277 0.00245036 0)
(0.99917 0.00292107 0)
(0.999157 0.00384443 0)
(1.00034 0.00459668 0)
(1.0012 0.00455759 0)
(1.00159 0.00414849 0)
(1.00118 0.00430448 0)
(1.00167 0.00416122 0)
(1.00244 0.00368111 0)
(1.00289 0.00313581 0)
(1.00255 0.00296811 0)
(1.00201 0.00298628 0)
(1.00158 0.00307831 0)
(1.00024 0.000845342 0)
(0.999853 -0.000246182 0)
(1.00009 6.95711e-06 0)
(0.998725 0.00139289 0)
(1.0002 0.00115426 0)
(0.999345 0.000410061 0)
(0.999239 0.0014256 0)
(0.998528 0.00246571 0)
(0.999388 0.00295867 0)
(0.999435 0.00369605 0)
(1.0005 0.00432943 0)
(1.0012 0.0043988 0)
(1.00163 0.00406433 0)
(1.0013 0.00417722 0)
(1.00167 0.00408682 0)
(1.00235 0.00371462 0)
(1.00285 0.00321669 0)
(1.00266 0.00302312 0)
(1.00224 0.0029365 0)
(1.00175 0.00309549 0)
(1.00022 0.000795227 0)
(0.999833 -6.045e-05 0)
(1.00025 4.49045e-05 0)
(0.998902 0.00118798 0)
(1.00016 0.00120945 0)
(0.999442 0.000629359 0)
(0.99952 0.00146146 0)
(0.998783 0.00246966 0)
(0.999589 0.00297869 0)
(0.99968 0.0035798 0)
(1.00065 0.00409492 0)
(1.00123 0.0042331 0)
(1.00167 0.00398027 0)
(1.0014 0.0040527 0)
(1.00169 0.0039846 0)
(1.00228 0.00371762 0)
(1.00284 0.00326476 0)
(1.00275 0.00310268 0)
(1.00247 0.00295219 0)
(1.00198 0.00307996 0)
(1.00019 0.000752996 0)
(0.999813 9.02479e-05 0)
(1.00038 0.000102028 0)
(0.999077 0.00102498 0)
(1.00016 0.00123731 0)
(0.999532 0.000819109 0)
(0.999779 0.00149605 0)
(0.999039 0.00245309 0)
(0.999778 0.00298234 0)
(0.999892 0.00348217 0)
(1.00081 0.00388745 0)
(1.00129 0.00406535 0)
(1.00173 0.00388344 0)
(1.00151 0.00395299 0)
(1.00175 0.00390195 0)
(1.00225 0.00372533 0)
(1.00283 0.00330134 0)
(1.00283 0.00314109 0)
(1.00263 0.00297957 0)
(1.00222 0.00300292 0)
(1.00018 0.000714757 0)
(0.999793 0.000213128 0)
(1.00049 0.00017295 0)
(0.999247 0.000906131 0)
(1.00018 0.00125027 0)
(0.999618 0.000976483 0)
(1.00002 0.00153271 0)
(0.999295 0.00242546 0)
(0.999962 0.00297418 0)
(1.00008 0.0034019 0)
(1.00095 0.00370975 0)
(1.00136 0.00390408 0)
(1.00179 0.00377679 0)
(1.00162 0.00385899 0)
(1.00183 0.00381099 0)
(1.00223 0.00369204 0)
(1.00282 0.00331293 0)
(1.00291 0.00314116 0)
(1.00277 0.00301721 0)
(1.00247 0.00296599 0)
(1.00017 0.000682708 0)
(0.999776 0.000310399 0)
(1.00057 0.000251522 0)
(0.999408 0.000818434 0)
(1.00023 0.00125937 0)
(0.999702 0.00111542 0)
(1.00023 0.00157044 0)
(0.99955 0.00238351 0)
(1.00014 0.00294186 0)
(1.00024 0.0033327 0)
(1.00108 0.00355319 0)
(1.00144 0.00374301 0)
(1.00187 0.00365843 0)
(1.00174 0.00375491 0)
(1.00191 0.00371963 0)
(1.00224 0.00365308 0)
(1.00281 0.00333633 0)
(1.00299 0.00313865 0)
(1.0029 0.00303192 0)
(1.00267 0.00295968 0)
(1.00016 0.000656864 0)
(0.999762 0.000384484 0)
(1.00063 0.000335922 0)
(0.999561 0.000759077 0)
(1.00029 0.00126504 0)
(0.999782 0.00123673 0)
(1.00042 0.00159887 0)
(0.999797 0.00232173 0)
(1.00032 0.00288758 0)
(1.00039 0.00326909 0)
(1.0012 0.00342464 0)
(1.00154 0.00360143 0)
(1.00196 0.00353553 0)
(1.00187 0.00364216 0)
(1.00202 0.00362427 0)
(1.00228 0.0035969 0)
(1.00281 0.00333761 0)
(1.00305 0.00312921 0)
(1.00303 0.00299852 0)
(1.00284 0.00295611 0)
(1.00015 0.000635262 0)
(0.999753 0.000441154 0)
(1.00067 0.000420971 0)
(0.999701 0.000722646 0)
(1.00037 0.00125621 0)
(0.999859 0.00133632 0)
(1.00059 0.00162873 0)
(1.00004 0.00225404 0)
(1.00051 0.00281767 0)
(1.00052 0.00320895 0)
(1.0013 0.00331504 0)
(1.00162 0.00347271 0)
(1.00206 0.00341312 0)
(1.002 0.00352326 0)
(1.00214 0.00351777 0)
(1.00235 0.00351985 0)
(1.00282 0.00331556 0)
(1.0031 0.00313311 0)
(1.00316 0.00296042 0)
(1.003 0.00293559 0)
(1.00015 0.000618825 0)
(0.999749 0.000482471 0)
(1.0007 0.000500098 0)
(0.999826 0.000705098 0)
(1.00046 0.00123758 0)
(0.999938 0.00141353 0)
(1.00073 0.00166365 0)
(1.00026 0.0021876 0)
(1.00071 0.00272532 0)
(1.00066 0.00314251 0)
(1.0014 0.00322219 0)
(1.00171 0.00335976 0)
(1.00216 0.00329714 0)
(1.00214 0.00340324 0)
(1.00228 0.00340433 0)
(1.00244 0.00342961 0)
(1.00286 0.00326198 0)
(1.00314 0.00312818 0)
(1.00327 0.00293063 0)
(1.00317 0.00287961 0)
(1.00015 0.00060536 0)
(0.999749 0.000510326 0)
(1.00072 0.000572152 0)
(0.999935 0.000702611 0)
(1.00056 0.00121211 0)