/*--------------------------------*- C++ -*----------------------------------*\
| =========                 |                                                 |
| \\      /  F ield         | OpenFOAM: The Open Source CFD Toolbox           |
|  \\    /   O peration     | Version:  v1912                                 |
|   \\  /    A nd           | Website:  www.openfoam.com                      |
|    \\/     M anipulation  |                                                 |
\*---------------------------------------------------------------------------*/
FoamFile
{
    version     2.0;
    format      ascii;
    class       volScalarField;
    location    "7.65";
    object      p;
}
// * * * * * * * * * * * * * * * * * * * * * * * * * * * * * * * * * * * * * //

dimensions      [0 2 -2 0 0 0 0];


internalField   nonuniform List<scalar> 
9600
(
-4.45552e-10
0.00588931
0.00277143
0.00524579
0.0103051
0.0126578
0.00169839
0.00446698
0.00181245
0.000299932
0.00267979
0.00314365
0.00283379
0.00371864
0.00338406
0.00330594
0.00419141
0.00608778
0.0077643
0.0145594
1.65084e-05
0.0058248
0.00276762
0.00530254
0.0102931
0.012609
0.00176907
0.00442286
0.00181967
0.000322769
0.00265541
0.0031764
0.00282638
0.00371379
0.00337156
0.00330961
0.00420996
0.0060806
0.00779669
0.0137385
2.39091e-05
0.00576401
0.0027741
0.00538035
0.0102662
0.0125569
0.00182063
0.00436734
0.00185056
0.000380181
0.00266291
0.00320672
0.00282787
0.00369211
0.00335627
0.00333304
0.0042203
0.00607562
0.00778657
0.0131033
2.61146e-05
0.00570402
0.00279097
0.00543894
0.0102299
0.0124941
0.00184808
0.00431
0.00189995
0.000473965
0.00265533
0.00322494
0.00281788
0.00365603
0.00333977
0.00335636
0.0042236
0.00605162
0.00776296
0.0124392
2.45539e-05
0.00564702
0.00282008
0.0054718
0.0101779
0.0124166
0.00186743
0.00425124
0.0019645
0.000588115
0.00262461
0.0032334
0.00281279
0.0036081
0.00331764
0.00337325
0.00422422
0.00601609
0.00771965
0.0118413
2.31157e-05
0.00559995
0.00286156
0.00547834
0.0101093
0.0123242
0.00189196
0.00418699
0.00203901
0.000701581
0.00256854
0.00323619
0.00281182
0.00355344
0.00329351
0.00338534
0.00422653
0.00596785
0.00765966
0.0112629
2.40223e-05
0.00556554
0.00291292
0.00546001
0.0100258
0.0122183
0.00192804
0.00411496
0.00211866
0.000804925
0.00249375
0.00323493
0.00281589
0.00350068
0.00327169
0.00339448
0.00423143
0.00591015
0.0075791
0.010712
2.96996e-05
0.00554284
0.00296976
0.00542178
0.00993098
0.0121014
0.00197969
0.00403627
0.00220173
0.000898781
0.00240839
0.00323003
0.00282489
0.00345277
0.00325264
0.00340017
0.00423765
0.00584438
0.00747805
0.0101871
4.14782e-05
0.00552866
0.00302754
0.00537005
0.00982893
0.0119745
0.00204756
0.00395402
0.00228907
0.000986412
0.00231707
0.00322129
0.00283783
0.00340788
0.00323513
0.00340072
0.00424239
0.0057703
0.00735573
0.00969382
5.94512e-05
0.00551903
0.00308324
0.00531046
0.00972204
0.0118383
0.00212807
0.00387099
0.00238127
0.00107004
0.00222144
0.00320856
0.0028531
0.00336355
0.00321787
0.00339447
0.00424285
0.00568794
0.00721088
0.00921167
8.28395e-05
0.00551054
0.00313563
0.00524675
0.009611
0.011693
0.00221621
0.00378826
0.00247717
0.00115097
0.00212255
0.00319191
0.00286942
0.00331822
0.00319983
0.00338112
0.00423707
0.00559721
0.0070439
0.00874665
0.000110613
0.00550087
0.00318476
0.00518085
0.00949563
0.0115398
0.00230811
0.00370539
0.00257466
0.00123041
0.00202195
0.00317173
0.0028857
0.0032707
0.00318061
0.0033614
0.00422376
0.00549862
0.00685877
0.00829612
0.000141922
0.00548864
0.00323126
0.00511357
0.0093756
0.0113794
0.00240165
0.00362132
0.00267179
0.00130933
0.00192156
0.00314838
0.0029008
0.00322035
0.00316007
0.00333609
0.00420241
0.005393
0.00665643
0.00785819
0.000176221
0.00547312
0.00327585
0.00504531
0.00925087
0.0112127
0.00249595
0.00353529
0.00276709
0.00138829
0.00182306
0.00312209
0.00291376
0.00316701
0.00313789
0.00330577
0.00417289
0.00528072
0.00643902
0.00743193
0.00021321
0.00545391
0.0033192
0.00497629
0.00912164
0.01104
0.00259069
0.00344703
0.00285948
0.00146761
0.00172738
0.00309292
0.00292409
0.00311056
0.00311364
0.003271
0.00413501
0.00516163
0.00620789
0.00701683
0.000252736
0.00543081
0.00336183
0.00490666
0.00898825
0.0108622
0.00268566
0.00335665
0.00294813
0.00154749
0.0016348
0.00306089
0.00293147
0.00305108
0.00308721
0.00323176
0.00408848
0.00503537
0.00596368
0.00661321
0.000294734
0.0054037
0.00340409
0.00483653
0.00885107
0.0106798
0.00278062
0.00326453
0.00303236
0.00162801
0.00154523
0.00302599
0.00293577
0.00298878
0.00305877
0.00318735
0.0040326
0.00490218
0.00570744
0.00622136
0.000339197
0.00537249
0.00344612
0.00476593
0.00871039
0.0104927
0.00287523
0.00317118
0.00311155
0.00170926
0.00145822
0.00298827
0.00293719
0.00292354
0.00302852
0.00313722
0.00396646
0.0047632
0.00543989
0.0058397
0.000386159
0.00533713
0.00348788
0.00469484
0.00856637
0.0103011
0.0029691
0.00307712
0.00318498
0.00179135
0.00137327
0.0029478
0.00293617
0.00285475
0.00299662
0.00308118
0.00388888
0.00461994
0.00516136
0.00546534
0.000435663
0.00529757
0.00352921
0.0046232
0.00841911
0.0101053
0.00306136
0.00298294
0.00325181
0.00187443
0.00129006
0.00290441
0.00293324
0.0027816
0.00296342
0.00301935
0.00379786
0.00447429
0.0048736
0.00509491
0.000487738
0.00525374
0.00356984
0.00455099
0.00826863
0.00990557
0.00315154
0.0028892
0.00331116
0.00195866
0.00120841
0.00285778
0.00292918
0.0027031
0.00292899
0.00295241
0.00369097
0.00432812
0.00458023
0.00472295
0.000542395
0.00520557
0.00360942
0.00447823
0.00811488
0.00970244
0.00323905
0.00279641
0.00336213
0.00204414
0.00112836
0.00280739
0.00292501
0.00261829
0.00289227
0.00288208
0.00356608
0.00418198
0.00428657
0.00434313
0.000599611
0.00515301
0.00364755
0.00440499
0.00795774
0.00949636
0.00332333
0.00270503
0.00340385
0.00213103
0.00105014
0.00275233
0.00292196
0.00252646
0.00285125
0.0028114
0.00342113
0.00403346
0.00399979
0.00395191
0.000659327
0.00509605
0.00368376
0.0043314
0.00779702
0.00928776
0.00340392
0.00261548
0.00343545
0.0022194
0.000974099
0.00269139
0.00292129
0.00242746
0.00280334
0.00274407
0.00325494
0.00387749
0.00372843
0.00355021
0.00072145
0.00503473
0.00371753
0.00425767
0.00763248
0.0090771
0.00348036
0.00252803
0.00345623
0.00230914
0.000900723
0.00262329
0.00292419
0.00232183
0.00274472
0.00268357
0.00306899
0.00370724
0.00348023
0.00314375
0.000785833
0.00496917
0.00374832
0.00418403
0.00746386
0.00886479
0.00355223
0.00244289
0.0034656
0.00239998
0.000830828
0.00254645
0.00293143
0.00221112
0.00267088
0.00263253
0.00286754
0.00351415
0.00325942
0.00274426
0.000852276
0.00489956
0.0037756
0.00411071
0.00729094
0.00865121
0.00361916
0.00236023
0.00346295
0.00249147
0.000765468
0.00245908
0.00294326
0.00209781
0.00257729
0.00259185
0.00265781
0.00328935
0.00306303
0.00236715
0.000920532
0.00482622
0.0037988
0.004038
0.00711355
0.00843663
0.00368085
0.0022801
0.00344784
0.00258302
0.000705725
0.00235947
0.00295928
0.00198499
0.00245972
0.00255995
0.00244968
0.00302707
0.00288095
0.00203087
0.000990311
0.0047495
0.00381729
0.00396618
0.00693158
0.00822124
0.00373706
0.00220242
0.0034199
0.00267373
0.000652891
0.00224623
0.00297796
0.00187671
0.00231525
0.00253212
0.0022541
0.002727
0.00269735
0.00175203
0.00106124
0.00466985
0.00383044
0.00389547
0.00674507
0.00800506
0.00378763
0.00212707
0.00337876
0.0027627
0.000608315
0.0021181
0.00299688
0.00177793
0.00214238
0.00250063
0.00208186
0.0023955
0.00249227
0.00153679
0.0011329
0.0045878
0.00383761
0.00382605
0.00655427
0.007788
0.00383247
0.00205397
0.00332404
0.00284889
0.00057344
0.00197406
0.00301294
0.00169337
0.00194091
0.00245614
0.00194193
0.00204473
0.00224539
0.00137386
0.00120479
0.0045039
0.00383822
0.00375813
0.00635933
0.00756979
0.00387164
0.00198326
0.00325537
0.00293088
0.000549712
0.00181375
0.00302232
0.00162739
0.00171293
0.00238815
0.00183867
0.00169152
0.00194371
0.00123951
0.00127638
0.00441871
0.00383181
0.00369183
0.00616055
0.00735
0.00390537
0.00191522
0.00317246
0.00300701
0.000538281
0.0016372
0.00302048
0.00158425
0.00146345
0.00228565
0.00176977
0.0013558
0.00158764
0.00110074
0.00134703
0.00433283
0.003818
0.00362703
0.00595861
0.00712807
0.0039336
0.00185045
0.00307506
0.00307544
0.000540451
0.00144558
0.00300179
0.00156638
0.00119973
0.00213932
0.0017271
0.0010568
0.00118958
0.000922654
0.00141608
0.00424687
0.00379651
0.00356343
0.00575457
0.00690336
0.00395586
0.00178959
0.00296333
0.00313392
0.000557166
0.0012413
0.00296039
0.00157406
0.000930375
0.00194241
0.00169919
0.000809488
0.000768958
0.000680658
0.00148287
0.00416132
0.00376746
0.00350053
0.0055496
0.00667539
0.00397147
0.00173324
0.00283785
0.00318037
0.000588612
0.00102709
0.00289023
0.00160591
0.000665794
0.0016911
0.00167131
0.000622597
0.00034839
0.000369928
0.00154665
0.00407669
0.00373107
0.00343731
0.00534498
0.00644401
0.00397941
0.00168212
0.00269907
0.00321236
0.000635528
0.000807001
0.0027845
0.00165739
0.0004185
0.00138512
0.00162709
0.000499437
-5.02061e-05
7.16525e-08
0.00160672
0.00399343
0.00368711
0.00337222
0.00514197
0.00620973
0.00397799
0.00163731
0.00254834
0.00322628
0.000697302
0.000586435
0.00263767
0.00172116
0.000202278
0.00102748
0.00154732
0.000440034
-0.000403516
-0.000410933
0.00166241
0.00391177
0.00363772
0.00330376
0.00494138
0.0059733
0.00396558
0.00159956
0.00238825
0.00321904
0.000771452
0.00037053
0.00244646
0.00178663
3.14901e-05
0.000629796
0.00140889
0.000431983
-0.000686886
-0.000839162
0.00171307
0.0038317
0.00358391
0.00323019
0.00474372
0.00573605
0.00394077
0.00156902
0.0022207
0.0031879
0.000854893
0.000164799
0.00221173
0.00184045
-8.69791e-05
0.000210683
0.00119617
0.0004532
-0.000881552
-0.00125808
0.00175815
0.00375304
0.00352713
0.00315
0.0045486
0.00550009
0.00390228
0.00154527
0.00204836
0.0031301
0.000943908
-2.63993e-05
0.0019368
0.00187187
-0.000153257
-0.00021392
0.000903569
0.000477334
-0.000978102
-0.00163139
0.00179712
0.00367535
0.00346875
0.0030626
0.00435502
0.00526739
0.00384945
0.0015263
0.00187508
0.00304414
0.00103343
-0.000196869
0.00162545
0.00186992
-0.000168654
-0.000626039
0.000526737
0.000469688
-0.000983376
-0.00191593
0.0018297
0.00359789
0.00341048
0.00296747
0.00416175
0.00503926
0.00378319
0.00151009
0.00170316
0.00292959
0.00111661
-0.000340663
0.0012884
0.00182195
-0.000144119
-0.00100035
7.53493e-05
0.00038963
-0.000925997
-0.00209684
0.00185555
0.00352004
0.00335308
0.0028653
0.0039662
0.00481706
0.00370507
0.00149437
0.0015338
0.00278818
0.00118916
-0.000459819
0.000938074
0.00172462
-9.23102e-05
-0.00129556
-0.000405129
0.000231961
-0.000850663
-0.00221717
0.00187451
0.00344074
0.00329731
0.00275738
0.00376614
0.00460103
0.00361683
0.00147615
0.00136882
0.00262169
0.00124545
-0.000551499
0.000583334
0.00157515
-2.26512e-05
-0.00151078
-0.000881867
-2.52746e-05
-0.000822539
-0.00229456
0.00188668
0.00335872
0.00324364
0.00264536
0.00355961
0.00438973
0.00352169
0.00145334
0.00120765
0.00243283
0.00128301
-0.00061477
0.000230944
0.00137507
4.71863e-05
-0.00165513
-0.00133558
-0.000372942
-0.000848441
-0.00234878
0.00189216
0.00327296
0.00319157
0.0025322
0.0033452
0.00418132
0.00342209
0.00142532
0.00104819
0.00222642
0.00130234
-0.000657142
-0.00010776
0.00112882
8.48664e-05
-0.00174471
-0.00178603
-0.000814995
-0.00096407
-0.00230347
0.00189124
0.0031824
0.00314064
0.00242039
0.00312217
0.00397217
0.00332103
0.00139342
0.000888917
0.00200339
0.00129862
-0.000673821
-0.000423859
0.000823576
9.682e-05
-0.0017561
-0.00216841
-0.00131243
-0.00116683
-0.0023365
0.0018844
0.00308599
0.00308933
0.00231343
0.0028914
0.00375716
0.00321846
0.00135955
0.000730372
0.00176265
0.00127077
-0.000663686
-0.000720826
0.000465798
5.32447e-05
-0.00173219
-0.00248746
-0.0018371
-0.00147848
-0.00237692
0.00187219
0.00298313
0.00303505
0.00221434
0.00265449
0.00353104
0.00311381
0.00132707
0.000572031
0.00150701
0.00121538
-0.000638659
-0.00099112
7.62682e-05
-6.33001e-05
-0.00169878
-0.00271863
-0.00234912
-0.00187394
-0.00243159
0.00185496
0.00287342
0.00297513
0.00212537
0.00241482
0.00328967
0.00300436
0.00129714
0.000416728
0.00123848
0.00112589
-0.000604779
-0.00122586
-0.000335693
-0.000250688
-0.00166911
-0.00286847
-0.00280225
-0.00231706
-0.00256058
0.00183366
0.00275691
0.00290674
0.00204753
0.00217611
0.00303057
0.00288496
0.00127177
0.000269456
0.000957751
0.000999012
-0.000571418
-0.00142068
-0.000746031
-0.000499995
-0.0016733
-0.00295718
-0.00316689
-0.00277201
-0.00278736
0.00180863
0.00263391
0.00282708
0.00198006
0.00194401
0.00275388
0.00274909
0.00124845
0.000133616
0.000670454
0.000832768
-0.000550289
-0.00156828
-0.00113871
-0.000806471
-0.00172336
-0.00300101
-0.00344267
-0.00320853
-0.00309599
0.00177971
0.00250552
0.00273438
0.00192134
0.00172403
0.00246165
0.00258882
0.00122307
1.53223e-05
0.000383047
0.000628041
-0.000549887
-0.00167476
-0.00150268
-0.00115009
-0.00182265
-0.00303259
-0.00365091
-0.00359571
-0.00344899
0.00174669
0.00237343
0.00262733
0.00186736
0.00152036
0.00215803
0.00239949
0.00118974
-8.40011e-05
0.00010134
0.00039004
-0.000579796
-0.00175042
-0.00182303
-0.00151255
-0.00197924
-0.00307349
-0.00380395
-0.00391349
-0.00380902
0.0017091
0.00223956
0.00250527
0.00181307
0.00133715
0.00184983
0.00217676
0.00113963
-0.000164795
-0.000166677
0.000125693
-0.000645747
-0.00180447
-0.00209466
-0.00188115
-0.00219013
-0.0031319
-0.00391692
-0.00416853
-0.00414948
0.0016663
0.0021057
0.00236858
0.00175213
0.00117589
0.00154563
0.00192097
0.00106607
-0.000229323
-0.000415022
-0.000157997
-0.00075193
-0.00185125
-0.00231896
-0.00223484
-0.00244257
-0.00322374
-0.00401311
-0.00436978
-0.00444189
0.00161759
0.00197295
0.00221806
0.00167887
0.0010362
0.00125442
0.00163622
0.00096121
-0.000284963
-0.000639007
-0.000451825
-0.000898424
-0.00190329
-0.00250015
-0.00255766
-0.00272088
-0.00335765
-0.00410772
-0.00452954
-0.00467793
0.00156207
0.001842
0.00205616
0.00158877
0.000914113
0.000981784
0.00133185
0.000821519
-0.000339788
-0.000836143
-0.000745324
-0.00108101
-0.00197132
-0.00264933
-0.00284752
-0.00300908
-0.00352552
-0.00421293
-0.00466808
-0.00487001
0.00149891
0.00171267
0.00188589
0.00148033
0.000802124
0.000731056
0.0010208
0.000647623
-0.000402647
-0.00100816
-0.00103103
-0.00129472
-0.0020636
-0.00277573
-0.00310141
-0.00329456
-0.0037167
-0.00433504
-0.00480141
-0.00503295
0.00142736
0.00158458
0.00171026
0.00135386
0.00069249
0.000502948
0.00071315
0.000443179
-0.000481872
-0.00115904
-0.00130209
-0.00153097
-0.00218408
-0.00288885
-0.00331623
-0.00357083
-0.00392911
-0.00447275
-0.00493684
-0.00517996
0.00134678
0.00145695
0.00153235
0.00121087
0.000579383
0.000295823
0.000416515
0.000215056
-0.000584533
-0.00129541
-0.00155159
-0.00177812
-0.00233469
-0.0030052
-0.00349683
-0.00382495
-0.00415648
-0.00462356
-0.00507706
-0.00532311
0.00125671
0.00132868
0.00135451
0.00105412
0.000459224
0.000105812
0.000134935
-2.84686e-05
-0.000712879
-0.00142533
-0.0017779
-0.00202649
-0.0025101
-0.00313493
-0.00365669
-0.00404468
-0.00438467
-0.00478801
-0.0052205
-0.00547383
0.00115712
0.001199
0.0011782
0.000886557
0.000329862
-7.11316e-05
-0.000129986
-0.000280334
-0.000864776
-0.0015559
-0.00198394
-0.00226878
-0.00270092
-0.00327747
-0.00381005
-0.00423646
-0.00460099
-0.00496289
-0.00536263
-0.00563209
0.00104814
0.00106699
0.0010046
0.000711087
0.00019018
-0.000238892
-0.000377139
-0.000534524
-0.00103749
-0.00169197
-0.00217268
-0.00249984
-0.00290191
-0.00343028
-0.00396087
-0.00441172
-0.00480011
-0.00514352
-0.00550161
-0.00578347
0.000930306
0.000931935
0.000834067
0.0005308
4.0369e-05
-0.00040231
-0.000607334
-0.000784608
-0.00122678
-0.00183693
-0.00234762
-0.0027157
-0.00310787
-0.00359494
-0.0041081
-0.00457141
-0.00498224
-0.00532489
-0.00564258
-0.00591984
0.00080443
0.000793326
0.000666395
0.000348295
-0.000118346
-0.000564367
-0.000822501
-0.00102631
-0.00142701
-0.00199272
-0.00251336
-0.00291402
-0.00330943
-0.00377078
-0.00425997
-0.0047173
-0.00514466
-0.00550058
-0.00578995
-0.0060431
0.000671499
0.000650898
0.000501475
0.000165447
-0.000284888
-0.000726594
-0.00102439
-0.00125695
-0.0016319
-0.00215866
-0.00267521
-0.00309752
-0.00349888
-0.00394516
-0.00442236
-0.00486188
-0.00528818
-0.00566469
-0.00594421
-0.00616518
0.000532473
0.000504554
0.000338726
-1.55364e-05
-0.000456894
-0.000891195
-0.00121574
-0.00147491
-0.00183606
-0.00233087
-0.00283464
-0.00327023
-0.00367803
-0.00410714
-0.00458219
-0.0050148
-0.0054209
-0.00581071
-0.00609966
-0.00629817
0.000388855
0.000354466
0.000176978
-0.000193505
-0.000631218
-0.00105783
-0.00139899
-0.001681
-0.002037
-0.0025057
-0.00299036
-0.0034304
-0.00384973
-0.00425887
-0.00472293
-0.00516733
-0.00555388
-0.00593759
-0.00624223
-0.00643573
0.000241703
0.000201675
1.61997e-05
-0.000368008
-0.000806668
-0.00122604
-0.00157419
-0.00187373
-0.00223221
-0.00268187
-0.00314532
-0.00357782
-0.00400791
-0.00440667
-0.00484092
-0.00529909
-0.00568598
-0.00605197
-0.00636688
-0.00656608
9.21666e-05
4.63252e-05
-0.000143839
-0.000537464
-0.000979664
-0.00139528
-0.0017453
-0.00205422
-0.00241604
-0.00285352
-0.00330143
-0.00371836
-0.00414701
-0.00454919
-0.00494922
-0.00539848
-0.00580228
-0.00615343
-0.00646827
-0.00667785
-5.8547e-05
-0.000109682
-0.000304127
-0.0007031
-0.00114822
-0.0015606
-0.00191154
-0.0022276
-0.00258952
-0.00301337
-0.00345277
-0.0038566
-0.00426645
-0.00467338
-0.00505642
-0.00547601
-0.00588999
-0.00623699
-0.00654154
-0.00675813
-0.000209953
-0.000265117
-0.000462575
-0.000863773
-0.00131241
-0.001723
-0.00206931
-0.00239172
-0.0027564
-0.00316201
-0.00359151
-0.00398806
-0.00437127
-0.00477036
-0.00515088
-0.00554094
-0.00594706
-0.00629477
-0.00658629
-0.00680064
-0.000361064
-0.000419357
-0.000619029
-0.00101881
-0.00146744
-0.001879
-0.0022245
-0.00254643
-0.002915
-0.00330485
-0.00371216
-0.00410088
-0.00446158
-0.00483902
-0.0052185
-0.00559449
-0.00598975
-0.00634334
-0.00663015
-0.00683271
-0.000510415
-0.00057027
-0.000771856
-0.00116818
-0.00161298
-0.00202261
-0.00237249
-0.00270466
-0.00307476
-0.00344777
-0.00381487
-0.00415932
-0.00447773
-0.00480637
-0.00515693
-0.00552238
-0.00592126
-0.00632271
-0.00668624
-0.00697738
-0.000657999
-0.00071765
-0.000917638
-0.00130613
-0.00174558
-0.00215091
-0.00250409
-0.00287243
-0.00329127
-0.00370247
-0.00407355
-0.00434925
-0.00457662
-0.00483511
-0.0051133
-0.00536468
-0.00557182
-0.00571952
-0.00581523
-0.00589714
-0.000812019
-0.000863182
-0.00104684
-0.00141854
-0.00184479
-0.00224526
-0.0025887
-0.00292809
-0.00330313
-0.00365207
-0.00399416
-0.00431187
-0.00457958
-0.00485931
-0.00517824
-0.00552361
-0.00591228
-0.00632781
-0.00674028
-0.00709477
-0.00097306
-0.00103623
-0.00117901
-0.00150349
-0.00190001
-0.00228724
-0.0026367
-0.00298929
-0.00337912
-0.00375912
-0.00411971
-0.00445738
-0.0047411
-0.00496495
-0.00518004
-0.00535606
-0.00549265
-0.00560256
-0.00570856
-0.00585476
-0.00109865
-0.00115619
-0.00129389
-0.00160603
-0.00198761
-0.00236673
-0.00271512
-0.00307969
-0.00347131
-0.00384806
-0.00419775
-0.0045006
-0.0047617
-0.00496432
-0.00515145
-0.00533814
-0.00552688
-0.00573068
-0.00595393
-0.00622629
0.0166633
0.00886796
-0.000663748
-0.00774717
-0.0100628
-0.00954312
-0.00888001
-0.00876645
-0.00906371
-0.00957728
-0.0100225
-0.0101667
-0.0100647
-0.0100051
-0.0101759
-0.0104952
-0.0108995
-0.0113074
-0.0114791
-0.011538
-0.0117997
-0.0121592
-0.0124087
-0.0125862
-0.0127812
-0.0130529
-0.0133856
-0.0137352
-0.0140922
-0.0144556
-0.0148202
-0.0151566
-0.0154847
-0.0158361
-0.0162164
-0.0166169
-0.0169668
-0.0173026
-0.0177086
-0.018089
-0.0184403
-0.0188067
-0.0191456
-0.0195646
-0.0201448
-0.0207184
-0.0212861
-0.0218382
-0.0221969
-0.022463
-0.0228572
-0.0233222
-0.0237586
-0.0242408
-0.0247932
-0.0253391
-0.0258693
-0.0263634
-0.026852
-0.0274152
-0.0280141
-0.0285869
-0.0291611
-0.0297808
-0.0303629
-0.0309141
-0.0315294
-0.0321654
-0.0328236
-0.0334541
-0.0340882
-0.0347485
-0.035417
-0.0360871
-0.0367272
-0.0373823
-0.0381138
-0.0389447
-0.0396945
-0.0404666
-0.0412082
-0.041896
-0.0426427
-0.0434706
-0.0444008
-0.0452995
-0.0460841
-0.0468671
-0.047779
-0.0487239
-0.0496304
-0.0505323
-0.0515098
-0.0524758
-0.0534475
-0.0544328
-0.0554246
-0.0564198
-0.0573915
-0.058384
0.0157715
0.00870655
-0.000583795
-0.00759001
-0.00996293
-0.00949368
-0.00884883
-0.0087457
-0.00904964
-0.00956764
-0.0100158
-0.0101618
-0.0100602
-0.0100003
-0.0101711
-0.0104906
-0.0108954
-0.0113043
-0.0114765
-0.0115351
-0.0117969
-0.012157
-0.0124068
-0.0125844
-0.0127795
-0.0130512
-0.013384
-0.0137337
-0.0140908
-0.0144543
-0.0148189
-0.0151555
-0.0154835
-0.0158349
-0.0162152
-0.0166158
-0.0169658
-0.0173016
-0.0177076
-0.0180882
-0.0184395
-0.0188059
-0.0191449
-0.0195638
-0.0201441
-0.0207178
-0.0212855
-0.0218378
-0.0221965
-0.0224625
-0.0228567
-0.0233218
-0.0237582
-0.0242404
-0.0247928
-0.0253387
-0.0258689
-0.0263631
-0.0268517
-0.0274148
-0.0280138
-0.0285866
-0.0291608
-0.0297805
-0.0303627
-0.0309138
-0.0315292
-0.0321652
-0.0328234
-0.0334539
-0.034088
-0.0347483
-0.0354168
-0.0360869
-0.036727
-0.0373821
-0.0381136
-0.0389445
-0.0396943
-0.0404665
-0.0412081
-0.0418959
-0.0426426
-0.0434705
-0.0444006
-0.0452994
-0.046084
-0.046867
-0.0477789
-0.0487238
-0.0496303
-0.0505322
-0.0515097
-0.0524757
-0.0534474
-0.0544327
-0.0554245
-0.0564197
-0.0573913
-0.0583839
0.0150235
0.00855944
-0.000425178
-0.00730909
-0.00979854
-0.00943822
-0.00882321
-0.00872373
-0.00903023
-0.00955191
-0.0100041
-0.0101537
-0.0100549
-0.0099964
-0.0101677
-0.0104869
-0.0108916
-0.0113013
-0.0114739
-0.0115325
-0.0117945
-0.012155
-0.0124049
-0.0125827
-0.0127779
-0.0130497
-0.0133827
-0.0137325
-0.0140898
-0.0144532
-0.014818
-0.0151545
-0.0154825
-0.015834
-0.0162143
-0.0166149
-0.016965
-0.0173007
-0.0177068
-0.0180875
-0.0184388
-0.0188053
-0.0191442
-0.0195631
-0.0201435
-0.0207173
-0.0212851
-0.0218375
-0.0221962
-0.022462
-0.0228563
-0.0233215
-0.0237579
-0.02424
-0.0247925
-0.0253385
-0.0258687
-0.0263629
-0.0268514
-0.0274146
-0.0280136
-0.0285864
-0.0291606
-0.0297803
-0.0303625
-0.0309136
-0.031529
-0.032165
-0.0328232
-0.0334537
-0.0340878
-0.0347481
-0.0354167
-0.0360868
-0.0367269
-0.0373819
-0.0381134
-0.0389444
-0.0396942
-0.0404663
-0.041208
-0.0418958
-0.0426425
-0.0434703
-0.0444005
-0.0452993
-0.0460839
-0.0468669
-0.0477787
-0.0487237
-0.0496302
-0.0505321
-0.0515096
-0.0524757
-0.0534473
-0.0544326
-0.0554244
-0.0564196
-0.0573913
-0.0583838
0.0143015
0.00838814
-0.000241239
-0.00696451
-0.00957382
-0.00935868
-0.00878447
-0.0086894
-0.00899982
-0.00952587
-0.00998172
-0.0101368
-0.0100448
-0.00999164
-0.0101649
-0.0104833
-0.0108863
-0.011296
-0.0114701
-0.0115297
-0.0117921
-0.0121524
-0.0124023
-0.0125804
-0.0127759
-0.0130478
-0.0133809
-0.0137311
-0.0140886
-0.0144522
-0.014817
-0.0151535
-0.0154815
-0.0158331
-0.0162134
-0.016614
-0.0169642
-0.0172998
-0.017706
-0.0180867
-0.018438
-0.0188046
-0.0191434
-0.0195622
-0.0201428
-0.0207167
-0.0212846
-0.0218374
-0.0221959
-0.0224614
-0.0228558
-0.0233211
-0.0237575
-0.0242396
-0.0247922
-0.0253382
-0.0258684
-0.0263626
-0.0268511
-0.0274143
-0.0280133
-0.0285862
-0.0291604
-0.0297801
-0.0303624
-0.0309134
-0.0315288
-0.0321648
-0.0328231
-0.0334535
-0.0340876
-0.0347479
-0.0354165
-0.0360867
-0.0367267
-0.0373817
-0.0381132
-0.0389443
-0.0396941
-0.0404662
-0.0412079
-0.0418956
-0.0426423
-0.0434702
-0.0444004
-0.0452993
-0.0460838
-0.0468667
-0.0477786
-0.0487236
-0.0496302
-0.050532
-0.0515095
-0.0524756
-0.0534472
-0.0544325
-0.0554243
-0.0564196
-0.0573912
-0.0583839
0.0135804
0.00818981
-5.19878e-05
-0.00660307
-0.00932658
-0.00926753
-0.00873957
-0.00864681
-0.0089598
-0.00948927
-0.00994748
-0.0101088
-0.0100277
-0.00998446
-0.0101624
-0.0104797
-0.010879
-0.0112872
-0.0114638
-0.0115265
-0.0117895
-0.0121489
-0.0123986
-0.0125776
-0.0127736
-0.0130452
-0.0133784
-0.0137292
-0.0140873
-0.014451
-0.0148158
-0.0151523
-0.0154805
-0.0158323
-0.0162124
-0.016613
-0.0169632
-0.0172989
-0.0177052
-0.0180858
-0.018437
-0.0188036
-0.0191425
-0.0195611
-0.0201419
-0.020716
-0.0212842
-0.0218372
-0.0221954
-0.0224607
-0.0228552
-0.0233207
-0.023757
-0.024239
-0.0247918
-0.0253379
-0.0258681
-0.0263623
-0.0268507
-0.0274139
-0.0280131
-0.0285859
-0.0291601
-0.0297799
-0.0303622
-0.0309131
-0.0315285
-0.0321646
-0.0328229
-0.0334534
-0.0340875
-0.0347477
-0.0354163
-0.0360865
-0.0367266
-0.0373815
-0.038113
-0.0389442
-0.039694
-0.0404661
-0.0412078
-0.0418955
-0.0426421
-0.04347
-0.0444003
-0.0452992
-0.0460837
-0.0468666
-0.0477785
-0.0487236
-0.0496301
-0.0505319
-0.0515094
-0.0524755
-0.0534471
-0.0544325
-0.0554242
-0.0564196
-0.0573913
-0.058384
0.0128616
0.00797348
0.000132759
-0.00624313
-0.00907077
-0.00917177
-0.00869462
-0.00860167
-0.00891479
-0.00944657
-0.00990552
-0.0100726
-0.0100045
-0.00997437
-0.0101592
-0.0104757
-0.0108694
-0.0112746
-0.0114546
-0.0115225
-0.0117865
-0.0121443
-0.0123938
-0.0125744
-0.0127713
-0.0130423
-0.0133749
-0.0137263
-0.0140856
-0.0144496
-0.0148143
-0.0151508
-0.0154793
-0.0158315
-0.0162114
-0.0166118
-0.0169622
-0.0172982
-0.0177043
-0.0180848
-0.0184359
-0.0188025
-0.0191413
-0.0195599
-0.0201407
-0.0207151
-0.0212836
-0.021837
-0.0221949
-0.0224598
-0.0228546
-0.0233202
-0.0237564
-0.0242384
-0.0247913
-0.0253375
-0.0258677
-0.026362
-0.0268503
-0.0274135
-0.0280127
-0.0285856
-0.0291598
-0.0297797
-0.030362
-0.0309129
-0.0315283
-0.0321644
-0.0328227
-0.0334532
-0.0340872
-0.0347476
-0.0354162
-0.0360864
-0.0367265
-0.0373812
-0.0381127
-0.0389441
-0.0396938
-0.0404659
-0.0412077
-0.0418953
-0.0426419
-0.0434698
-0.0444002
-0.0452992
-0.0460836
-0.0468664
-0.0477783
-0.0487235
-0.04963
-0.0505318
-0.0515093
-0.0524755
-0.0534471
-0.0544324
-0.0554242
-0.0564196
-0.0573914
-0.0583843
0.0121558
0.00774071
0.000304353
-0.00589065
-0.008808
-0.00907094
-0.00865022
-0.00855572
-0.00886658
-0.0094002
-0.00985951
-0.010032
-0.00997743
-0.00996198
-0.0101549
-0.0104709
-0.010858
-0.0112588
-0.0114431
-0.0115176
-0.0117828
-0.0121383
-0.0123878
-0.0125712
-0.0127696
-0.0130395
-0.0133708
-0.0137228
-0.0140832
-0.0144478
-0.0148123
-0.0151489
-0.015478
-0.0158306
-0.0162102
-0.0166101
-0.016961
-0.0172975
-0.0177036
-0.0180838
-0.0184347
-0.0188012
-0.0191401
-0.0195584
-0.020139
-0.0207137
-0.0212829
-0.0218366
-0.022194
-0.0224588
-0.0228539
-0.0233197
-0.0237557
-0.0242378
-0.0247908
-0.025337
-0.0258673
-0.0263615
-0.0268498
-0.027413
-0.0280123
-0.0285852
-0.0291595
-0.0297795
-0.0303617
-0.0309125
-0.031528
-0.0321642
-0.0328225
-0.033453
-0.034087
-0.0347473
-0.035416
-0.0360863
-0.0367263
-0.0373809
-0.0381124
-0.038944
-0.0396937
-0.0404657
-0.0412076
-0.0418951
-0.0426417
-0.0434696
-0.0444
-0.0452991
-0.0460835
-0.0468662
-0.0477782
-0.0487234
-0.0496299
-0.0505316
-0.0515092
-0.0524754
-0.053447
-0.0544324
-0.0554241
-0.0564197
-0.0573916
-0.0583846
0.0114645
0.00748794
0.000457563
-0.00554716
-0.008537
-0.00896231
-0.0086052
-0.00850924
-0.00881566
-0.00935087
-0.00981088
-0.0099887
-0.0099481
-0.00994787
-0.0101494
-0.0104652
-0.0108453
-0.0112412
-0.0114298
-0.0115118
-0.0117782
-0.0121311
-0.0123808
-0.0125677
-0.0127686
-0.0130375
-0.0133669
-0.013719
-0.0140805
-0.0144454
-0.0148098
-0.0151465
-0.0154764
-0.0158297
-0.0162085
-0.0166076
-0.0169593
-0.0172966
-0.0177027
-0.0180828
-0.0184335
-0.0187999
-0.019139
-0.0195569
-0.0201369
-0.0207119
-0.0212818
-0.0218357
-0.0221928
-0.0224577
-0.0228533
-0.0233191
-0.0237549
-0.024237
-0.0247901
-0.0253364
-0.0258667
-0.0263609
-0.0268493
-0.0274124
-0.0280116
-0.0285847
-0.0291591
-0.0297791
-0.0303614
-0.0309122
-0.0315277
-0.0321639
-0.0328223
-0.0334528
-0.0340868
-0.0347471
-0.0354158
-0.0360861
-0.0367261
-0.0373806
-0.0381121
-0.038944
-0.0396936
-0.0404655
-0.0412075
-0.0418949
-0.0426414
-0.0434694
-0.0443999
-0.0452991
-0.0460833
-0.046866
-0.047778
-0.0487233
-0.0496298
-0.0505315
-0.0515091
-0.0524753
-0.0534469
-0.0544323
-0.0554239
-0.0564198
-0.0573921
-0.0583851
0.0107882
0.00721424
0.000590556
-0.00521332
-0.00825719
-0.00884364
-0.00855838
-0.00846249
-0.00876242
-0.00929885
-0.00976005
-0.00994354
-0.00991712
-0.0099325
-0.010143
-0.0104587
-0.0108317
-0.0112223
-0.0114154
-0.0115052
-0.011773
-0.012123
-0.0123729
-0.0125639
-0.0127679
-0.0130361
-0.0133636
-0.0137154
-0.0140776
-0.0144425
-0.0148067
-0.0151437
-0.0154748
-0.0158288
-0.0162064
-0.0166044
-0.0169569
-0.0172954
-0.0177015
-0.0180816
-0.0184324
-0.0187988
-0.0191383
-0.0195558
-0.0201348
-0.0207098
-0.0212804
-0.0218343
-0.0221908
-0.0224562
-0.0228526
-0.0233184
-0.0237541
-0.0242361
-0.0247893
-0.0253356
-0.0258659
-0.0263603
-0.0268487
-0.0274116
-0.0280108
-0.0285841
-0.0291586
-0.0297786
-0.0303609
-0.0309117
-0.0315272
-0.0321635
-0.032822
-0.0334525
-0.0340865
-0.0347469
-0.0354156
-0.036086
-0.036726
-0.0373801
-0.0381117
-0.0389439
-0.0396935
-0.0404653
-0.0412073
-0.0418946
-0.0426412
-0.0434692
-0.0443998
-0.045299
-0.0460832
-0.0468657
-0.0477778
-0.0487232
-0.0496296
-0.0505313
-0.051509
-0.0524752
-0.0534468
-0.0544323
-0.0554238
-0.05642
-0.0573927
-0.0583858
0.0101286
0.0069205
0.000702521
-0.0048903
-0.00796907
-0.00871338
-0.00850904
-0.00841631
-0.00870777
-0.00924447
-0.00970728
-0.00989678
-0.00988483
-0.00991626
-0.010136
-0.0104518
-0.0108175
-0.0112025
-0.0114
-0.0114978
-0.0117672
-0.0121142
-0.0123643
-0.0125598
-0.0127675
-0.0130352
-0.0133607
-0.0137124
-0.014075
-0.0144394
-0.014803
-0.0151405
-0.0154731
-0.0158281
-0.0162042
-0.0166004
-0.0169538
-0.0172937
-0.0176998
-0.0180801
-0.0184313
-0.0187979
-0.0191382
-0.0195554
-0.0201329
-0.0207078
-0.021279
-0.0218323
-0.022188
-0.0224541
-0.0228517
-0.0233178
-0.0237535
-0.0242354
-0.0247884
-0.0253347
-0.025865
-0.0263596
-0.0268482
-0.0274108
-0.0280097
-0.0285832
-0.029158
-0.029778
-0.0303602
-0.0309111
-0.0315267
-0.032163
-0.0328216
-0.0334522
-0.0340862
-0.0347466
-0.0354154
-0.0360859
-0.0367258
-0.0373796
-0.0381112
-0.0389439
-0.0396935
-0.0404651
-0.0412071
-0.0418943
-0.0426409
-0.0434689
-0.0443996
-0.0452989
-0.046083
-0.0468655
-0.0477775
-0.048723
-0.0496295
-0.0505311
-0.0515089
-0.0524751
-0.0534467
-0.0544323
-0.0554237
-0.0564203
-0.0573936