/*--------------------------------*- C++ -*----------------------------------*\
| =========                 |                                                 |
| \\      /  F ield         | OpenFOAM: The Open Source CFD Toolbox           |
|  \\    /   O peration     | Version:  v1912                                 |
|   \\  /    A nd           | Website:  www.openfoam.com                      |
|    \\/     M anipulation  |                                                 |
\*---------------------------------------------------------------------------*/
FoamFile
{
    version     2.0;
    format      ascii;
    class       volScalarField;
    location    "3.65";
    object      p;
}
// * * * * * * * * * * * * * * * * * * * * * * * * * * * * * * * * * * * * * //

dimensions      [0 2 -2 0 0 0 0];


internalField   nonuniform List<scalar> 
9600
(
-9.08118e-10
-0.00179113
-0.00570848
-0.000908929
0.00236906
0.0007686
0.00250013
0.00422262
0.00209632
0.00476531
0.00433359
0.00752758
0.0105401
0.0136884
0.0167498
0.0199177
0.0243786
0.0265986
0.0346632
0.0400295
-3.25866e-05
-0.00178714
-0.00569551
-0.00089728
0.00234628
0.000763501
0.00250238
0.00421517
0.00211985
0.00476228
0.00435311
0.00755257
0.0105194
0.0136869
0.0167399
0.0199118
0.0243755
0.0265399
0.0347224
0.0394592
-5.45612e-05
-0.00178156
-0.00567946
-0.000891682
0.002308
0.000785262
0.00250928
0.00420471
0.0021558
0.00475091
0.00438967
0.00757992
0.0104825
0.013693
0.0167235
0.019916
0.0243439
0.0264955
0.0346628
0.0387507
-7.95632e-05
-0.00177512
-0.00565638
-0.000890651
0.00227234
0.000829243
0.00252083
0.00419081
0.0022063
0.00473308
0.00444123
0.0075991
0.0104406
0.0137004
0.0167135
0.0199141
0.0243107
0.0264485
0.0345024
0.0381463
-0.000108208
-0.00176635
-0.00562341
-0.000889091
0.00223994
0.000889143
0.00253788
0.00417483
0.00226741
0.00471063
0.00450352
0.00761233
0.0103947
0.0137066
0.0167115
0.0199097
0.0242819
0.0263853
0.0343129
0.037548
-0.000139715
-0.00175418
-0.00557952
-0.000888118
0.002209
0.000960375
0.00256096
0.00415766
0.00233417
0.00468591
0.00457183
0.00762012
0.0103459
0.0137133
0.0167207
0.0199044
0.0242488
0.0263182
0.0340748
0.0369763
-0.000172617
-0.00173832
-0.00552495
-0.000886816
0.00217992
0.00105416
0.00258957
0.00413918
0.00240292
0.0046589
0.00466167
0.00762311
0.0102962
0.0137194
0.0167424
0.0198952
0.0242098
0.0262428
0.0337885
0.0364216
-0.000205439
-0.00171923
-0.00545936
-0.000881529
0.00215259
0.00113427
0.00262243
0.00411949
0.00247209
0.00462833
0.00471889
0.00762131
0.0102461
0.0137225
0.0167612
0.0198805
0.0241599
0.026157
0.0334533
0.0358759
-0.000237281
-0.00169773
-0.00538136
-0.000868896
0.00212577
0.00121356
0.00265762
0.00409878
0.00254165
0.00459412
0.00476896
0.00761396
0.0101957
0.0137199
0.0167793
0.0198586
0.0240941
0.0260574
0.0330714
0.0353311
-0.00026791
-0.00167444
-0.00528957
-0.000847324
0.00209827
0.00128925
0.00269296
0.00407733
0.00261231
0.00455798
0.00481424
0.00760179
0.0101454
0.0137093
0.0167923
0.0198277
0.0240079
0.025941
0.0326463
0.0347804
-0.000297524
-0.00164966
-0.00518382
-0.000816922
0.00206927
0.00135885
0.00272675
0.00405522
0.0026847
0.00452292
0.00486001
0.00758789
0.010096
0.0136893
0.0167947
0.0197856
0.0238984
0.0258053
0.0321809
0.0342183
-0.000326486
-0.00162337
-0.00506552
-0.000779288
0.00203825
0.00142083
0.00275798
0.00403264
0.00275901
0.00449244
0.00491262
0.00757694
0.0100492
0.0136597
0.0167821
0.0197304
0.023764
0.0256483
0.031679
0.0336406
-0.000355123
-0.00159539
-0.00493706
-0.000736725
0.00200513
0.00147474
0.00278622
0.00400966
0.00283508
0.00446927
0.00497762
0.00757471
0.0100073
0.0136219
0.0167519
0.0196606
0.0236045
0.0254681
0.0311446
0.0330451
-0.000383674
-0.00156558
-0.00480099
-0.000691176
0.00197021
0.00152072
0.00281156
0.00398623
0.00291248
0.00445468
0.00505847
0.00758626
0.00997273
0.013578
0.0167038
0.0195761
0.0234215
0.0252632
0.0305822
0.032431
-0.00041229
-0.00153389
-0.00465933
-0.000643851
0.00193393
0.0015593
0.00283448
0.00396234
0.00299071
0.00444878
0.00515584
0.00761402
0.00994642
0.0135297
0.016639
0.0194771
0.0232181
0.0250329
0.0299944
0.0317986
-0.000441036
-0.00150039
-0.00451339
-0.000595405
0.00189696
0.00159112
0.00285558
0.00393812
0.00306939
0.00445099
0.00526758
0.00765736
0.00992723
0.0134783
0.0165601
0.0193637
0.0229976
0.024777
0.0293833
0.0311481
-0.000469895
-0.00146518
-0.00436405
-0.000546115
0.00186012
0.00161689
0.00287543
0.00391382
0.00314807
0.00446019
0.0053895
0.00771345
0.00991254
0.0134241
0.0164701
0.0192358
0.0227626
0.0244961
0.028751
0.0304805
-0.000498806
-0.00142844
-0.00421195
-0.000496066
0.00182419
0.00163726
0.00289439
0.00388974
0.00322631
0.00447507
0.00551634
0.00777839
0.0098993
0.0133665
0.0163715
0.0190931
0.0225148
0.0241914
0.0280992
0.0297977
-0.000527678
-0.00139035
-0.00405768
-0.000445348
0.00178984
0.00165288
0.00291269
0.00386613
0.00330366
0.00449472
0.00564307
0.00784834
0.00988447
0.0133043
0.0162669
0.018935
0.0222542
0.023865
0.0274286
0.0291007
-0.000556366
-0.00135115
-0.00390173
-0.000394077
0.00175765
0.00166432
0.00293048
0.00384331
0.00337947
0.0045186
0.00576595
0.00792009
0.00986566
0.0132362
0.0161578
0.0187605
0.0219798
0.0235196
0.02674
0.0283896
-0.00058468
-0.00131107
-0.00374447
-0.000342369
0.00172807
0.00167191
0.00294759
0.00382172
0.0034531
0.00454649
0.00588258
0.00799133
0.00984164
0.0131604
0.0160454
0.0185698
0.0216897
0.0231578
0.0260346
0.0276636
-0.00061241
-0.00127031
-0.00358618
-0.000290395
0.00170148
0.00166947
0.00296357
0.00380173
0.00352387
0.00457844
0.00599171
0.00806062
0.00981227
0.0130751
0.0159297
0.0183632
0.021381
0.0227817
0.0253154
0.0269213
-0.000639322
-0.00122908
-0.00342697
-0.000238387
0.00167819
0.00166971
0.00297777
0.00378373
0.00359097
0.00461434
0.00609285
0.00812719
0.00977801
0.0129786
0.0158103
0.0181412
0.021051
0.0223933
0.0245861
0.0261602
-0.000665151
-0.00118759
-0.00326698
-0.000186529
0.00165842
0.00166662
0.00298947
0.00376817
0.00365381
0.00465381
0.00618608
0.00819039
0.0097395
0.0128695
0.0156858
0.0179051
0.0206974
0.0219935
0.0238513
0.0253782
-0.000689639
-0.00114606
-0.00310624
-0.000134978
0.00164225
0.00166055
0.00299789
0.00375535
0.00371209
0.0046964
0.00627178
0.00824902
0.00969752
0.012747
0.0155543
0.0176568
0.0203185
0.0215825
0.0231164
0.0245735
-0.000712497
-0.00110476
-0.00294484
-8.39173e-05
0.00162971
0.00165204
0.00300235
0.00374537
0.00376559
0.00474153
0.00635026
0.00830182
0.00965269
0.0126105
0.0154142
0.0173972
0.0199125
0.0211588
0.0223885
0.0237455
-0.0007334
-0.00106391
-0.00278288
-3.34636e-05
0.00162078
0.00164193
0.00300234
0.00373819
0.00381424
0.00478828
0.00642195
0.00834786
0.0096052
0.0124596
0.0152634
0.0171229
0.0194794
0.0207195
0.0216744
0.0228962
-0.000752019
-0.00102377
-0.00262044
1.63924e-05
0.00161533
0.00163101
0.00299744
0.00373361
0.00385809
0.00483544
0.00648752
0.00838618
0.00955489
0.0122942
0.0150991
0.0168371
0.0190206
0.0202606
0.0209808
0.0220312
-0.000768014
-0.000984657
-0.00245763
6.57804e-05
0.00161312
0.00162002
0.00298732
0.00373122
0.0038974
0.00488174
0.00654734
0.00841577
0.00950127
0.0121148
0.0149192
0.0165535
0.0185382
0.0197775
0.0203121
0.0211599
-0.000781004
-0.000946812
-0.00229474
0.000114883
0.00161374
0.0016097
0.00297191
0.0037304
0.0039326
0.00492594
0.00660147
0.00843594
0.00944332
0.0119216
0.0147218
0.016267
0.018036
0.0192652
0.0196686
0.0202939
-0.000790602
-0.000910379
-0.00213219
0.000163867
0.00161672
0.00160076
0.00295134
0.00373036
0.0039642
0.0049666
0.00664964
0.00844372
0.00937984
0.0117152
0.0145048
0.0159784
0.0175194
0.0187204
0.0190455
0.0194474
-0.000796436
-0.000875539
-0.0019705
0.000212933
0.00162152
0.00159401
0.00292585
0.00373003
0.00399259
0.00500255
0.00669119
0.00844434
0.00930989
0.0114964
0.0142667
0.0156867
0.0169946
0.0181427
0.0184349
0.0186327
-0.000798145
-0.000842435
-0.00181043
0.000262317
0.00162758
0.00159012
0.00289592
0.00372835
0.00401797
0.00503282
0.00672514
0.00843511
0.00923235
0.0112652
0.0140066
0.0153901
0.0164671
0.0175349
0.017828
0.0178571
-0.000795385
-0.000811011
-0.00165294
0.00031218
0.00163443
0.00158957
0.00286214
0.00372437
0.0040407
0.00505641
0.0067502
0.00841615
0.0091462
0.0110212
0.0137238
0.0150876
0.0159421
0.0169008
0.0172167
0.0171234
-0.000787869
-0.000781118
-0.0014992
0.000362668
0.00164181
0.00159268
0.00282513
0.00371701
0.00406106
0.00507289
0.0067648
0.00838726
0.00905103
0.0107641
0.013417
0.0147793
0.0154248
0.0162448
0.0165929
0.016429
-0.00077535
-0.000752503
-0.0013504
0.000413893
0.00164957
0.00159945
0.00278574
0.00370562
0.00407877
0.0050822
0.0067674
0.00834766
0.0089467
0.0104939
0.0130848
0.0144633
0.0149202
0.015574
0.0159496
0.0157664
-0.000757631
-0.000724765
-0.00120776
0.000465715
0.00165795
0.00160962
0.00274429
0.00368995
0.0040936
0.00508401
0.0067567
0.00829687
0.00883359
0.0102107
0.0127264
0.0141362
0.0144323
0.0148964
0.0152838
0.0151276
-0.000734594
-0.000697298
-0.00107229
0.00051781
0.00166722
0.00162322
0.00270118
0.00366907
0.00410559
0.00507837
0.00673088
0.00823406
0.00871196
0.00991502
0.0123406
0.0137949
0.0139636
0.0142178
0.0145929
0.0145042
-0.000706129
-0.000669575
-0.000944975
0.000570157
0.00167756
0.00163958
0.0026573
0.00364257
0.004114
0.00506578
0.00668853
0.00815708
0.0085836
0.00960839
0.0119273
0.0134369
0.0135183
0.0135481
0.013876
0.013881
-0.000672285
-0.000640887
-0.000826626
0.000621992
0.0016897
0.00165895
0.00261256
0.00361014
0.00411802
0.00504626
0.00663019
0.00806342
0.00844838
0.00929341
0.0114837
0.0130589
0.0130973
0.0129025
0.0131434
0.0132467
-0.000633338
-0.000610596
-0.000717472
0.000672385
0.00170331
0.00168143
0.00256797
0.00357103
0.004117
0.00501993
0.00655589
0.00795166
0.00830384
0.00897589
0.0110104
0.0126465
0.0126911
0.0122928
0.0124085
0.0126093
-0.00058948
-0.000577969
-0.000618042
0.000721963
0.00171892
0.00170641
0.00252378
0.00352535
0.00410992
0.00498722
0.00646536
0.00782076
0.00814907
0.00865715
0.0105128
0.0121895
0.0122887
0.0117165
0.0116789
0.0119737
-0.000541205
-0.000542101
-0.000528044
0.000766683
0.00173658
0.00173423
0.00248018
0.00347311
0.00409579
0.0049479
0.00635977
0.00766891
0.00798305
0.00834164
0.00999495
0.0116885
0.0118741
0.0111733
0.0109586
0.0113407
-0.000489213
-0.000502476
-0.000446635
0.000806816
0.00175556
0.00176405
0.00243817
0.00341469
0.00407352
0.00490151
0.00623974
0.00749645
0.00780255
0.00803459
0.00947522
0.0111462
0.0114361
0.0106689
0.010264
0.0106514
-0.000434298
-0.00045817
-0.000373046
0.000840709
0.00177607
0.00179622
0.00239688
0.00335061
0.0040426
0.00484746
0.00610603
0.0073035
0.00760706
0.00773565
0.00897011
0.0105949
0.0109932
0.0102003
0.00958141
0.00984808
-0.000377373
-0.000408744
-0.000305496
0.000867006
0.00179659
0.00183073
0.00235701
0.0032807
0.00400242
0.00478577
0.00595964
0.00708907
0.00739523
0.0074451
0.0084776
0.0100333
0.0105511
0.0097703
0.00891105
0.00893374
-0.00031919
-0.000353729
-0.00024264
0.000884358
0.00181651
0.00186789
0.00231789
0.00320464
0.00395336
0.00471615
0.00580074
0.00685621
0.00716558
0.00715668
0.00799989
0.00943338
0.0100226
0.00930716
0.00829144
0.00812269
-0.000260916
-0.000292894
-0.000182335
0.000891747
0.00183393
0.00190781
0.00227941
0.00312217
0.00389574
0.0046391
0.00563079
0.00660375
0.00691669
0.00687034
0.00752843
0.00881205
0.0094612
0.00883391
0.00775839
0.00739533
-0.000203002
-0.000226601
-0.000122977
0.000889161
0.00184637
0.00195024
0.00224275
0.00303163
0.00382833
0.00455676
0.00545146
0.0063312
0.00664736
0.00658141
0.00706494
0.0081832
0.00885692
0.00833941
0.00728011
0.00675602
-0.000145857
-0.0001558
-6.29259e-05
0.000877311
0.00185125
0.00199439
0.0022087
0.00293232
0.00374922
0.00446977
0.00526553
0.00603988
0.00635249
0.00628497
0.0066177
0.00754769
0.00821499
0.00783598
0.00681913
0.00617052
-9.02277e-05
-8.1419e-05
-5.32102e-07
0.000857455
0.00184533
0.00203887
0.00217911
0.0028233
0.00365528
0.00437627
0.00507617
0.00573463
0.00603071
0.0059767
0.00618461
0.00692358
0.00755578
0.00730464
0.0063558
0.00563806
-3.57833e-05
-4.87621e-06
6.4969e-05
0.000832042
0.00182621
0.0020806
0.00215542
0.00270495
0.00354224
0.00427362
0.00488783
0.00542174
0.00568226
0.00564846
0.00576669
0.00632609
0.0068845
0.00673953
0.00590195
0.00515303
1.71755e-05
7.21738e-05
0.000134691
0.000803462
0.00179136
0.00211593
0.00213954
0.00257952
0.00340523
0.00415793
0.00470344
0.00510754
0.00531111
0.00529723
0.00535875
0.00575873
0.00622151
0.006153
0.00543649
0.00468739
6.88138e-05
0.000148302
0.000208538
0.000774343
0.00174039
0.00214099
0.002131
0.00244996
0.0032429
0.00402415
0.00452267
0.00480021
0.00492559
0.00491864
0.00495167
0.0052242
0.00558397
0.00555308
0.00494322
0.0042324
0.000119365
0.000221978
0.000285851
0.000747799
0.00167363
0.0021506
0.00212813
0.0023217
0.00305606
0.0038648
0.00434287
0.0045069
0.00453304
0.00451369
0.00453946
0.00471905
0.00497469
0.00495058
0.00442882
0.00377445
0.000169068
0.000292149
0.000365455
0.000725756
0.0015929
0.00214084
0.00212739
0.00219992
0.00284777
0.00367296
0.00415941
0.00423259
0.00414441
0.00408891
0.00411338
0.00423309
0.00439483
0.00436103
0.00390976
0.00330206
0.000218141
0.000357899
0.000445491
0.000710226
0.00150108
0.00210758
0.00212355
0.00208974
0.0026242
0.00344415
0.00396322
0.00397771
0.00377228
0.00365278
0.00366801
0.00375706
0.00384438
0.00378888
0.00339656
0.00282449
0.000266819
0.000418434
0.000523738
0.00070279
0.00140149
0.00204777
0.00211143
0.00199421
0.00239344
0.00317797
0.00374249
0.00373799
0.00342716
0.00321705
0.00320491
0.00328074
0.00331933
0.00323274
0.00289272
0.00235954
0.000315479
0.000473369
0.000597222
0.000704019
0.00129866
0.00196042
0.00208456
0.00191347
0.00216723
0.00287944
0.00348527
0.003505
0.00311391
0.0027979
0.00273251
0.00279527
0.00281209
0.00269482
0.00239366
0.0019154
0.00036413
0.000522496
0.000663203
0.000713049
0.00119697
0.00184816
0.00203658
0.00184287
0.0019579
0.0025577
0.00318243
0.00326385
0.00283061
0.00240871
0.00226342
0.00229871
0.00231357
0.00217808
0.00189624
0.001484
0.000412639
0.000565696
0.000719297
0.000728207
0.00109978
0.00171495
0.00196316
0.00177567
0.00177178
0.00222952
0.00283534
0.00299477
0.00257115
0.00205678
0.0018137
0.00179775
0.00181344
0.00168185
0.00140451
0.00105168
0.000460706
0.000603301
0.000763148
0.000746806
0.00101058
0.00156592
0.00186302
0.00170365
0.00160624
0.00191511
0.0024553
0.00268117
0.00231944
0.00174326
0.00139568
0.00130456
0.00130701
0.00119958
0.000927751
0.00061282
0.00050756
0.000635741
0.000793745
0.000765059
0.000932307
0.00140798
0.00173687
0.00161814
0.00145535
0.00162563
0.00206397
0.00232286
0.00205037
0.00146252
0.00101828
0.000834219
0.000797795
0.000719609
0.000471779
0.000173607
0.000552124
0.000663515
0.000811701
0.000778676
0.0008657
0.00124826
0.00158741
0.00151372
0.00131215
0.00136291
0.0016837
0.00193241
0.00174589
0.00119602
0.000682951
0.00040172
0.00029849
0.000232914
3.08895e-05
-0.000252926
0.000593297
0.000687145
0.000818248
0.000783952
0.000809275
0.00109325
0.00141855
0.00138753
0.00116865
0.00112351
0.00132674
0.00152824
0.0014072
0.000920939
0.000379798
1.59618e-05
-0.000171671
-0.000257155
-0.00040769
-0.000660507
0.00063003
0.000707058
0.00081508
0.000778241
0.000759861
0.000947838
0.00123611
0.0012391
0.00101927
0.000902338
0.000998448
0.00112962
0.00104364
0.000628324
9.09989e-05
-0.000329532
-0.000596637
-0.000733747
-0.000852834
-0.00105653
0.000661443
0.000723144
0.000804259
0.000760984
0.00071342
0.000813694
0.0010476
0.00107047
0.000861749
0.000693187
0.000697087
0.000750757
0.00066672
0.000318361
-0.00019384
-0.000647111
-0.000973046
-0.00117684
-0.00129793
-0.00145289
0.000687041
0.000735282
0.000787353
0.000732562
0.000666285
0.000691448
0.000859256
0.000884426
0.000694353
0.000492922
0.000419188
0.000399985
0.000292237
-7.84939e-06
-0.000478199
-0.000947825
-0.00130997
-0.00157095
-0.00172358
-0.001849
0.000706394
0.000743284
0.000766243
0.000694019
0.000614557
0.000579655
0.000677828
0.000686634
0.000514488
0.00029878
0.000162087
7.93449e-05
-6.1717e-05
-0.000341833
-0.000765754
-0.00123779
-0.00162386
-0.00192145
-0.00211513
-0.0022328
0.000719454
0.000746666
0.000742258
0.000647779
0.000556185
0.000475101
0.000506586
0.000485142
0.00032391
0.000105624
-7.79253e-05
-0.000214488
-0.000385199
-0.000664929
-0.0010501
-0.00150803
-0.00191726
-0.00223864
-0.00247137
-0.00260237
0.000726479
0.000745697
0.000715841
0.000595167
0.000490809
0.000375937
0.000346551
0.000286431
0.000129427
-8.70724e-05
-0.000305076
-0.000486144
-0.00068239
-0.000968626
-0.0013302
-0.00175885
-0.00217644
-0.00251515
-0.00277627
-0.0029335
0.00072774
0.000740533
0.000688573
0.000538856
0.000417582
0.000278002
0.000196718
9.33276e-05
-6.5425e-05
-0.000272967
-0.000513435
-0.000731398
-0.000950145
-0.00124766
-0.00160194
-0.0020014
-0.00241239
-0.0027649
-0.00304047
-0.00321516
0.000723742
0.000730826
0.000660455
0.000482194
0.00034103
0.000179009
5.50762e-05
-9.21708e-05
-0.000263475
-0.000458325
-0.000701131
-0.000942733
-0.00117731
-0.00148446
-0.00184329
-0.00222392
-0.00262259
-0.00299171
-0.0032922
-0.00349195
0.000716125
0.000717521
0.000631164
0.000424703
0.000262768
8.2613e-05
-7.71619e-05
-0.000265666
-0.000458513
-0.000652856
-0.000881915
-0.00112555
-0.00136125
-0.00165628
-0.00200824
-0.00237033
-0.00274253
-0.00310754
-0.00343116
-0.00367134
0.000704872
0.000701333
0.00060213
0.000367821
0.000181984
-1.26077e-05
-0.00019977
-0.000422823
-0.000641419
-0.000853762
-0.00109053
-0.00133609
-0.0015784
-0.00185818
-0.00219082
-0.00253827
-0.002878
-0.0032119
-0.00350824
-0.00372836
0.000695576
0.000683216
0.000572241
0.000312834
0.000100182
-0.000114364
-0.000315575
-0.000552336
-0.000767879
-0.000953539
-0.00114947
-0.0013611
-0.00158841
-0.00186534
-0.00218623
-0.00254593
-0.00292877
-0.00332987
-0.00372043
-0.00403998
0.000689567
0.000672064
0.000547097
0.000263982
1.95585e-05
-0.000230377
-0.000482826
-0.000780517
-0.00108249
-0.00134234
-0.00155816
-0.00169519
-0.00177919
-0.00192172
-0.00212334
-0.00232438
-0.00250312
-0.00265834
-0.00280943
-0.00296756
0.000671456
0.000646262
0.000528049
0.000245456
6.75596e-07
-0.000248568
-0.000490985
-0.000753977
-0.00100135
-0.00120404
-0.00136752
-0.00155099
-0.00173559
-0.00196103
-0.00224626
-0.00258193
-0.00297265
-0.00338639
-0.00380559
-0.00417623
0.000680897
0.000641063
0.00048119
0.00014945
-0.000147213
-0.000429701
-0.000680171
-0.000906996
-0.0011377
-0.00134785
-0.00149773
-0.00167862
-0.00186889
-0.0020381
-0.00222162
-0.00238809
-0.0025301
-0.00265123
-0.00278899
-0.00298907
0.000685781
0.000656574
0.000525629
0.000217645
-5.64036e-05
-0.000336453
-0.000633697
-0.000953764
-0.00127936
-0.00155076
-0.00166499
-0.00170541
-0.00177689
-0.00185199
-0.00197976
-0.00216459
-0.00239202
-0.00264856
-0.00292975
-0.00325603
0.0589021
0.0409375
0.0242836
0.0133286
0.00853509
0.00711002
0.00603975
0.00486146
0.00372249
0.00254705
0.00145487
0.000527531
-0.000463406
-0.00155974
-0.002476
-0.00322153
-0.0040515
-0.00495649
-0.00586274
-0.00688048
-0.00794937
-0.00890655
-0.00981426
-0.0107037
-0.011528
-0.0123179
-0.0131266
-0.0139914
-0.0148683
-0.015662
-0.0164334
-0.017283
-0.0181144
-0.0189023
-0.0197337
-0.020588
-0.0214283
-0.0222916
-0.0231883
-0.0240725
-0.0249896
-0.0260192
-0.027058
-0.028008
-0.028949
-0.0299457
-0.0309969
-0.0320152
-0.0329792
-0.0339637
-0.0349745
-0.036024
-0.0371872
-0.0384631
-0.0398495
-0.0411913
-0.0424079
-0.0435044
-0.0445276
-0.0456864
-0.0469287
-0.0481293
-0.0493356
-0.0508169
-0.0525456
-0.0541479
-0.0554018
-0.0566687
-0.058091
-0.0595286
-0.061014
-0.0625965
-0.0642115
-0.0658564
-0.0675479
-0.0692501
-0.0710204
-0.072756
-0.0744749
-0.0761943
-0.0780355
-0.0798722
-0.0817071
-0.0836145
-0.0855421
-0.0875401
-0.0895447
-0.0916026
-0.0937107
-0.095796
-0.0979399
-0.100115
-0.102388
-0.104682
-0.106995
-0.109416
-0.111838
-0.114358
-0.116897
-0.119424
0.0558703
0.0406612
0.0243503
0.0134773
0.00864223
0.00716398
0.00606932
0.00487874
0.00373484
0.00255731
0.00146392
0.000536215
-0.000455257
-0.00155295
-0.00247027
-0.00321621
-0.00404681
-0.00495254
-0.00585905
-0.00687708
-0.00794658
-0.0089041
-0.00981203
-0.0107018
-0.0115263
-0.0123163
-0.0131251
-0.0139899
-0.0148671
-0.0156609
-0.0164322
-0.0172819
-0.0181135
-0.0189013
-0.0197328
-0.0205872
-0.0214275
-0.0222908
-0.0231876
-0.0240718
-0.0249888
-0.0260184
-0.0270574
-0.0280073
-0.0289483
-0.029945
-0.0309962
-0.0320146
-0.0329787
-0.0339632
-0.034974
-0.0360235
-0.0371867
-0.0384626
-0.039849
-0.0411909
-0.0424076
-0.0435041
-0.0445273
-0.045686
-0.0469284
-0.0481291
-0.0493353
-0.0508164
-0.0525452
-0.0541478
-0.0554017
-0.0566684
-0.0580908
-0.0595285
-0.0610138
-0.0625963
-0.0642113
-0.0658562
-0.0675478
-0.0692499
-0.0710203
-0.0727559
-0.0744747
-0.0761942
-0.0780354
-0.0798721
-0.081707
-0.0836143
-0.085542
-0.08754
-0.0895446
-0.0916025
-0.0937106
-0.0957959
-0.0979398
-0.100115
-0.102388
-0.104682
-0.106995
-0.109416
-0.111837
-0.114358
-0.116897
-0.119425
0.0541649
0.0405143
0.0245256
0.0137573
0.0088164
0.00722739
0.00610041
0.00490195
0.00375063
0.00256788
0.00147201
0.000543318
-0.000448933
-0.00154738
-0.00246469
-0.00321051
-0.00404189
-0.00494865
-0.00585564
-0.00687411
-0.00794416
-0.00890191
-0.00981007
-0.0107002
-0.0115248
-0.0123148
-0.0131237
-0.0139887
-0.0148661
-0.01566
-0.0164312
-0.0172811
-0.0181127
-0.0189006
-0.019732
-0.0205865
-0.0214269
-0.0222901
-0.023187
-0.0240712
-0.0249881
-0.0260178
-0.0270569
-0.0280068
-0.0289477
-0.0299445
-0.0309957
-0.0320142
-0.0329782
-0.0339628
-0.0349735
-0.0360229
-0.0371862
-0.0384621
-0.0398486
-0.0411906
-0.0424074
-0.0435039
-0.0445269
-0.0456857
-0.0469282
-0.0481289
-0.0493349
-0.050816
-0.052545
-0.0541478
-0.0554015
-0.0566681
-0.0580906
-0.0595283
-0.0610136
-0.0625961
-0.0642111
-0.0658561
-0.0675476
-0.0692498
-0.0710201
-0.0727558
-0.0744746
-0.0761941
-0.0780353
-0.079872
-0.0817069
-0.0836142
-0.0855419
-0.0875399
-0.0895445
-0.0916024
-0.0937105
-0.0957958
-0.0979397
-0.100115
-0.102388
-0.104682
-0.106995
-0.109416
-0.111837
-0.114358
-0.116897
-0.119425
0.0522687
0.0402125
0.0246838
0.0140743
0.0090403
0.00731489
0.00615081
0.00494307
0.00377795
0.00258455
0.0014831
0.00055103
-0.00044322
-0.00154196
-0.00245816
-0.00320307
-0.00403504
-0.00494322
-0.00585115
-0.00687006
-0.00794053
-0.00889869
-0.00980739
-0.0106979
-0.0115227
-0.0123129
-0.0131219
-0.0139871
-0.0148649
-0.0156589
-0.01643
-0.01728
-0.0181119
-0.0188997
-0.0197312
-0.0205859
-0.0214262
-0.0222894
-0.0231863
-0.0240706
-0.0249874
-0.0260172
-0.0270565
-0.0280063
-0.0289472
-0.0299439
-0.0309952
-0.0320137
-0.0329778
-0.0339624
-0.034973
-0.0360223
-0.0371856
-0.0384616
-0.0398482
-0.0411904
-0.0424072
-0.0435037
-0.0445265
-0.0456852
-0.046928
-0.0481287
-0.0493344
-0.0508154
-0.0525448
-0.0541479
-0.0554014
-0.0566678
-0.0580904
-0.0595281
-0.0610134
-0.0625959
-0.064211
-0.0658559
-0.0675475
-0.0692496
-0.07102
-0.0727557
-0.0744745
-0.0761939
-0.0780351
-0.0798719
-0.0817067
-0.0836141
-0.0855417
-0.0875398
-0.0895444
-0.0916023
-0.0937105
-0.0957957
-0.0979396
-0.100115
-0.102388
-0.104682
-0.106995
-0.109416
-0.111837
-0.114358
-0.116898
-0.119426
0.0503575
0.0398261
0.02484
0.0144044
0.00928222
0.00741284
0.00621004
0.00499617
0.00381592
0.00260901
0.00149925
0.000560379
-0.00043787
-0.00153627
-0.00245002
-0.00319341
-0.00402601
-0.00493628
-0.00584568
-0.00686448
-0.00793466
-0.0088935
-0.00980328
-0.0106944
-0.0115196
-0.0123102
-0.0131194
-0.0139848
-0.0148631
-0.0156573
-0.0164284
-0.0172786
-0.0181106
-0.0188986
-0.0197303
-0.0205851
-0.0214254
-0.0222886
-0.0231856
-0.02407
-0.0249868
-0.0260165
-0.027056
-0.0280059
-0.0289467
-0.0299434
-0.0309946
-0.0320132
-0.0329773
-0.033962
-0.0349725
-0.0360215
-0.037185
-0.0384612
-0.0398479
-0.0411902
-0.0424071
-0.0435035
-0.044526
-0.0456847
-0.0469277
-0.0481285
-0.0493338
-0.0508147
-0.0525447
-0.054148
-0.0554013
-0.0566674
-0.0580901
-0.0595279
-0.0610132
-0.0625957
-0.0642108
-0.0658557
-0.0675473
-0.0692494
-0.0710199
-0.0727556
-0.0744744
-0.0761937
-0.078035
-0.0798718
-0.0817066
-0.083614
-0.0855416
-0.0875397
-0.0895443
-0.0916022
-0.0937104
-0.0957956
-0.0979395
-0.100115
-0.102388
-0.104682
-0.106995
-0.109416
-0.111837
-0.114358
-0.116898
-0.119427
0.0484833
0.0393758
0.0249946
0.0147357
0.00952969
0.0075138
0.00626919
0.00505195
0.00385893
0.00263908
0.00151987
0.000571291
-0.000432891
-0.00153036
-0.00244037
-0.00318162
-0.00401489
-0.00492819
-0.00583984
-0.0068577
-0.00792633
-0.00888584
-0.00979719
-0.0106893
-0.0115151
-0.0123065
-0.0131158
-0.0139812
-0.0148601
-0.0156551
-0.0164264
-0.0172766
-0.0181088
-0.0188972
-0.0197293
-0.0205842
-0.0214245
-0.0222876
-0.0231846
-0.0240694
-0.0249861
-0.0260158
-0.0270554
-0.0280054
-0.0289464
-0.029943
-0.030994
-0.0320125
-0.0329768
-0.0339616
-0.0349717
-0.0360205
-0.0371843
-0.0384606
-0.0398475
-0.04119
-0.042407
-0.0435034
-0.0445255
-0.0456841
-0.0469274
-0.0481283
-0.0493332
-0.0508139
-0.0525445
-0.0541482
-0.0554011
-0.056667
-0.0580898
-0.0595276
-0.0610129
-0.0625954
-0.0642106
-0.0658555
-0.0675471
-0.0692493
-0.0710198
-0.0727555
-0.0744742
-0.0761936
-0.0780349
-0.0798717
-0.0817065
-0.0836139
-0.0855415
-0.0875395
-0.0895442
-0.0916021
-0.0937103
-0.0957955
-0.0979393
-0.100115
-0.102388
-0.104682
-0.106995
-0.109416
-0.111837
-0.114357
-0.116898
-0.119428
0.0466517
0.0388595
0.0251368
0.01506
0.00977875
0.00761679
0.00632639
0.00510718
0.00390408
0.00267268
0.00154378
0.000583493
-0.000428466
-0.00152489
-0.00242979
-0.00316789
-0.00400192
-0.00491942
-0.00583423
-0.00685038
-0.00791612
-0.00887601
-0.00978908
-0.0106821
-0.0115091
-0.0123018
-0.0131115
-0.0139763
-0.0148557
-0.0156517
-0.0164235
-0.0172739
-0.0181064
-0.0188954
-0.019728
-0.0205831
-0.0214235
-0.0222864
-0.0231835
-0.0240687
-0.0249854
-0.0260148
-0.0270545
-0.0280048
-0.0289462
-0.0299427
-0.0309933
-0.0320118
-0.0329764
-0.0339613
-0.0349708
-0.0360193
-0.0371834
-0.03846
-0.0398469
-0.0411897
-0.0424069
-0.0435033
-0.0445249
-0.0456834
-0.0469271
-0.048128
-0.0493324
-0.050813
-0.0525443
-0.0541485
-0.0554009
-0.0566665
-0.0580895
-0.0595273
-0.0610125
-0.0625951
-0.0642103
-0.0658553
-0.0675469
-0.069249
-0.0710196
-0.0727554
-0.0744741
-0.0761933
-0.0780347
-0.0798716
-0.0817063
-0.0836137
-0.0855413
-0.0875394
-0.0895441
-0.091602
-0.0937102
-0.0957954
-0.0979392
-0.100115
-0.102388
-0.104682
-0.106995
-0.109415
-0.111837
-0.114357
-0.116898
-0.11943
0.0448743
0.0382762
0.0252552
0.0153721
0.010029
0.00772354
0.00638248
0.00516145
0.00395046
0.00270881
0.00157028
0.000596766
-0.000424893
-0.00152061
-0.00241915
-0.00315279
-0.00398735
-0.00490993
-0.00582878
-0.00684297
-0.00790499
-0.0088649
-0.00977948
-0.0106732
-0.0115016
-0.0122964
-0.0131066
-0.0139706
-0.01485
-0.0156471
-0.0164194
-0.0172701
-0.0181033
-0.0188933
-0.0197264
-0.0205819
-0.0214224
-0.0222851
-0.0231823
-0.0240681
-0.0249847
-0.0260134
-0.0270529
-0.0280039
-0.028946
-0.0299424
-0.0309924
-0.0320111
-0.0329764
-0.0339613
-0.0349698
-0.0360177
-0.0371824
-0.0384592
-0.0398461
-0.0411892
-0.0424067
-0.0435032
-0.0445243
-0.0456827
-0.0469268
-0.0481278
-0.0493316
-0.0508119
-0.052544
-0.0541487
-0.0554007
-0.0566659
-0.0580891
-0.059527
-0.0610121
-0.0625947
-0.06421
-0.065855
-0.0675467
-0.0692488
-0.0710194
-0.0727553
-0.0744739
-0.0761931
-0.0780346
-0.0798715
-0.0817061
-0.0836136
-0.0855412
-0.0875393
-0.0895439
-0.0916018
-0.0937101
-0.0957953
-0.097939
-0.100115
-0.102388
-0.104682
-0.106995
-0.109415
-0.111837
-0.114357
-0.116898
-0.119432
0.0431569
0.0376234
0.0253415
0.0156712
0.0102822
0.00783662
0.00643876
0.00521434
0.0039972
0.00274695
0.00159914
0.000610926
-0.000422548
-0.00151815
-0.00240936
-0.00313726
-0.00397179
-0.00489973
-0.00582308
-0.00683536
-0.00789343
-0.00885326
-0.00976915
-0.0106632
-0.0114929
-0.0122904
-0.0131016
-0.0139647
-0.0148437
-0.0156415
-0.0164142
-0.017265
-0.0180994
-0.0188908
-0.0197246
-0.0205803
-0.0214212
-0.0222838
-0.0231812
-0.0240678
-0.0249843
-0.0260118
-0.0270507
-0.0280024
-0.0289455
-0.0299419
-0.0309912
-0.0320102
-0.0329768
-0.0339619
-0.0349689
-0.0360161
-0.0371814
-0.0384583
-0.039845
-0.0411882
-0.0424063
-0.0435029
-0.0445237
-0.0456821
-0.0469265
-0.0481277
-0.0493308
-0.0508106
-0.0525435
-0.0541488
-0.0554004
-0.0566652
-0.0580886
-0.0595266
-0.0610116
-0.0625942
-0.0642096
-0.0658547
-0.0675463
-0.0692484
-0.0710192
-0.0727552
-0.0744737
-0.0761928
-0.0780344
-0.0798714
-0.0817059
-0.0836135
-0.085541
-0.0875391
-0.0895438
-0.0916017
-0.09371
-0.0957952
-0.0979388
-0.100114
-0.102388
-0.104682
-0.106994
-0.109415
-0.111837
-0.114357
-0.116898
-0.119435
0.0415022
0.0369018
0.0253915
0.0159577
0.0105389
0.00795684
0.00649522
0.00526477
0.00404341
0.00278697
0.0016306
0.000626076
-0.00042163
-0.00151804
-0.00240131
-0.00312248
-0.00395618
-0.00488918
-0.00581706
-0.00682745
-0.00788156
-0.00884135
-0.00975852
-0.0106525
-0.0114835
-0.0122837
-0.0130965
-0.013959
-0.0148376
-0.0156357
-0.0164082
-0.0172588
-0.0180945
-0.018888
-0.0197227
-0.0205786
-0.0214196
-0.0222823
-0.0231801
-0.024068
-0.0249845
-0.0260101
-0.027048
-0.0280002
-0.0289446
-0.029941
-0.0309894
-0.0320089
-0.0329775
-0.0339634
-0.0349687
-0.0360148
-0.0371806
-0.0384574
-0.0398435
-0.0411868
-0.0424053
-0.0435023
-0.0445229
-0.0456816
-0.0469267
-0.048128
-0.0493301
-0.0508092
-0.0525428
-0.0541488
-0.0554
-0.0566645
-0.0580882
-0.0595262
-0.0610111
-0.0625936
-0.0642091
-0.0658543
-0.0675459
-0.069248
-0.0710189
-0.0727549
-0.0744733
-0.0761925
-0.0780342
-0.0798712
-0.0817057
-0.0836133
-0.0855408
-0.0875389
-0.0895437
-0.0916016
-0.0937099
-0.095795
-0.0979386
-0.100114
-0.102387
-0.104682
-0.106994
-0.109415
-0.111836
-0.114356
-0.116897
-0.119438
0.0399134
0.0361169
0.025403
0.0162295
0.0107958
0.00808308
0.00655168
0.00531227
0.00408873
0.00282891
0.00166479
0.000642366
-0.000422023
-0.00152042
-0.00239567
-0.00310951
-0.00394157
-0.00487898
-0.00581106
-0.00681943
-0.00786949
-0.00882926
-0.00974773
-0.0106417
-0.0114735
-0.0122765
-0.0130911
-0.0139534
-0.0148319
-0.0156302
-0.0164019
-0.017252
-0.0180889
-0.0188848