/*--------------------------------*- C++ -*----------------------------------*\
| =========                 |                                                 |
| \\      /  F ield         | OpenFOAM: The Open Source CFD Toolbox           |
|  \\    /   O peration     | Version:  v1912                                 |
|   \\  /    A nd           | Website:  www.openfoam.com                      |
|    \\/     M anipulation  |                                                 |
\*---------------------------------------------------------------------------*/
FoamFile
{
    version     2.0;
    format      ascii;
    class       volVectorField;
    location    "3.65";
    object      U;
}
// * * * * * * * * * * * * * * * * * * * * * * * * * * * * * * * * * * * * * //

dimensions      [0 1 -1 0 0 0 0];


internalField   nonuniform List<vector> 
9600
(
(0.799399 -0.000466024 0)
(1.1122 -0.00819103 0)
(0.908101 -0.0165396 0)
(1.22626 0.0225257 0)
(0.950687 0.0174098 0)
(1.06115 -0.00373856 0)
(0.917578 -0.0376728 0)
(1.06809 -0.040332 0)
(0.920143 -0.0226328 0)
(1.16359 -0.0123674 0)
(0.912863 0.00198625 0)
(1.18093 0.0198782 0)
(0.986186 0.00905488 0)
(1.10144 0.0137231 0)
(0.989908 -0.00367674 0)
(1.07096 -0.00764851 0)
(0.979446 -0.0174571 0)
(1.07127 -0.033869 0)
(0.933451 -0.0187351 0)
(1.10064 -0.047265 0)
(0.82013 0.000143457 0)
(1.0879 -0.00890304 0)
(0.922227 -0.0177954 0)
(1.21223 0.0220231 0)
(0.989163 0.018765 0)
(1.04538 -0.00307104 0)
(0.951505 -0.037906 0)
(1.02794 -0.040243 0)
(0.935134 -0.0243243 0)
(1.13382 -0.012109 0)
(0.94084 0.00149674 0)
(1.1465 0.0187804 0)
(1.02986 0.0104891 0)
(1.06734 0.0137692 0)
(1.04165 -0.00276784 0)
(1.02907 -0.00746845 0)
(1.0369 -0.0170189 0)
(0.993721 -0.0331722 0)
(1.01702 -0.01847 0)
(0.98071 -0.0484747 0)
(0.854551 0.000653595 0)
(1.05148 -0.0095291 0)
(0.943654 -0.0188466 0)
(1.18314 0.0216577 0)
(1.03352 0.0202176 0)
(1.04181 -0.00250488 0)
(0.973235 -0.0374294 0)
(0.997052 -0.0400461 0)
(0.957081 -0.0255407 0)
(1.09132 -0.0122105 0)
(0.981736 0.00111504 0)
(1.10273 0.0175311 0)
(1.0607 0.0116892 0)
(1.05915 0.0136217 0)
(1.0508 -0.00207138 0)
(1.03593 -0.00738175 0)
(1.0231 -0.0162426 0)
(1.00481 -0.0320421 0)
(0.999167 -0.0200517 0)
(0.990991 -0.0419718 0)
(0.894667 0.00122533 0)
(1.01349 -0.0100622 0)
(0.965624 -0.0198966 0)
(1.14701 0.0210634 0)
(1.06512 0.0212864 0)
(1.04506 -0.00176536 0)
(0.988409 -0.0368191 0)
(0.976755 -0.0399707 0)
(0.972111 -0.0265825 0)
(1.05381 -0.0127164 0)
(1.01279 0.000903901 0)
(1.07474 0.0164244 0)
(1.07285 0.0120985 0)
(1.06543 0.0138212 0)
(1.05825 -0.00145065 0)
(1.04176 -0.00678623 0)
(1.02694 -0.0151405 0)
(1.00459 -0.0316773 0)
(0.997121 -0.0188771 0)
(0.984279 -0.0413389 0)
(0.932667 0.00181644 0)
(0.984347 -0.0105121 0)
(0.981918 -0.0209769 0)
(1.11315 0.0201636 0)
(1.08127 0.0220096 0)
(1.05209 -0.00088214 0)
(0.998909 -0.0358443 0)
(0.968719 -0.0397914 0)
(0.978334 -0.0274179 0)
(1.0307 -0.0134358 0)
(1.02882 0.000499321 0)
(1.06407 0.0154741 0)
(1.07746 0.0121088 0)
(1.07394 0.0140047 0)
(1.06661 -0.000668616 0)
(1.04704 -0.00611783 0)
(1.03132 -0.0140434 0)
(1.00533 -0.0304611 0)
(0.995429 -0.0186475 0)
(0.98116 -0.0392085 0)
(0.963055 0.00236434 0)
(0.969458 -0.01083 0)
(0.989808 -0.022049 0)
(1.08676 0.0192037 0)
(1.08605 0.0224425 0)
(1.05944 3.4479e-05 0)
(1.0066 -0.0347667 0)
(0.967339 -0.039594 0)
(0.979581 -0.028148 0)
(1.02077 -0.0143335 0)
(1.036 -0.0001407 0)
(1.06323 0.0146191 0)
(1.08129 0.0118894 0)
(1.08116 0.0140918 0)
(1.07318 0.000180252 0)
(1.05136 -0.00532375 0)
(1.03368 -0.012739 0)
(1.00665 -0.0291432 0)
(0.993301 -0.0182038 0)
(0.979278 -0.0370892 0)
(0.983848 0.00281425 0)
(0.967791 -0.010992 0)
(0.990201 -0.0230232 0)
(1.06739 0.0182739 0)
(1.08358 0.0226002 0)
(1.0644 0.00091919 0)
(1.01305 -0.033527 0)
(0.968666 -0.0392875 0)
(0.979744 -0.0288285 0)
(1.01792 -0.0153803 0)
(1.04061 -0.000914053 0)
(1.06707 0.0137326 0)
(1.08591 0.0115699 0)
(1.08669 0.0141399 0)
(1.07692 0.00114339 0)
(1.0534 -0.00438248 0)
(1.03403 -0.011331 0)
(1.00734 -0.0275934 0)
(0.991476 -0.0177088 0)
(0.978085 -0.0347254 0)
(0.996043 0.00313501 0)
(0.974393 -0.0109983 0)
(0.98615 -0.0238308 0)
(1.05141 0.0173388 0)
(1.07613 0.0225345 0)
(1.06573 0.00171091 0)
(1.01846 -0.0322305 0)
(0.971036 -0.0389162 0)
(0.980539 -0.0295053 0)
(1.01637 -0.0165726 0)
(1.04458 -0.0018388 0)
(1.0728 0.0127744 0)
(1.0903 0.0112598 0)
(1.08986 0.0142369 0)
(1.07743 0.00225659 0)
(1.05243 -0.00329863 0)
(1.03227 -0.00987914 0)
(1.00693 -0.0259162 0)
(0.990019 -0.0171446 0)
(0.977466 -0.0322888 0)
(1.00213 0.00332387 0)
(0.983905 -0.0108743 0)
(0.981 -0.024422 0)
(1.03572 0.0163941 0)
(1.06504 0.0222915 0)
(1.06331 0.00234644 0)
(1.0226 -0.030893 0)
(0.974223 -0.0384615 0)
(0.982217 -0.0301249 0)
(1.01277 -0.0178697 0)
(1.04648 -0.00297646 0)
(1.07743 0.0117628 0)
(1.09208 0.0110372 0)
(1.08924 0.0144506 0)
(1.07416 0.00353598 0)
(1.04834 -0.00211243 0)
(1.02847 -0.00844282 0)
(1.00547 -0.0241675 0)
(0.988779 -0.016574 0)
(0.977381 -0.0298895 0)
(1.00467 0.00339919 0)
(0.992735 -0.0106585 0)
(0.97706 -0.0247716 0)
(1.01973 0.0154784 0)
(1.05192 0.021893 0)
(1.05788 0.00279173 0)
(1.02518 -0.0295963 0)
(0.978194 -0.0379528 0)
(0.984381 -0.0306111 0)
(1.00646 -0.0191907 0)
(1.04405 -0.00432488 0)
(1.07752 0.0107059 0)
(1.08862 0.0109472 0)
(1.08339 0.0148054 0)
(1.06672 0.00493352 0)
(1.04138 -0.000864518 0)
(1.02306 -0.00708622 0)
(1.00321 -0.0224445 0)
(0.987713 -0.0160609 0)
(0.977692 -0.0275865 0)
(1.00547 0.00338989 0)
(0.999389 -0.0103901 0)
(0.975218 -0.0248867 0)
(1.00497 0.014622 0)
(1.03886 0.0213669 0)
(1.0507 0.00304016 0)
(1.02611 -0.028386 0)
(0.982645 -0.0374086 0)
(0.986406 -0.0308919 0)
(0.998585 -0.020421 0)
(1.03629 -0.00582337 0)
(1.07068 0.00963095 0)
(1.07845 0.0109934 0)
(1.07179 0.015258 0)
(1.0555 0.00635191 0)
(1.03228 0.00036335 0)
(1.01675 -0.0058886 0)
(1.00056 -0.0208286 0)
(0.986854 -0.0156238 0)
(0.978258 -0.0254276 0)
(1.00551 0.00332358 0)
(1.00379 -0.0100988 0)
(0.975298 -0.0248014 0)
(0.993293 0.0138386 0)
(1.02766 0.0207528 0)
(1.04309 0.00311062 0)
(1.02562 -0.0273017 0)
(0.987037 -0.0368519 0)
(0.987735 -0.0309404 0)
(0.990845 -0.0214464 0)
(1.02404 -0.00733812 0)
(1.05673 0.00860266 0)
(1.06215 0.011131 0)
(1.05548 0.0157289 0)
(1.04173 0.0076674 0)
(1.02221 0.0014627 0)
(1.01034 -0.00491075 0)
(0.997997 -0.0193674 0)
(0.986249 -0.0152572 0)
(0.978955 -0.023453 0)
(1.00526 0.00322177 0)
(1.00643 -0.00980563 0)
(0.976683 -0.0245588 0)
(0.985425 0.013139 0)
(1.01907 0.0200861 0)
(1.03605 0.00303654 0)
(1.02414 -0.0263586 0)
(0.990829 -0.0362882 0)
(0.988113 -0.0307604 0)
(0.984465 -0.0221885 0)
(1.00945 -0.00869088 0)
(1.03779 0.00767273 0)
(1.04216 0.0112958 0)
(1.03675 0.0161205 0)
(1.02731 0.00875291 0)
(1.01255 0.00234735 0)
(1.0046 -0.00418695 0)
(0.995888 -0.0180841 0)
(0.985946 -0.0149445 0)
(0.979677 -0.0216939 0)
(1.00491 0.00309832 0)
(1.00787 -0.00952258 0)
(0.978745 -0.0241988 0)
(0.980732 0.0125206 0)
(1.01284 0.0194037 0)
(1.03012 0.00286257 0)
(1.02216 -0.0255476 0)
(0.993671 -0.0357181 0)
(0.987635 -0.0303926 0)
(0.979842 -0.0226175 0)
(0.994999 -0.00973946 0)
(1.01713 0.0068703 0)
(1.02171 0.0114248 0)
(1.01843 0.0163292 0)
(1.01412 0.00952814 0)
(1.00446 0.00297094 0)
(1.0001 -0.00371461 0)
(0.994457 -0.0169895 0)
(0.985975 -0.0146663 0)
(0.980373 -0.0201315 0)
(1.00456 0.00296266 0)
(1.0085 -0.00925657 0)
(0.981003 -0.0237573 0)
(0.978026 0.011975 0)
(1.00832 0.0187285 0)
(1.02545 0.00262126 0)
(1.02007 -0.0248386 0)
(0.995466 -0.0351395 0)
(0.98661 -0.0298899 0)
(0.976787 -0.0227599 0)
(0.982632 -0.0104301 0)
(0.997994 0.00620621 0)
(1.00366 0.0114436 0)
(1.00289 0.0163193 0)
(1.00354 0.00993911 0)
(0.998611 0.00331566 0)
(0.997074 -0.00345488 0)
(0.993749 -0.01607 0)
(0.986329 -0.0143969 0)
(0.981053 -0.0187291 0)
(1.00428 0.00282261 0)
(1.00857 -0.00901374 0)
(0.983119 -0.0232558 0)
(0.9764 0.0114931 0)
(1.00503 0.0180673 0)
(1.02202 0.0023297 0)
(1.01813 -0.0242023 0)
(0.996322 -0.0345484 0)
(0.985368 -0.0292945 0)
(0.974918 -0.0226615 0)
(0.97342 -0.0107734 0)
(0.982628 0.00566849 0)
(0.989764 0.0113086 0)
(0.991463 0.0160849 0)
(0.996166 0.0100045 0)
(0.995119 0.00340682 0)
(0.995442 -0.00335047 0)
(0.993668 -0.0152795 0)
(0.986951 -0.0141073 0)
(0.981749 -0.0174622 0)
(1.00408 0.00268213 0)
(1.00827 -0.00879298 0)
(0.984873 -0.0227057 0)
(0.975486 0.0110583 0)
(1.00274 0.0174132 0)
(1.01968 0.00199855 0)
(1.01643 -0.0236073 0)
(0.996469 -0.0339351 0)
(0.984148 -0.0286416 0)
(0.973907 -0.0223859 0)
(0.967579 -0.0108221 0)
(0.972012 0.00524081 0)
(0.980592 0.0110163 0)
(0.984391 0.0156409 0)
(0.991876 0.00979493 0)
(0.993635 0.00330038 0)
(0.994913 -0.0033282 0)
(0.994032 -0.0145758 0)
(0.987745 -0.0137807 0)
(0.982478 -0.0163066 0)
(1.00393 0.00254433 0)
(1.00774 -0.0085886 0)
(0.986163 -0.0221214 0)
(0.975234 0.0106517 0)
(1.00134 0.0167587 0)
(1.01821 0.00164138 0)
(1.01499 -0.0230262 0)
(0.996166 -0.0332921 0)
(0.983086 -0.0279613 0)
(0.973506 -0.0220028 0)
(0.964709 -0.0106755 0)
(0.966018 0.00489412 0)
(0.975756 0.0105727 0)
(0.981095 0.0150377 0)
(0.990057 0.00939605 0)
(0.993584 0.0030558 0)
(0.995101 -0.00333157 0)
(0.994629 -0.0139153 0)
(0.988614 -0.0134217 0)
(0.983235 -0.0152254 0)
(1.00381 0.00241125 0)
(1.00714 -0.00839497 0)
(0.986994 -0.021514 0)
(0.975618 0.0102553 0)
(1.00068 0.0161039 0)
(1.0174 0.00126966 0)
(1.01378 -0.0224407 0)
(0.995649 -0.0326185 0)
(0.982243 -0.0272726 0)
(0.973508 -0.0215663 0)
(0.964066 -0.0104336 0)
(0.963774 0.00458652 0)
(0.974296 0.0100078 0)
(0.980567 0.0143269 0)
(0.989897 0.00889025 0)
(0.994353 0.00272775 0)
(0.99564 -0.00332306 0)
(0.995272 -0.0132655 0)
(0.98948 -0.0130371 0)
(0.984006 -0.0141979 0)
(1.00369 0.00228395 0)
(1.00657 -0.00820848 0)
(0.987456 -0.0208919 0)
(0.976518 0.00985126 0)
(1.00054 0.0154504 0)
(1.017 0.000893871 0)
(1.01275 -0.0218337 0)
(0.995099 -0.0319121 0)
(0.98164 -0.0265876 0)
(0.973735 -0.0211136 0)
(0.964804 -0.0101717 0)
(0.964067 0.00428967 0)
(0.975015 0.00936278 0)
(0.981701 0.0135576 0)
(0.990618 0.00834449 0)
(0.99543 0.00235953 0)
(0.996259 -0.00328757 0)
(0.995829 -0.0126045 0)
(0.990287 -0.0126365 0)
(0.984775 -0.0132226 0)
(1.00352 0.00216229 0)
(1.00609 -0.00802504 0)
(0.987684 -0.0202634 0)
(0.977747 0.00942738 0)
(1.00066 0.0147991 0)
(1.01679 0.000523589 0)
(1.01184 -0.0211986 0)
(0.994624 -0.0311667 0)
(0.981279 -0.0259107 0)
(0.974068 -0.0206681 0)
(0.966184 -0.00994941 0)
(0.965707 0.00398019 0)
(0.976794 0.00866693 0)
(0.983542 0.0127613 0)
(0.991623 0.0078262 0)
(0.996463 0.00198776 0)
(0.996799 -0.00322425 0)
(0.996229 -0.011917 0)
(0.991004 -0.0122262 0)
(0.985526 -0.0123056 0)
(1.0033 0.00204604 0)
(1.00571 -0.00784224 0)
(0.987812 -0.0196335 0)
(0.97913 0.00897713 0)
(1.00084 0.0141558 0)
(1.0166 0.000159047 0)
(1.01101 -0.0205373 0)
(0.994268 -0.0303834 0)
(0.981152 -0.0252434 0)
(0.974454 -0.0202329 0)
(0.967708 -0.00979325 0)
(0.967795 0.00364923 0)
(0.978805 0.00794611 0)
(0.985435 0.0119565 0)
(0.992558 0.00734878 0)
(0.997272 0.00162733 0)
(0.997203 -0.00313953 0)
(0.996464 -0.0111975 0)
(0.991619 -0.0118099 0)
(0.986245 -0.0114629 0)
(1.00303 0.00193595 0)
(1.00538 -0.00766243 0)
(0.987941 -0.019004 0)
(0.980536 0.0085014 0)
(1.00094 0.0135226 0)
(1.01633 -0.000196673 0)
(1.01025 -0.0198544 0)
(0.994035 -0.0295685 0)
(0.981249 -0.0245901 0)
(0.974891 -0.0198042 0)
(0.969126 -0.00970285 0)
(0.969815 0.00329458 0)
(0.98059 0.00721501 0)
(0.987041 0.0111554 0)
(0.993284 0.00691523 0)
(0.997809 0.00129173 0)
(0.997479 -0.00304056 0)
(0.99656 -0.0104507 0)
(0.992137 -0.011387 0)
(0.986919 -0.0107036 0)
(1.00272 0.00183232 0)
(1.00509 -0.00748656 0)
(0.988127 -0.0183753 0)
(0.981885 0.0080043 0)
(1.00095 0.012898 0)
(1.01595 -0.000540285 0)
(1.00957 -0.0191624 0)
(0.993912 -0.0287202 0)
(0.981552 -0.0239499 0)
(0.975394 -0.0193809 0)
(0.970365 -0.0096717 0)
(0.971557 0.0029051 0)
(0.981996 0.00649042 0)
(0.988257 0.0103426 0)
(0.993795 0.00652487 0)
(0.9981 0.00098806 0)
(0.997655 -0.00294466 0)
(0.996553 -0.00968723 0)
(0.992573 -0.0109448 0)
(0.987542 -0.0100314 0)
(1.00241 0.00173531 0)
(1.00479 -0.00731545 0)
(0.988379 -0.0177474 0)
(0.983124 0.0074877 0)
(1.00087 0.0122868 0)
(1.01548 -0.0008761 0)
(1.00898 -0.0184682 0)
(0.993895 -0.0278421 0)
(0.982032 -0.0233217 0)
(0.975975 -0.0189499 0)
(0.971429 -0.00968814 0)
(0.97299 0.00248869 0)
(0.983039 0.00578857 0)
(0.989108 0.00951562 0)
(0.994127 0.00615795 0)
(0.998189 0.000713266 0)
(0.997751 -0.00286515 0)
(0.996467 -0.0089093 0)
(0.992939 -0.0104794 0)
(0.988112 -0.00945272 0)
(1.00212 0.00164674 0)
(1.00449 -0.00715265 0)
(0.988675 -0.0171216 0)
(0.984215 0.00695848 0)
(1.00075 0.011689 0)
(1.01493 -0.00120094 0)
(1.00848 -0.0177789 0)
(0.993983 -0.0269419 0)
(0.982654 -0.0226993 0)
(0.976645 -0.0185079 0)
(0.972353 -0.00973163 0)
(0.974153 0.00205322 0)
(0.983793 0.00510679 0)
(0.989654 0.00867706 0)
(0.994303 0.00580435 0)
(0.99811 0.000464904 0)
(0.997773 -0.00281121 0)
(0.99631 -0.00813485 0)
(0.993235 -0.00996908 0)
(0.988635 -0.00896791 0)
(1.00188 0.00156661 0)
(1.0042 -0.00699748 0)
(0.98898 -0.0164974 0)
(0.98513 0.00642096 0)
(1.00061 0.0111012 0)
(1.01436 -0.00151307 0)
(1.00807 -0.0171045 0)
(0.994174 -0.02602 0)
(0.983377 -0.0220818 0)
(0.977404 -0.018049 0)
(0.973176 -0.00978191 0)
(0.975095 0.0015891 0)
(0.984326 0.00444486 0)
(0.989951 0.00782106 0)
(0.994318 0.00545131 0)
(0.997873 0.000259161 0)
(0.997709 -0.00278332 0)
(0.996081 -0.00738794 0)
(0.993451 -0.00940122 0)
(0.989114 -0.00856849 0)
(1.00169 0.00149337 0)
(1.00396 -0.00684695 0)
(0.989266 -0.015871 0)
(0.985854 0.00587478 0)
(1.00046 0.0105178 0)
(1.01375 -0.00181489 0)
(1.00771 -0.0164498 0)
(0.994459 -0.0250813 0)
(0.984156 -0.0214659 0)
(0.978248 -0.017569 0)
(0.973936 -0.00982036 0)
(0.975863 0.00110243 0)
(0.984683 0.00381115 0)
(0.990037 0.00695239 0)
(0.994158 0.00508377 0)
(0.997472 9.23755e-05 0)
(0.99754 -0.00278012 0)
(0.995774 -0.00668425 0)
(0.993573 -0.00877571 0)
(0.989553 -0.00823277 0)
(1.00154 0.00142524 0)
(1.00379 -0.00670026 0)
(0.989525 -0.0152378 0)
(0.986389 0.00532214 0)
(1.00029 0.00993249 0)
(1.01312 -0.00210281 0)
(1.00737 -0.0158219 0)
(0.994812 -0.0241292 0)
(0.984949 -0.0208464 0)
(0.979159 -0.0170727 0)
(0.974669 -0.00983986 0)
(0.976497 0.000600822 0)
(0.984895 0.00320641 0)
(0.989947 0.00608574 0)
(0.993821 0.00470046 0)
(0.996911 -4.79628e-05 0)
(0.997256 -0.00280465 0)
(0.995398 -0.00604371 0)
(0.993587 -0.00809793 0)
(0.989947 -0.00792547 0)
(1.00142 0.00136052 0)
(1.00372 -0.00655599 0)
(0.989765 -0.0145984 0)
(0.986764 0.00476827 0)
(1.0001 0.00933982 0)
(1.01245 -0.00237318 0)
(1.00701 -0.0152235 0)
(0.995198 -0.0231701 0)
(0.985719 -0.0202229 0)
(0.980106 -0.0165618 0)
(0.975411 -0.00982379 0)
(0.977046 9.4677e-05 0)
(0.985001 0.00262613 0)
(0.989735 0.00523654 0)
(0.993336 0.00429102 0)
(0.996213 -0.000155585 0)
(0.996865 -0.00284808 0)
(0.994971 -0.00549327 0)
(0.993496 -0.0073907 0)
(0.990291 -0.00760925 0)
(1.0013 0.00129646 0)
(1.00372 -0.00641187 0)
(0.990012 -0.0139503 0)
(0.987028 0.00421737 0)
(0.999869 0.00873659 0)
(1.01173 -0.00262522 0)
(1.0066 -0.014658 0)
(0.995574 -0.0222091 0)
(0.986439 -0.019589 0)
(0.981057 -0.0160404 0)
(0.976189 -0.00976044 0)
(0.977561 -0.000402649 0)
(0.985055 0.00207292 0)
(0.98947 0.00440919 0)
(0.992764 0.00385231 0)
(0.99543 -0.000239785 0)
(0.996394 -0.00290134 0)
(0.994528 -0.00504376 0)
(0.99332 -0.00669012 0)
(0.99057 -0.0072503 0)
(1.00119 0.00122969 0)
(1.00377 -0.0062668 0)
(0.990289 -0.0132855 0)
(0.987248 0.00367243 0)
(0.999604 0.00812209 0)
(1.01097 -0.00285928 0)
(1.00615 -0.0141277 0)
(0.995905 -0.0212548 0)
(0.987094 -0.0189441 0)
(0.981981 -0.0155127 0)
(0.977016 -0.00965778 0)
(0.978094 -0.000879642 0)
(0.985114 0.00155326 0)
(0.989226 0.00361589 0)
(0.992181 0.00339411 0)
(0.994626 -0.000311179 0)
(0.995881 -0.0029513 0)
(0.994102 -0.00468955 0)
(0.993092 -0.0060345 0)
(0.990782 -0.00683328 0)
(1.00107 0.00116162 0)
(1.00382 -0.00612204 0)
(0.990612 -0.012611 0)
(0.987489 0.0031411 0)
(0.999319 0.00749291 0)
(1.01018 -0.00307452 0)
(1.00565 -0.0136301 0)
(0.996166 -0.0203144 0)
(0.987685 -0.018291 0)
(0.982855 -0.0149869 0)
(0.977894 -0.00951665 0)
(0.97868 -0.00132971 0)
(0.985228 0.0010565 0)
(0.989062 0.00286426 0)
(0.991652 0.00292178 0)
(0.993857 -0.000376562 0)
(0.995371 -0.00298969 0)
(0.993726 -0.0044193 0)
(0.992851 -0.0054393 0)
(0.990928 -0.00637437 0)
(1.00095 0.00109062 0)
(1.00383 -0.00597704 0)
(0.990985 -0.0119338 0)
(0.9878 0.00263292 0)
(0.999032 0.00685391 0)
(1.00938 -0.0032696 0)
(1.00511 -0.0131612 0)
(0.996352 -0.0193876 0)
(0.988217 -0.0176282 0)
(0.983672 -0.0144718 0)
(0.978811 -0.00934331 0)
(0.979331 -0.00175001 0)
(0.98542 0.000581627 0)
(0.989013 0.00215304 0)
(0.991223 0.00244206 0)
(0.993164 -0.000433157 0)
(0.994892 -0.00301454 0)
(0.993423 -0.00422173 0)
(0.992628 -0.00491453 0)
(0.991018 -0.00588496 0)
(1.00083 0.00101734 0)
(1.00379 -0.00583175 0)
(0.991397 -0.0112605 0)
(0.988205 0.00215628 0)
(0.998763 0.00620759 0)
(1.00858 -0.00344698 0)
(1.00457 -0.0127159 0)
(0.996468 -0.0184812 0)
(0.988702 -0.016954 0)
(0.984434 -0.0139681 0)
(0.979749 -0.0091561 0)
(0.980041 -0.00213482 0)
(0.985693 0.000136134 0)
(0.989079 0.00148523 0)
(0.990916 0.00195948 0)
(0.992562 -0.000482645 0)
(0.994458 -0.0030195 0)
(0.993204 -0.00408499 0)
(0.992452 -0.0044703 0)
(0.991064 -0.00537189 0)
(1.00071 0.000944696 0)
(1.00369 -0.00568613 0)
(0.991835 -0.0105982 0)
(0.988706 0.00171134 0)
(0.998525 0.00556012 0)
(1.0078 -0.00360239 0)
(1.00402 -0.0122821 0)
(0.996529 -0.0176 0)
(0.989154 -0.0162794 0)
(0.985148 -0.0134721 0)
(0.980691 -0.00896314 0)
(0.980792 -0.00248332 0)
(0.986028 -0.000284449 0)
(0.989244 0.000859651 0)
(0.990729 0.00148068 0)
(0.992052 -0.000528975 0)
(0.994068 -0.00299119 0)
(0.993063 -0.00399353 0)
(0.992342 -0.00411755 0)
(0.991088 -0.00487164 0)
(1.00061 0.000871878 0)
(1.00354 -0.00553885 0)
(0.992281 -0.00995885 0)
(0.989285 0.00130435 0)
(0.998324 0.00492054 0)
(1.00706 -0.00375264 0)
(1.00348 -0.0118638 0)
(0.99655 -0.0167371 0)
(0.989584 -0.0156074 0)
(0.985826 -0.0129884 0)
(0.981623 -0.00877042 0)
(0.981566 -0.00280244 0)
(0.986404 -0.000687649 0)
(0.989479 0.000278066 0)
(0.99065 0.00100267 0)
(0.991629 -0.000580598 0)
(0.993709 -0.00293016 0)
(0.992983 -0.00392439 0)
(0.992301 -0.00382875 0)
(0.991105 -0.00439732 0)
(1.00051 0.000801627 0)
(1.00335 -0.00538738 0)
(0.992727 -0.00935072 0)
(0.989916 0.000927244 0)
(0.998159 0.00428827 0)
(1.00635 -0.00387677 0)
(1.00297 -0.0114622 0)
(0.996549 -0.0159071 0)
(0.989997 -0.0149283 0)
(0.986479 -0.0125257 0)
(0.982539 -0.00857925 0)
(0.982344 -0.00308492 0)
(0.986801 -0.00105731 0)
(0.989759 -0.000265376 0)
(0.990661 0.000531992 0)
(0.991283 -0.000636413 0)
(0.993374 -0.00284766 0)
(0.992948 -0.00387974 0)
(0.992328 -0.00360446 0)
(0.991123 -0.00394518 0)
(1.00043 0.000732968 0)
(1.00315 -0.00523437 0)
(0.993164 -0.00876783 0)
(0.990576 0.000588642 0)
(0.998028 0.00366325 0)
(1.00567 -0.00399253 0)
(1.00248 -0.0110539 0)
(0.99654 -0.015112 0)
(0.990399 -0.0142564 0)
(0.987113 -0.0120673 0)
(0.983437 -0.00839981 0)
(0.983118 -0.00334556 0)
(0.987202 -0.00138751 0)
(0.990061 -0.000768265 0)
(0.99075 7.70119e-05 0)
(0.991007 -0.000680008 0)
(0.993046 -0.00271583 0)
(0.992938 -0.0038396 0)
(0.992425 -0.00347434 0)
(0.991164 -0.00357115 0)
(1.00035 0.000666157 0)
(1.00295 -0.00506878 0)
(0.993594 -0.00823007 0)
(0.99124 0.000276628 0)
(0.99792 0.00308439 0)
(1.00503 -0.00409353 0)
(1.00203 -0.0106727 0)
(0.996529 -0.0143348 0)
(0.990791 -0.0135958 0)
(0.987731 -0.0116142 0)
(0.984312 -0.00822039 0)
(0.983885 -0.00360243 0)
(0.9876 -0.00168251 0)
(0.990371 -0.00122849 0)
(0.990907 -0.000390649 0)
(0.990804 -0.000748247 0)
(0.99272 -0.00253312 0)
(0.992919 -0.00375544 0)
(0.992569 -0.00339175 0)
(0.991245 -0.00328965 0)
(1.00028 0.000598737 0)
(1.00274 -0.00489322 0)
(0.994014 -0.00771692 0)
(0.991899 -1.49795e-05 0)
(0.997834 0.00250671 0)
(1.00442 -0.00416106 0)
(1.00161 -0.0102805 0)
(0.99653 -0.013608 0)
(0.991173 -0.0129364 0)
(0.988335 -0.0111805 0)
(0.985165 -0.00804642 0)
(0.984644 -0.00383359 0)
(0.987991 -0.00196054 0)
(0.99067 -0.00161525 0)
(0.991118 -0.000852536 0)
(0.990683 -0.000860084 0)
(0.992411 -0.00232354 0)
(0.992884 -0.00360647 0)
(0.992743 -0.00331154 0)
(0.991345 -0.00304167 0)
(1.00022 0.000534913 0)
(1.00255 -0.00471021 0)
(0.994428 -0.00725668 0)
(0.992538 -0.000270649 0)
(0.997761 0.00198002 0)
(1.00385 -0.00423938 0)
(1.00121 -0.00990068 0)
(0.99654 -0.0128979 0)
(0.991548 -0.0123023 0)
(0.98892 -0.010744 0)
(0.985996 -0.00788354 0)
(0.985392 -0.00404327 0)
(0.988381 -0.00222041 0)
(0.99096 -0.00198307 0)
(0.991367 -0.00128225 0)
(0.990647 -0.0010128 0)
(0.99213 -0.00214173 0)
(0.992822 -0.0034252 0)
(0.992934 -0.00319546 0)
(0.991475 -0.0028209 0)
(1.00016 0.000469234 0)
(1.00237 -0.00450481 0)
(0.994837 -0.00682423 0)
(0.993164 -0.000527008 0)
(0.997698 0.00147653 0)
(1.00329 -0.00427769 0)
(1.00085 -0.00951967 0)
(0.996568 -0.0122364 0)
(0.991915 -0.0116816 0)
(0.98949 -0.0103244 0)
(0.9868 -0.00771618 0)
(0.986132 -0.00425094 0)
(0.98876 -0.002443 0)
(0.99123 -0.00228362 0)
(0.991654 -0.00172825 0)
(0.990685 -0.00122898 0)
(0.991888 -0.00199358 0)
(0.992758 -0.00326009 0)
(0.993135 -0.00318397 0)
(0.991635 -0.00273043 0)
(1.0001 0.00040396 0)
(1.0022 -0.00429053 0)
(0.995235 -0.00643277 0)
(0.99376 -0.000753606 0)
(0.99765 0.00100602 0)
(1.00277 -0.00431668 0)
(1.00052 -0.00913964 0)
(0.996609 -0.0116011 0)
(0.992279 -0.0110845 0)
(0.990039 -0.00990988 0)
(0.987577 -0.00754835 0)
(0.986863 -0.00442473 0)
(0.989152 -0.00267943 0)
(0.991471 -0.00254525 0)
(0.991944 -0.00211848 0)
(0.990817 -0.00156332 0)
(0.991691 -0.00199498 0)
(0.99263 -0.00311234 0)
(0.993309 -0.0032437 0)
(0.991918 -0.00275786 0)
(1.00005 0.000336744 0)
(1.00203 -0.00405396 0)
(0.995626 -0.00608201 0)
(0.994343 -0.000979534 0)
(0.997608 0.000584544 0)
(1.00228 -0.00433705 0)
(1.00022 -0.00877426 0)
(0.996666 -0.0109881 0)
(0.992634 -0.0105191 0)
(0.99057 -0.00950091 0)
(0.988323 -0.00738627 0)
(0.987574 -0.00458853 0)
(0.989534 -0.00287117 0)
(0.991709 -0.00277641 0)
(0.992227 -0.00249317 0)
(0.990976 -0.00188749 0)
(0.991576 -0.00210709 0)
(0.992524 -0.00308152 0)
(0.993456 -0.00334583 0)
(0.992277 -0.00279296 0)
(1.00001 0.000269584 0)
(1.00188 -0.00381114 0)
(0.995998 -0.0057494 0)
(0.994896 -0.00120009 0)
(0.997582 0.000188781 0)
(1.00182 -0.00433652 0)
(0.999937 -0.00840889 0)
(0.996731 -0.0104215 0)
(0.992982 -0.00996098 0)
(0.991079 -0.00911162 0)
(0.989035 -0.0072176 0)
(0.988284 -0.00472755 0)
(0.98994 -0.0030618 0)
(0.991907 -0.00297097 0)
(0.992505 -0.00278362 0)
(0.9912 -0.00221804 0)
(0.991474 -0.00212384 0)
(0.992372 -0.00289717 0)
(0.993618 -0.00322001 0)
(0.992827 -0.00276822 0)
(0.999964 0.000201188 0)
(1.00173 -0.00355664 0)
(0.996358 -0.00545294 0)
(0.995435 -0.00141139 0)
(0.997563 -0.000151711 0)
(1.00138 -0.00433118 0)
(0.999688 -0.00806192 0)
(0.996816 -0.00985867 0)
(0.993323 -0.00943794 0)
(0.991567 -0.00873054 0)
(0.989718 -0.00704876 0)
(0.988963 -0.00484677 0)
(0.990336 -0.00324978 0)
(0.992126 -0.00313193 0)
(0.992761 -0.00302217 0)
(0.991466 -0.00250524 0)
(0.99153 -0.00210282 0)
(0.992296 -0.00264303 0)
(0.993692 -0.00290679 0)
(0.993208 -0.0027587 0)
(0.999926 0.000129939 0)
(1.00159 -0.00329321 0)
(0.996694 -0.00516462 0)
(0.995945 -0.00163177 0)
(0.997561 -0.000473905 0)
(1.00098 -0.00428793 0)
(0.999464 -0.00771672 0)
(0.996906 -0.00934241 0)
(0.993653 -0.00892358 0)
(0.992032 -0.00836315 0)
(0.990366 -0.00688229 0)
(0.989636 -0.00495289 0)
(0.990758 -0.00339017 0)
(0.992315 -0.00326495 0)
(0.993014 -0.00323294 0)
(0.991806 -0.00269054 0)
(0.991625 -0.00215429 0)
(0.992238 -0.00246795 0)
(0.993732 -0.00266366 0)
(0.993547 -0.00275135 0)
(0.999892 6.33654e-05 0)
(1.00145 -0.00304577 0)
(0.997008 -0.00489103 0)
(0.996439 -0.00183701 0)
(0.99757 -0.000754864 0)
(1.0006 -0.00423588 0)
(0.999262 -0.00738665 0)
(0.997018 -0.00885112 0)
(0.993977 -0.00842115 0)
(0.99247 -0.00799259 0)
(0.990982 -0.00671491 0)
(0.990284 -0.00503339 0)
(0.991168 -0.00352897 0)
(0.992519 -0.00337275 0)
(0.993267 -0.00333513 0)
(0.992153 -0.00291291 0)
(0.991836 -0.00220284 0)
(0.99228 -0.00226193 0)
(0.993719 -0.00249136 0)
(0.993715 -0.00266213 0)
(0.999862 -6.38534e-06 0)
(1.00132 -0.00279822 0)
(0.997295 -0.00461234 0)
(0.996901 -0.002049 0)
(0.997597 -0.00102648 0)
(1.00025 -0.00414708 0)
(0.999081 -0.00705548 0)
(0.997136 -0.00839596 0)
(0.994293 -0.00794687 0)
(0.992879 -0.00761847 0)
(0.991559 -0.00653027 0)
(0.990925 -0.00509454 0)
(0.991608 -0.0036398 0)
(0.992722 -0.00341174 0)
(0.993488 -0.00341437 0)
(0.992542 -0.0030691 0)
(0.992125 -0.00226092 0)
(0.992312 -0.00218421 0)
(0.993695 -0.00238723 0)
(0.993889 -0.00249045 0)
(0.999836 -6.98442e-05 0)
(1.00119 -0.00256821 0)
(0.997553 -0.00434597 0)
(0.997341 -0.0022384 0)
(0.997642 -0.00127115 0)
(0.99992 -0.00404312 0)
(0.998912 -0.00673377 0)
(0.997272 -0.00797497 0)
(0.994611 -0.00748521 0)
(0.993265 -0.00723342 0)
(0.992096 -0.00630941 0)
(0.991537 -0.00512571 0)
(0.992052 -0.00375038 0)
(0.992939 -0.00345496 0)
(0.993705 -0.00341813 0)
(0.992923 -0.00317645 0)
(0.992458 -0.00240447 0)
(0.992433 -0.00214309 0)
(0.993729 -0.00221777 0)
(0.994017 -0.00235041 0)
(0.999813 -0.00013029 0)
(1.00107 -0.00235573 0)
(0.997782 -0.00406815 0)
(0.997749 -0.00241773 0)
(0.997705 -0.00151656 0)
(0.999628 -0.00392142 0)
(0.998759 -0.00639211 0)
(0.997414 -0.00758742 0)
(0.994926 -0.00705771 0)
(0.993627 -0.00683706 0)
(0.992585 -0.00606555 0)
(0.992122 -0.00513242 0)
(0.992522 -0.00384301 0)
(0.993188 -0.00346731 0)
(0.993905 -0.00338077 0)
(0.993277 -0.00325431 0)
(0.992841 -0.00253159 0)
(0.992626 -0.00214803 0)
(0.993752 -0.00211986 0)
(0.994103 -0.0022935 0)
(0.999792 -0.000184232 0)
(1.00096 -0.00216217 0)
(0.99798 -0.00379689 0)
(0.998125 -0.00257727 0)
(0.997791 -0.00173779 0)
(0.999367 -0.00379236 0)
(0.998609 -0.00605021 0)
(0.997564 -0.00723093 0)
(0.995255 -0.00666294 0)
(0.993976 -0.00643924 0)
(0.993028 -0.00578874 0)
(0.992665 -0.00509067 0)
(0.992996 -0.00392429 0)
(0.993463 -0.00349693 0)
(0.9941 -0.00333274 0)
(0.99361 -0.00327173 0)
(0.993239 -0.00264012 0)
(0.992876 -0.00222922 0)
(0.99382 -0.00207321 0)
(0.994197 -0.0022031 0)
(0.999774 -0.000230542 0)
(1.00086 -0.00199337 0)
(0.998149 -0.00352505 0)
(0.998466 -0.0027041 0)
(0.997895 -0.00195792 0)
(0.999143 -0.00367017 0)
(0.998468 -0.0056904 0)
(0.997713 -0.00687954 0)
(0.995588 -0.00631495 0)
(0.994315 -0.00606367 0)
(0.993428 -0.005491 0)
(0.993162 -0.00501243 0)
(0.993468 -0.00398737 0)
(0.993776 -0.00352892 0)
(0.99431 -0.00326296 0)
(0.993911 -0.0032474 0)
(0.99362 -0.00272605 0)
(0.993173 -0.00231898 0)
(0.993947 -0.00206209 0)
(0.994295 -0.00212664 0)
(0.999758 -0.000268324 0)
(1.00077 -0.00184624 0)
(0.99829 -0.00326108 0)
(0.998769 -0.00280175 0)
(0.998018 -0.00216272 0)
(0.998962 -0.00355151 0)
(0.998331 -0.00532529 0)
(0.997851 -0.00653914 0)
(0.99593 -0.0060142 0)
(0.994657 -0.00570858 0)
(0.993789 -0.00516657 0)
(0.993605 -0.00488645 0)
(0.993926 -0.0040215 0)
(0.994119 -0.00356504 0)
(0.994534 -0.00321068 0)
(0.994184 -0.00320408 0)
(0.993988 -0.00277181 0)
(0.993502 -0.00238767 0)
(0.994125 -0.00207601 0)
(0.994425 -0.0020982 0)
(0.999744 -0.000296471 0)
(1.00069 -0.00172167 0)
(0.998405 -0.00300927 0)
(0.999033 -0.00285863 0)
(0.998157 -0.00235014 0)
(0.998824 -0.00345295 0)
(0.998202 -0.0049613 0)
(0.997973 -0.0061887 0)
(0.996274 -0.00575114 0)
(0.995009 -0.00539616 0)
(0.99412 -0.00483838 0)
(0.993991 -0.00471589 0)
(0.994358 -0.00401698 0)
(0.994483 -0.0036041 0)
(0.994786 -0.00317091 0)
(0.994447 -0.00313412 0)
(0.994333 -0.00276853 0)
(0.993842 -0.00244066 0)
(0.994326 -0.00208871 0)
(0.994592 -0.00211014 0)
(0.99973 -0.000315506 0)
(1.00063 -0.00161574 0)
(0.998499 -0.00277148 0)
(0.999255 -0.00287647 0)
(0.998305 -0.00251959 0)
(0.998735 -0.003368 0)
(0.998086 -0.00460199 0)
(0.998068 -0.0058315 0)
(0.99661 -0.00551509 0)
(0.995378 -0.00513517 0)
(0.994434 -0.00451814 0)
(0.994323 -0.00449662 0)
(0.994749 -0.0039654 0)
(0.994857 -0.00363665 0)
(0.99507 -0.00314533 0)
(0.994709 -0.00306432 0)
(0.99465 -0.00273654 0)
(0.994185 -0.0024827 0)
(0.994543 -0.00208787 0)
(0.994777 -0.00211802 0)
(0.999718 -0.000324636 0)
(1.00058 -0.00152894 0)
(0.998576 -0.0025509 0)
(0.999435 -0.00285234 0)
(0.998459 -0.00266168 0)
(0.998693 -0.00330214 0)
(0.997987 -0.00425671 0)
(0.998135 -0.00546471 0)
(0.996927 -0.00528435 0)
(0.995764 -0.00492868 0)
(0.994748 -0.00422512 0)
(0.994606 -0.00424435 0)
(0.995086 -0.00386274 0)
(0.995223 -0.00364418 0)
(0.995381 -0.00313801 0)
(0.994982 -0.00300687 0)
(0.994942 -0.00267967 0)
(0.994528 -0.0025011 0)
(0.994778 -0.00208334 0)
(0.994949 -0.0020923 0)
(0.999705 -0.000323815 0)
(1.00054 -0.00145609 0)
(0.998642 -0.00235237 0)
(0.999576 -0.00278842 0)
(0.99861 -0.00276759 0)
(0.9987 -0.00325535 0)
(0.997914 -0.00393809 0)
(0.998174 -0.00508883 0)
(0.997211 -0.00504373 0)
(0.996162 -0.00477794 0)
(0.995077 -0.00397798 0)
(0.994855 -0.00397633 0)
(0.995366 -0.00370597 0)
(0.995561 -0.00361081 0)
(0.995706 -0.00313409 0)
(0.995278 -0.00296898 0)
(0.99522 -0.00260957 0)
(0.994854 -0.00249655 0)
(0.995039 -0.00209386 0)
(0.995102 -0.00204128 0)
(0.999694 -0.000316555 0)
(1.00051 -0.00139167 0)
(0.998703 -0.00217262 0)
(0.999682 -0.00269393 0)
(0.998753 -0.00282861 0)
(0.99875 -0.00321873 0)
(0.997872 -0.00365677 0)
(0.99819 -0.00471717 0)
(0.997447 -0.00477591 0)
(0.996558 -0.00465617 0)
(0.995437 -0.00379788 0)
(0.99509 -0.00371235 0)
(0.99559 -0.00350703 0)
(0.995856 -0.00353568 0)
(0.996028 -0.00311132 0)
(0.995598 -0.00295243 0)
(0.995496 -0.00254461 0)
(0.995153 -0.00246136 0)
(0.995325 -0.00211354 0)
(0.995264 -0.00199125 0)
(0.999684 -0.000302067 0)
(1.00049 -0.00133314 0)
(0.998763 -0.00201448 0)
(0.999758 -0.00257045 0)
(0.998881 -0.00284483 0)
(0.998835 -0.00318689 0)
(0.997867 -0.00341099 0)
(0.998196 -0.00436558 0)
(0.997632 -0.00448114 0)
(0.99693 -0.0045193 0)
(0.995828 -0.00369182 0)
(0.995335 -0.003485 0)
(0.995767 -0.00327567 0)
(0.996101 -0.00341918 0)