/*--------------------------------*- C++ -*----------------------------------*\
| =========                 |                                                 |
| \\      /  F ield         | OpenFOAM: The Open Source CFD Toolbox           |
|  \\    /   O peration     | Version:  v1912                                 |
|   \\  /    A nd           | Website:  www.openfoam.com                      |
|    \\/     M anipulation  |                                                 |
\*---------------------------------------------------------------------------*/
FoamFile
{
    version     2.0;
    format      ascii;
    class       volScalarField;
    location    "5.35";
    object      p;
}
// * * * * * * * * * * * * * * * * * * * * * * * * * * * * * * * * * * * * * //

dimensions      [0 2 -2 0 0 0 0];


internalField   nonuniform List<scalar> 
9600
(
2.51927e-10
0.00126158
0.00215364
0.000696551
0.000478299
-5.47786e-05
-0.000112438
-0.00197976
-0.00223798
-0.00316771
-0.000984938
-0.00690718
-0.0150892
-0.00853175
-0.00928353
-0.00678653
-0.00993112
-0.0103917
-0.0119473
-0.0138986
-2.35401e-06
0.00127543
0.00215305
0.000695523
0.000482802
-5.81503e-05
-0.000116242
-0.00197969
-0.0022466
-0.00318351
-0.000966054
-0.00691062
-0.0146564
-0.00856005
-0.00923592
-0.00688605
-0.00987649
-0.0104148
-0.0119232
-0.0138203
-4.70705e-06
0.00128254
0.00215174
0.000693976
0.000488373
-6.45071e-05
-0.000123387
-0.00197757
-0.00225731
-0.00319534
-0.000967319
-0.00691861
-0.0142369
-0.00860403
-0.00917057
-0.00700395
-0.00977318
-0.0104591
-0.0118747
-0.0136778
-7.02485e-06
0.00129055
0.00215023
0.000690844
0.000492912
-7.1428e-05
-0.000130725
-0.00197022
-0.00226543
-0.00321013
-0.000984098
-0.00694266
-0.0138157
-0.00866358
-0.00910699
-0.00713126
-0.00967404
-0.0104961
-0.011827
-0.0135559
-9.28573e-06
0.00129856
0.00214828
0.000685712
0.0004982
-7.85513e-05
-0.00013699
-0.00195761
-0.00226895
-0.00322403
-0.00101323
-0.00697695
-0.0133898
-0.00874369
-0.00904257
-0.00727058
-0.00958421
-0.0105131
-0.0117928
-0.0134156
-1.15354e-05
0.00130633
0.00214586
0.000679355
0.000505236
-8.62482e-05
-0.000142029
-0.0019398
-0.00226592
-0.00323612
-0.00105133
-0.00701371
-0.0129618
-0.00883471
-0.0089733
-0.00741441
-0.00948664
-0.0105171
-0.0117593
-0.0132374
-1.38803e-05
0.00131393
0.00214324
0.000672989
0.000514029
-9.46326e-05
-0.0001456
-0.00191674
-0.0022556
-0.00324552
-0.00109512
-0.00704599
-0.012534
-0.00892375
-0.00889992
-0.00754971
-0.00938687
-0.0105117
-0.0117217
-0.0130455
-1.64111e-05
0.00132161
0.00214065
0.000667826
0.000524626
-0.000103592
-0.000147281
-0.00188861
-0.00223776
-0.00325163
-0.00114255
-0.0070697
-0.0121079
-0.00900264
-0.0088239
-0.00767174
-0.0092978
-0.0104934
-0.0116895
-0.0128533
-1.91634e-05
0.00132963
0.00213824
0.000664767
0.000537112
-0.000112939
-0.000146835
-0.00185576
-0.00221248
-0.00325439
-0.00119265
-0.00708267
-0.0116852
-0.00906695
-0.00874756
-0.00778138
-0.00922154
-0.01046
-0.0116678
-0.0126576
-2.2121e-05
0.00133816
0.00213609
0.000664196
0.000551308
-0.000122454
-0.000144471
-0.00181888
-0.00218042
-0.0032542
-0.00124511
-0.00708322
-0.0112668
-0.00911441
-0.00867452
-0.00787749
-0.00915676
-0.0104114
-0.0116535
-0.0124568
-2.52332e-05
0.00134727
0.00213418
0.000665873
0.000566743
-0.000131926
-0.000140804
-0.00177908
-0.00214319
-0.00325192
-0.00129986
-0.00706929
-0.0108537
-0.00914367
-0.00860754
-0.00795817
-0.00910633
-0.0103483
-0.011644
-0.0122577
-2.8424e-05
0.0013569
0.00213246
0.000669205
0.000582757
-0.000141175
-0.000136635
-0.00173777
-0.00210318
-0.00324845
-0.00135659
-0.00703933
-0.0104474
-0.00915294
-0.00854777
-0.00802327
-0.00907449
-0.0102714
-0.0116363
-0.0120688
-3.16041e-05
0.00136696
0.00213095
0.000673651
0.000598751
-0.000150018
-0.000132747
-0.00169628
-0.00206274
-0.00324433
-0.00141437
-0.00699329
-0.0100508
-0.00913913
-0.00849585
-0.00807224
-0.00906256
-0.010183
-0.0116254
-0.0118973
-3.46897e-05
0.0013773
0.00212968
0.000678903
0.000614449
-0.000158274
-0.000129691
-0.00165552
-0.00202344
-0.00323926
-0.00147224
-0.00693248
-0.00966727
-0.00909825
-0.00845188
-0.00810176
-0.00906717
-0.0100863
-0.0116042
-0.011747
-3.76042e-05
0.00138783
0.00212869
0.000684883
0.000629872
-0.000165843
-0.000127687
-0.0016158
-0.00198592
-0.0032321
-0.00152966
-0.00685887
-0.00929995
-0.00902705
-0.00841466
-0.00810613
-0.00908012
-0.00998513
-0.0115645
-0.0116169
-4.02694e-05
0.00139841
0.00212805
0.000691637
0.000645131
-0.000172692
-0.000126719
-0.001577
-0.00195027
-0.00322143
-0.00158642
-0.00677419
-0.00895107
-0.00892459
-0.00838228
-0.0080804
-0.00908944
-0.00988229
-0.0114977
-0.0115006
-4.25994e-05
0.00140893
0.00212783
0.000699172
0.000660342
-0.000178805
-0.00012669
-0.00153876
-0.00191635
-0.00320614
-0.00164251
-0.00667919
-0.00862121
-0.00879176
-0.00835414
-0.00802263
-0.00908259
-0.00977955
-0.0113967
-0.0113887
-4.44927e-05
0.00141927
0.00212811
0.000707406
0.000675626
-0.000184173
-0.000127528
-0.00150063
-0.00188407
-0.00318544
-0.00169841
-0.00657395
-0.00831003
-0.00863077
-0.00832563
-0.007935
-0.00905034
-0.00967864
-0.0112575
-0.0112717
-4.58307e-05
0.00142929
0.00212899
0.000716206
0.000691045
-0.000188712
-0.000129182
-0.00146221
-0.00185355
-0.00315877
-0.00175469
-0.00645849
-0.00801717
-0.00844487
-0.00829547
-0.0078232
-0.00898773
-0.00958114
-0.0110801
-0.0111419
-4.64791e-05
0.0014388
0.00213055
0.000725428
0.000706638
-0.00019228
-0.000131707
-0.00142308
-0.00182514
-0.00312579
-0.00181161
-0.00633309
-0.00774201
-0.008238
-0.00826196
-0.00769482
-0.00889304
-0.00948789
-0.0108692
-0.0109933
-4.62852e-05
0.00144761
0.00213291
0.000734937
0.000722452
-0.000194764
-0.000135277
-0.00138279
-0.0017993
-0.00308617
-0.0018692
-0.0061983
-0.00748354
-0.00801395
-0.00822278
-0.007559
-0.00876678
-0.00939748
-0.0106331
-0.0108214
-4.50792e-05
0.00145552
0.00213617
0.000744651
0.000738474
-0.000196061
-0.000140086
-0.00134082
-0.00177653
-0.00303981
-0.00192693
-0.00605494
-0.00724075
-0.00777629
-0.00817476
-0.00742425
-0.00861021
-0.00930727
-0.0103831
-0.010623
-4.26743e-05
0.00146227
0.00214043
0.000754541
0.000754658
-0.000195974
-0.000146368
-0.00129678
-0.00175719
-0.00298695
-0.00198395
-0.00590417
-0.0070121
-0.00752879
-0.00811487
-0.00729574
-0.00842552
-0.00921461
-0.0101294
-0.0103947
-3.8863e-05
0.0014676
0.0021458
0.000764623
0.000770933
-0.000194157
-0.000154415
-0.00125042
-0.00174145
-0.00292795
-0.00203916
-0.0057477
-0.00679537
-0.00727447
-0.00804071
-0.00717734
-0.0082162
-0.00911527
-0.00987961
-0.0101349
-3.34108e-05
0.00147124
0.00215239
0.000774987
0.000787207
-0.00019027
-0.000164557
-0.00120147
-0.0017295
-0.00286347
-0.00209084
-0.00558744
-0.0065885
-0.00701586
-0.0079497
-0.00707126
-0.00798629
-0.00900322
-0.00963895
-0.00984528
-2.60752e-05
0.00147289
0.00216023
0.000785823
0.00080342
-0.000184079
-0.00017711
-0.00114964
-0.00172113
-0.00279465
-0.00213683
-0.0054253
-0.00638983
-0.00675568
-0.00783972
-0.00697708
-0.00774026
-0.00887212
-0.00941078
-0.00953044
-1.6593e-05
0.00147224
0.00216939
0.000797378
0.000819375
-0.000175115
-0.000192342
-0.0010948
-0.00171557
-0.00272296
-0.00217454
-0.00526279
-0.00619838
-0.00649616
-0.00770923
-0.00689322
-0.00748337
-0.00871547
-0.00919548
-0.00919754
-4.67054e-06
0.00146896
0.00217991
0.000809915
0.000834811
-0.000162635
-0.000210515
-0.00103718
-0.00171173
-0.00265011
-0.00220126
-0.00510041
-0.00601362
-0.00623928
-0.00755666
-0.00681781
-0.00722187
-0.00852736
-0.00899109
-0.00885621
9.99765e-06
0.00146275
0.00219171
0.00082379
0.000849525
-0.000145988
-0.000231563
-0.000977182
-0.00170805
-0.00257803
-0.00221513
-0.00493804
-0.00583464
-0.00598651
-0.00738095
-0.00674842
-0.00696229
-0.00830339
-0.00879368
-0.00851745
2.77602e-05
0.00145331
0.00220466
0.000839523
0.000863074
-0.000124553
-0.000255278
-0.000915597
-0.00170221
-0.00250874
-0.00221496
-0.00477503
-0.00566129
-0.00573881
-0.00718164
-0.00668137
-0.00671075
-0.00804172
-0.00859633
-0.00819221
4.89659e-05
0.00144034
0.00221866
0.000857688
0.000874735
-9.76448e-05
-0.000281457
-0.00085356
-0.00169114
-0.00244372
-0.00220051
-0.00460956
-0.00549423
-0.0054977
-0.00695845
-0.00661167
-0.00647249
-0.0077435
-0.00838868
-0.00789021
7.39676e-05
0.00142369
0.00223348
0.000878912
0.000883654
-6.47104e-05
-0.000309074
-0.000792954
-0.00167222
-0.00238317
-0.00217308
-0.00443903
-0.00533311
-0.0052652
-0.00671159
-0.0065339
-0.00625141
-0.00741338
-0.00815955
-0.00761705
0.000103166
0.0014032
0.0022486
0.000903953
0.000889126
-2.54558e-05
-0.000336741
-0.000735894
-0.00164352
-0.00232622
-0.00213499
-0.00426184
-0.00517605
-0.00504308
-0.00644274
-0.00644153
-0.0060491
-0.00705979
-0.00789824
-0.00737054
0.000136926
0.00137888
0.00226333
0.000933581
0.000890669
2.00951e-05
-0.000363181
-0.000684381
-0.00160324
-0.00227123
-0.00208902
-0.00407684
-0.00502049
-0.00483294
-0.0061548
-0.0063286
-0.00586479
-0.00669379
-0.00759566
-0.00713924
0.000175595
0.00135089
0.00227692
0.000968551
0.000887994
7.13789e-05
-0.000386265
-0.000640479
-0.00155113
-0.00221589
-0.00203785
-0.00388306
-0.00486386
-0.00463607
-0.00585105
-0.00618946
-0.00569435
-0.00632697
-0.00724929
-0.00690681
0.000219513
0.0013195
0.00228826
0.00100953
0.0008813
0.000127251
-0.000403311
-0.000605298
-0.00148819
-0.00215732
-0.00198392
-0.00368168
-0.00470282
-0.00445233
-0.00553614
-0.00601912
-0.00553137
-0.00596871
-0.00686342
-0.00665526
0.000268966
0.00128526
0.00229591
0.00105712
0.000871299
0.000186101
-0.000411879
-0.000579127
-0.00141618
-0.00209201
-0.00192896
-0.00347562
-0.00453371
-0.0042794
-0.00521542
-0.00581628
-0.00536939
-0.00562456
-0.00644815
-0.0063686
0.000324158
0.001249
0.00229812
0.00111188
0.000859337
0.000245731
-0.000409688
-0.000561005
-0.0013384
-0.00201718
-0.00187201
-0.00326797
-0.00435515
-0.0041146
-0.00489352
-0.00558033
-0.00520119
-0.00529564
-0.00601407
-0.00603965
0.000385207
0.0012118
0.00229284
0.00117407
0.000847575
0.000303441
-0.000394784
-0.000548038
-0.00125884
-0.00193268
-0.0018113
-0.00306073
-0.00416625
-0.00395498
-0.00457132
-0.00531226
-0.00502203
-0.00498197
-0.00556734
-0.00566209
0.000452126
0.00117494
0.00227806
0.00124376
0.000838641
0.000356659
-0.000366053
-0.000537294
-0.00118029
-0.0018376
-0.00174565
-0.00285689
-0.00396727
-0.00379732
-0.00425707
-0.00501327
-0.00482713
-0.00468471
-0.00511873
-0.00523449
0.000524766
0.00113979
0.00225196
0.0013206
0.000835864
0.000403174
-0.000323483
-0.000525283
-0.00110621
-0.00173354
-0.00167133
-0.00265638
-0.00376059
-0.0036412
-0.00395124
-0.00468718
-0.0046078
-0.00439683
-0.00467738
-0.00476882
0.000602918
0.00110772
0.00221349
0.0014034
0.000842545
0.000442036
-0.000268902
-0.000526394
-0.00103631
-0.00162385
-0.00158802
-0.00245808
-0.00354556
-0.00348458
-0.00366001
-0.00434246
-0.00436352
-0.00411063
-0.0042408
-0.00427005
0.000685866
0.0010803
0.00216211
0.00149041
0.000861803
0.000473093
-0.000204449
-0.000504484
-0.000969927
-0.00150963
-0.00149426
-0.00226068
-0.0033249
-0.00332683
-0.00338073
-0.00398417
-0.00409892
-0.00382793
-0.00381119
-0.00374103
0.000773299
0.0010587
0.00209874
0.00157846
0.000896522
0.000497885
-0.00013469
-0.000466769
-0.000904652
-0.00139515
-0.00139028
-0.00205839
-0.00309535
-0.0031666
-0.00312834
-0.0036152
-0.00380043
-0.00353686
-0.00338764
-0.0032326
0.000868154
0.00104445
0.00202514
0.00166414
0.000948094
0.000519474
-6.40338e-05
-0.000414466
-0.000835425
-0.00128017
-0.00127953
-0.00185184
-0.00284613
-0.00298411
-0.00286303
-0.00322708
-0.00346962
-0.00325411
-0.00301604
-0.00280098
0.000959963
0.00103923
0.00194374
0.00174376
0.00101704
0.000542007
5.03118e-06
-0.000349242
-0.000759364
-0.00116403
-0.00116108
-0.00163961
-0.00257868
-0.0027768
-0.00255295
-0.00281539
-0.0031058
-0.00297705
-0.00270485
-0.00245407
0.00105245
0.00104461
0.00185893
0.00181172
0.00110285
0.000571264
6.9294e-05
-0.000269621
-0.00067131
-0.00104782
-0.0010384
-0.00142037
-0.00229373
-0.00256454
-0.00236255
-0.00247047
-0.00275603
-0.00272103
-0.00243776
-0.00208763
0.00114371
0.00106229
0.00177444
0.00186588
0.00120056
0.00061267
0.000130314
-0.000183057
-0.000570075
-0.000925411
-0.000910466
-0.0012025
-0.00199358
-0.00231571
-0.00208978
-0.00210035
-0.00236279
-0.00242722
-0.0021856
-0.00180018
0.00123291
0.00109299
0.00169583
0.00189935
0.00130647
0.000671146
0.000188868
-9.19231e-05
-0.000454338
-0.000793435
-0.000780631
-0.000988072
-0.00168347
-0.00205045
-0.00187167
-0.00178328
-0.00197683
-0.00210248
-0.00193132
-0.00151503
0.00131918
0.00113695
0.00162668
0.00191223
0.00141486
0.000748892
0.000249725
-2.70749e-06
-0.00032768
-0.000648863
-0.000643856
-0.000779499
-0.00137887
-0.00177379
-0.00164116
-0.00148958
-0.00160256
-0.00174334
-0.00164824
-0.00123335
0.00140195
0.00119351
0.00157059
0.00190585
0.0015189
0.000846972
0.000317739
8.39624e-05
-0.000191027
-0.000489577
-0.000501758
-0.000581954
-0.00107724
-0.00147655
-0.00140655
-0.00121525
-0.00123745
-0.00135531
-0.00132305
-0.000936828
0.00148153
0.00126053
0.00153041
0.00188192
0.00161454
0.000962765
0.000397854
0.000171232
-5.28557e-05
-0.00032081
-0.000349024
-0.000385906
-0.00078007
-0.00117007
-0.00115235
-0.000940378
-0.000884795
-0.000957585
-0.000951361
-0.000619565
0.00155793
0.00133605
0.00150801
0.00185088
0.001696
0.00109085
0.00049503
0.000256968
8.44931e-05
-0.00014147
-0.000180849
-0.000191404
-0.000493933
-0.000848965
-0.000874775
-0.000666748
-0.000551104
-0.000565202
-0.000551667
-0.000281426
0.00163194
0.00141717
0.00150502
0.00179341
0.00175971
0.00122497
0.000610671
0.000351744
0.000222501
4.18581e-05
-2.90749e-06
7.6255e-06
-0.00021051
-0.000520904
-0.000583702
-0.000393019
-0.000224349
-0.000181807
-0.000146919
8.32657e-05
0.00170419
0.00150153
0.00152222
0.00176689
0.0018053
0.00135653
0.000745012
0.000458968
0.000358217
0.000227424
0.000189215
0.0002155
6.39558e-05
-0.000189586
-0.000271217
-0.000106751
9.4117e-05
0.000188255
0.000251363
0.00047127
0.00177558
0.00158714
0.00155895
0.00174999
0.00183275
0.00147968
0.000894604
0.00058221
0.000498312
0.00041503
0.000389369
0.000428785
0.000347202
0.000147786
6.08094e-05
0.000186702
0.000398602
0.000549074
0.000647366
0.000868606
0.00184703
0.00167268
0.00161245
0.00174719
0.00184794
0.00158869
0.00105319
0.000723623
0.000645588
0.000601779
0.000593864
0.000650121
0.000622033
0.000480989
0.000400386
0.000496983
0.000703277
0.00089973
0.00103878
0.00125934
0.00191946
0.00175742
0.00167871
0.00176175
0.00185893
0.00168051
0.00121245
0.000884049
0.000804398
0.000791128
0.000803038
0.000875356
0.000894896
0.000812374
0.000752223
0.000830438
0.00101507
0.00123027
0.00141728
0.0016485
0.00199346
0.00184158
0.00175247
0.00179414
0.00187461
0.00175618
0.00136727
0.00105876
0.000977292
0.000984686
0.00101485
0.00110196
0.00116569
0.00114415
0.00111048
0.00117625
0.0013395
0.00155181
0.0017797
0.0020409
0.00206918
0.0019253
0.00183065
0.00184182
0.0019003
0.00182274
0.0015146
0.00124242
0.00116428
0.00118632
0.00123031
0.00132999
0.00143032
0.00146715
0.00146976
0.00153082
0.00168176
0.00188386
0.00212383
0.00242057
0.00214666
0.00200876
0.00191161
0.00190046
0.00193923
0.00188926
0.00165292
0.00142913
0.00136269
0.00139805
0.00145339
0.00155934
0.00168788
0.00177691
0.00182643
0.0018933
0.00203268
0.00223143
0.00246236
0.00277744
0.00222569
0.00209214
0.00199431
0.00196789
0.00199149
0.00196158
0.00178366
0.0016126
0.00156842
0.00161858
0.00168594
0.00179601
0.00194127
0.00207203
0.00217145
0.00225996
0.00238588
0.0025858
0.00281338
0.00312066
0.00230577
0.00217566
0.00207876
0.00204277
0.00205571
0.00204155
0.00191171
0.00179028
0.00177637
0.00184654
0.0019274
0.00204151
0.00219662
0.00235552
0.00249721
0.00262339
0.00274357
0.00293759
0.00317751
0.00346779
0.00238652
0.00225928
0.00216519
0.00212389
0.00213004
0.00212956
0.00204061
0.00196313
0.00198079
0.00207805
0.00217733
0.00229456
0.00245584
0.00263466
0.00280476
0.00297243
0.00310581
0.00328397
0.00354021
0.00382912
0.00246775
0.00234292
0.00225341
0.00221025
0.00221233
0.00222504
0.00217192
0.00213423
0.00218038
0.00230587
0.00243339
0.0025571
0.00271717
0.00291327
0.00310188
0.00330012
0.00346403
0.00362875
0.00389063
0.0041993
0.00254929
0.00242639
0.00234304
0.00230131
0.00230084
0.00232639
0.00230601
0.00230512
0.00237667
0.00252714
0.00268693
0.00282832
0.00298409
0.00318823
0.00339461
0.00361133
0.00380938
0.00397424
0.00422536
0.00456088
0.00263092
0.00250934
0.00243325
0.00239655
0.00239476
0.00243179
0.00244201
0.00247589
0.0025706
0.00274274
0.00293254
0.00310054
0.00325885
0.00346188
0.00368086
0.00391011
0.00413852
0.00431959
0.00455168
0.0049005
0.00271225
0.00259169
0.00252323
0.00249485
0.00249306
0.00253958
0.00257861
0.00264666
0.00276122
0.002952
0.00317121
0.00336595
0.00353634
0.00373982
0.00396347
0.00419677
0.00444691
0.00465866
0.00487877
0.00521989
0.00279291
0.00267315
0.002612
0.00259478
0.00259489
0.00264838
0.00271305
0.00281592
0.0029503
0.0031539
0.00339979
0.00362439
0.00380924
0.00401806
0.00424892
0.00447904
0.00473414
0.00497986
0.00520787
0.00553186
0.00287204
0.00275342
0.00269867
0.00269445
0.00269878
0.00275772
0.00284354
0.00297924
0.00313716
0.00335172
0.00361604
0.00387255
0.00407707
0.00428892
0.00453262
0.00476413
0.00500865
0.0052767
0.00552782
0.00584273
0.00294922
0.00283194
0.00278258
0.00279172
0.00280234
0.00286574
0.0029697
0.00313431
0.00331588
0.00354557
0.00382256
0.004106
0.00434129
0.00455554
0.00480767
0.00505315
0.00528205
0.00555484
0.00583144
0.00614782
0.003023
0.00290783
0.00286302
0.00288489
0.00290359
0.00296993
0.00308878
0.00328015
0.00348339
0.00372985
0.00402077
0.00431975
0.00459107
0.00482061
0.00507039
0.00533758
0.00556464
0.00582767
0.00612456
0.00645476
0.00309345
0.00298005
0.00293883
0.00297157
0.00299968
0.00306944
0.00319745
0.00341217
0.00363932
0.00390112
0.00421145
0.00452236
0.00482153
0.0050848
0.00532286
0.00559593
0.00583203
0.00607843
0.00638387
0.00674218
0.00315883
0.0030485
0.00300994
0.00304992
0.00308628
0.00316056
0.00329438
0.0035245
0.00377584
0.00405146
0.00438406
0.00471821
0.00504167
0.00536226
0.00562226
0.00589094
0.00613093
0.00632953
0.00657172
0.00688782
0.00321828
0.00310749
0.00307445
0.00312043
0.00316089
0.00323866
0.0033765
0.00361593
0.0038866
0.00417457
0.0045141
0.00486714
0.00519679
0.00555562
0.00587307
0.00618659
0.00652939
0.00683911
0.00714533
0.00747513
0.00327302
0.00316277
0.00312895
0.00317774
0.00322606
0.00330509
0.00344091
0.00368267
0.00397696
0.0043049
0.00468732
0.00509643
0.00547321
0.00584179
0.00613374
0.00632604
0.0065067
0.00669438
0.00691562
0.00722402
0.0033203
0.00319734
0.00316414
0.00321082
0.00326403
0.00334701
0.00347255
0.00368306
0.00393413
0.00421774
0.00457777
0.00504406
0.0055643
0.00612167
0.00666056
0.0071424
0.00760326
0.00806366
0.00848962
0.00883947
0.00336904
0.00326693
0.00321853
0.00326627
0.00330933
0.00337707
0.0035012
0.00373981
0.00407419
0.00445367
0.00488007
0.00534616
0.00576452
0.00615433
0.00647841
0.00670753
0.00688945
0.00708289
0.00730741
0.00756711
0.00335188
0.00322679
0.00319972
0.00327886
0.00334535
0.00341371
0.00352535
0.00374697
0.00408996
0.0044793
0.00486651
0.00533678
0.00581439
0.00629649
0.00683694
0.00738907
0.0079015
0.00835802
0.00875874
0.00908567
0.00347395
0.00334849
0.00326313
0.00325379
0.00324145
0.00326641
0.0033695
0.00358635
0.00394593
0.00442369
0.00489289
0.00542303
0.00597078
0.00641966
0.00680614
0.00717114
0.00753648
0.00788771
0.00822878
0.00854013
-0.0168023
-0.0115655
-0.0129756
-0.0161136
-0.0154594
-0.0121568
-0.00858812
-0.00562105
-0.00326184
-0.00129399
0.000351253
0.00169119
0.00303138
0.00457916
0.00603073
0.00721873
0.00834746
0.00944775
0.0104289
0.0113102
0.0121047
0.0128901
0.0138991
0.0152297
0.0166916
0.018022
0.0191817
0.0202832
0.0213477
0.0223843
0.0234898
0.0246651
0.025802
0.0268807
0.0279737
0.0291363
0.0303308
0.0315576
0.0328513
0.034187
0.0355194
0.0368438
0.0381758
0.0395191
0.0408791
0.042262
0.043676
0.04511
0.0465824
0.0480739
0.0495968
0.0511518
0.0527154
0.0543057
0.0559315
0.0575501
0.0592278
0.0609653
0.0627054
0.0644821
0.0663208
0.0682013
0.0700936
0.072001
0.0739398
0.0758775
0.0777786
0.0797665
0.0818588
0.0840184
0.0862015
0.0884592
0.0907895
0.0930606
0.0952234
0.0974732
0.0999218
0.102442
0.104945
0.107488
0.1101
0.112724
0.11535
0.118076
0.12084
0.123668
0.126533
0.129446
0.132456
0.135518
0.138668
0.141811
0.145054
0.148306
0.151674
0.155076
0.158602
0.162192
0.165651
0.169327
-0.01633
-0.0115824
-0.0128649
-0.0159696
-0.0153782
-0.0121177
-0.00856581
-0.00560656
-0.00325078
-0.00128392
0.000360987
0.00169967
0.00303828
0.00458559
0.00603704
0.00722434
0.00835253
0.00945261
0.0104334
0.0113143
0.0121084
0.0128931
0.0139016
0.0152321
0.0166942
0.0180246
0.019184
0.0202853
0.0213497
0.022386
0.0234913
0.0246665
0.0258034
0.026882
0.0279748
0.0291372
0.0303318
0.0315584
0.0328521
0.0341877
0.0355201
0.0368445
0.0381764
0.0395197
0.0408796
0.0422625
0.0436766
0.0451105
0.0465828
0.0480743
0.0495972
0.0511523
0.0527158
0.0543061
0.0559319
0.0575505
0.0592282
0.0609656
0.0627057
0.0644824
0.0663211
0.0682016
0.0700939
0.0720013
0.07394
0.0758778
0.0777789
0.0797667
0.081859
0.0840186
0.0862017
0.0884594
0.0907897
0.0930608
0.0952236
0.0974734
0.099922
0.102442
0.104945
0.107488
0.1101
0.112724
0.11535
0.118076
0.12084
0.123668
0.126533
0.129446
0.132456
0.135518
0.138668
0.141812
0.145054
0.148306
0.151674
0.155076
0.158602
0.162192
0.165651
0.169328
-0.016145
-0.0117007
-0.0126428
-0.0156709
-0.0152257
-0.0120545
-0.00853314
-0.00558656
-0.00323811
-0.00127532
0.000368412
0.00170705
0.00304529
0.004592
0.00604269
0.00722919
0.00835706
0.00945704
0.0104376
0.0113181
0.0121115
0.0128953
0.0139033
0.0152341
0.0166967
0.018027
0.019186
0.0202871
0.0213513
0.0223875
0.0234926
0.0246678
0.0258047
0.0268831
0.0279757
0.0291381
0.0303325
0.031559
0.0328527
0.0341884
0.0355207
0.036845
0.0381769
0.0395201
0.0408801
0.042263
0.043677
0.0451109
0.0465832
0.0480747
0.0495976
0.0511526
0.0527162
0.0543065
0.0559322
0.0575508
0.0592284
0.0609659
0.062706
0.0644827
0.0663213
0.0682018
0.0700941
0.0720015
0.0739403
0.0758781
0.0777791
0.0797669
0.0818592
0.0840188
0.0862018
0.0884595
0.0907899
0.0930611
0.0952238
0.0974735
0.0999221
0.102442
0.104946
0.107488
0.1101
0.112724
0.11535
0.118076
0.12084
0.123668
0.126533
0.129446
0.132456
0.135518
0.138668
0.141812
0.145054
0.148306
0.151674
0.155076
0.158602
0.162192
0.165651
0.169328
-0.0160129
-0.0117764
-0.012336
-0.0152741
-0.0150051
-0.0119573
-0.00847921
-0.00555271
-0.00321749
-0.00126352
0.000376648
0.00171583
0.00305437
0.00459934
0.00604816
0.00723388
0.00836168
0.00946179
0.0104425
0.0113227
0.0121152
0.0128979
0.0139053
0.0152365
0.0166996
0.0180301
0.0191885
0.0202892
0.0213533
0.0223892
0.0234943
0.0246694
0.0258062
0.0268844
0.0279768
0.0291391
0.0303335
0.0315598
0.0328534
0.0341891
0.0355214
0.0368456
0.0381775
0.0395207
0.0408806
0.0422634
0.0436774
0.0451113
0.0465836
0.0480751
0.049598
0.051153
0.0527166
0.0543068
0.0559326
0.0575511
0.0592287
0.0609662
0.0627063
0.0644829
0.0663216
0.0682021
0.0700944
0.0720018
0.0739405
0.0758784
0.0777793
0.079767
0.0818594
0.084019
0.086202
0.0884597
0.0907901
0.0930613
0.0952239
0.0974735
0.0999222
0.102442
0.104946
0.107488
0.110101
0.112725
0.11535
0.118076
0.12084
0.123668
0.126533
0.129446
0.132456
0.135518
0.138668
0.141812
0.145054
0.148306
0.151674
0.155076
0.158602
0.162193
0.165651
0.169329
-0.0158398
-0.0118185
-0.0120131
-0.0148414
-0.0147517
-0.0118412
-0.00841172
-0.00550762
-0.00318859
-0.00124719
0.000386888
0.00172703
0.00306652
0.00460808
0.00605344
0.00723843
0.00836624
0.00946644
0.0104477
0.011328
0.0121196
0.0129013
0.0139083
0.0152396
0.0167034
0.0180338
0.0191917
0.0202918
0.0213557
0.0223917
0.0234966
0.0246715
0.0258081
0.0268862
0.0279784
0.0291405
0.0303348
0.0315609
0.0328544
0.0341901
0.0355223
0.0368464
0.0381782
0.0395213
0.0408811
0.0422639
0.0436779
0.0451118
0.0465841
0.0480755
0.0495984
0.0511534
0.052717
0.0543071
0.0559329
0.0575515
0.059229
0.0609666
0.0627066
0.0644832
0.0663219
0.0682024
0.0700947
0.0720021
0.0739408
0.0758787
0.0777795
0.0797671
0.0818596
0.0840193
0.0862022
0.0884598
0.0907904
0.0930616
0.0952241
0.0974736
0.0999223
0.102442
0.104946
0.107488
0.110101
0.112725
0.11535
0.118076
0.12084
0.123668
0.126533
0.129447
0.132457
0.135518
0.138669
0.141812
0.145054
0.148306
0.151674
0.155076
0.158603
0.162193
0.165652
0.169331
-0.0156481
-0.0118726
-0.0116958
-0.014383
-0.0144736
-0.0117144
-0.0083385
-0.00545674
-0.00315423
-0.00122703
0.000399576
0.00174094
0.00308145
0.00461784
0.00605832
0.00724268
0.00837057
0.00947073
0.0104528
0.0113331
0.0121239
0.0129054
0.0139127
0.0152442
0.0167083
0.0180387
0.0191957
0.0202949
0.0213588
0.0223951
0.0234998
0.0246742
0.0258104
0.0268886
0.0279807
0.0291426
0.0303366
0.0315624
0.0328558
0.0341915
0.0355236
0.0368476
0.0381791
0.0395221
0.0408818
0.0422646
0.0436785
0.0451123
0.0465845
0.048076
0.0495989
0.051154
0.0527174
0.0543075
0.0559333
0.0575519
0.0592294
0.0609669
0.0627069
0.0644835
0.0663222
0.0682027
0.0700951
0.0720024
0.0739411
0.075879
0.0777798
0.0797673
0.0818598
0.0840195
0.0862024
0.08846
0.0907907
0.093062
0.0952243
0.0974736
0.0999225
0.102443
0.104946
0.107488
0.110101
0.112725
0.11535
0.118076
0.120841
0.123668
0.126534
0.129447
0.132457
0.135518
0.138669
0.141812
0.145054
0.148306
0.151674
0.155076
0.158603
0.162193
0.165652
0.169333
-0.0154562
-0.0119327
-0.0113749
-0.013899
-0.014174
-0.011581
-0.00826351
-0.00540323
-0.00311644
-0.00120379
0.00041464
0.00175704
0.00309831
0.00462833
0.00606288
0.00724653
0.00837459
0.00947471
0.0104576
0.0113374
0.0121271
0.0129091
0.013918
0.0152503
0.0167148
0.0180451
0.0192009
0.0202986
0.0213624
0.0223996
0.0235042
0.0246774
0.0258131
0.0268916
0.0279838
0.0291454
0.0303392
0.0315647
0.0328578
0.0341935
0.0355254
0.0368491
0.0381804
0.0395232
0.0408828
0.0422654
0.0436793
0.045113
0.0465851
0.0480765
0.0495995
0.0511546
0.0527179
0.0543079
0.0559338
0.0575523
0.0592297
0.0609672
0.0627073
0.0644839
0.0663225
0.068203
0.0700954
0.0720027
0.0739415
0.0758794
0.07778
0.0797674
0.08186
0.0840199
0.0862026
0.0884602
0.0907911
0.0930624
0.0952245
0.0974737
0.0999226
0.102443
0.104946
0.107488
0.110101
0.112725
0.115351
0.118077
0.120841
0.123669
0.126534
0.129447
0.132457
0.135518
0.138669
0.141812
0.145054
0.148306
0.151674
0.155076
0.158603
0.162193
0.165652
0.169336
-0.0152512
-0.0119838
-0.0110534
-0.0133979
-0.0138561
-0.0114424
-0.00818803
-0.00534806
-0.00307568
-0.00117749
0.00043204
0.0017748
0.00311644
0.00463947
0.00606741
0.00725009
0.00837834
0.00947851
0.0104621
0.0113408
0.0121285
0.0129112
0.0139227
0.0152573
0.0167231
0.0180533
0.0192075
0.0203031
0.0213668
0.0224053
0.0235096
0.0246811
0.025816
0.026895
0.0279874
0.0291488
0.0303424
0.0315676
0.0328604
0.0341959
0.0355277
0.0368511
0.0381821
0.0395247
0.0408841
0.0422665
0.0436804
0.0451138
0.0465858
0.0480772
0.0496002
0.0511554
0.0527186
0.0543084
0.0559344
0.0575529
0.0592302
0.0609676
0.0627077
0.0644843
0.0663228
0.0682034
0.0700959
0.0720031
0.0739419
0.0758798
0.0777803
0.0797675
0.0818602
0.0840202
0.0862028
0.0884605
0.0907915
0.0930628
0.0952247
0.0974738
0.0999229
0.102443
0.104946
0.107489
0.110101
0.112725
0.115351
0.118077
0.120841
0.123669
0.126534
0.129447
0.132457
0.135518
0.138669
0.141812
0.145055
0.148306
0.151675
0.155076
0.158603
0.162193
0.165653
0.16934
-0.0150201
-0.0120251
-0.0107439
-0.0128867
-0.013519
-0.011297
-0.00811137
-0.00529101
-0.00303175
-0.00114799
0.000451693
0.00179396
0.00313562
0.0046513
0.00607209
0.00725351
0.00838186
0.0094821
0.0104664
0.0113435
0.0121282
0.0129111
0.0139258
0.0152638
0.0167323
0.0180633
0.0192156
0.0203085
0.0213718
0.0224118
0.023516
0.0246853
0.0258191
0.0268986
0.0279913
0.0291525
0.030346
0.0315711
0.0328636
0.034199
0.0355305
0.0368535
0.0381843
0.0395266
0.0408858
0.0422681
0.0436818
0.045115
0.0465866
0.0480779
0.0496011
0.0511564
0.0527194
0.0543091
0.0559351
0.0575537
0.0592307
0.0609679
0.062708
0.0644847
0.0663231
0.0682038
0.0700964
0.0720036
0.0739423
0.0758804
0.0777807
0.0797676
0.0818604
0.0840206
0.0862031
0.0884608
0.090792
0.0930633
0.095225
0.0974739
0.0999231
0.102444
0.104947
0.107489
0.110102
0.112726
0.115351
0.118077
0.120841
0.123669
0.126534
0.129447
0.132457
0.135518
0.138669
0.141812
0.145055
0.148307
0.151675
0.155076
0.158602
0.162193
0.165653
0.169344
-0.0147599
-0.0120602
-0.0104549
-0.0123677
-0.0131589
-0.0111418
-0.00803278
-0.00523216
-0.00298489
-0.00111545
0.000473512
0.00181448
0.00315584
0.00466385
0.00607702
0.00725685
0.00838512
0.00948531
0.0104704
0.0113457
0.0121268
0.0129092
0.0139269
0.015269
0.0167414
0.018074
0.0192248
0.0203147
0.0213774
0.022419
0.0235231
0.0246901
0.0258225
0.0269023
0.0279952
0.0291561
0.0303497
0.0315748
0.0328672
0.0342025
0.0355337
0.0368562
0.0381867
0.0395289
0.0408879
0.0422702
0.0436838
0.0451166
0.0465878
0.0480788
0.0496021
0.0511575
0.0527205
0.05431
0.0559361
0.0575549
0.0592315
0.0609684
0.0627085
0.0644851
0.0663234
0.068204
0.0700968
0.0720041
0.0739429
0.0758811
0.0777812
0.0797678
0.0818607
0.0840209
0.0862032
0.0884611
0.0907925
0.0930638
0.0952253
0.0974741
0.0999234
0.102444
0.104947
0.107489
0.110102
0.112726
0.115351
0.118077
0.120841
0.123669
0.126534
0.129447
0.132457
0.135519
0.138669
0.141812
0.145055
0.148307
0.151675
0.155076
0.158602
0.162193
0.165654
0.169348
-0.0144704
-0.0120859
-0.0101899
-0.0118426
-0.0127733
-0.0109748
-0.00795232
-0.00517232
-0.00293581
-0.0010801
0.000497627
0.00183653
0.00317715
0.00467716
0.0060823
0.00726023
0.00838814
0.00948803
0.0104739
0.0113475
0.0121249
0.0129062
0.0139265
0.0152725
0.0167494
0.0180843
0.019234
0.0203211
0.0213832
0.0224264
0.0235306
0.0246951
0.025826
0.0269061
0.027999
0.0291596
0.0303532
0.0315785
0.032871
0.0342064
0.0355373
0.0368592
0.0381893
0.0395313
0.0408902
0.0422725
0.0436862
0.0451187
0.0465893
0.04808
0.0496033
0.0511587
0.0527216
0.0543109
0.0559373
0.0575564
0.0592325
0.060969
0.0627091
0.0644856
0.0663235
0.0682041
0.0700971
0.0720045
0.0739433
0.0758819
0.077782
0.0797682
0.081861