/*--------------------------------*- C++ -*----------------------------------*\
| =========                 |                                                 |
| \\      /  F ield         | OpenFOAM: The Open Source CFD Toolbox           |
|  \\    /   O peration     | Version:  v1912                                 |
|   \\  /    A nd           | Website:  www.openfoam.com                      |
|    \\/     M anipulation  |                                                 |
\*---------------------------------------------------------------------------*/
FoamFile
{
    version     2.0;
    format      ascii;
    class       volScalarField;
    location    "4.55";
    object      p;
}
// * * * * * * * * * * * * * * * * * * * * * * * * * * * * * * * * * * * * * //

dimensions      [0 2 -2 0 0 0 0];


internalField   nonuniform List<scalar> 
9600
(
-1.3446e-08
0.000586546
0.00128509
0.000771303
0.00168307
0.000854426
0.00326525
0.00410115
0.00430673
0.00352501
0.00461861
0.00489379
0.00480098
0.00755588
0.00875472
0.0119772
0.0144011
0.0178101
0.0246513
0.0307798
-1.95474e-06
0.000585446
0.00128603
0.000770742
0.0016834
0.000859079
0.0032748
0.00408174
0.00431749
0.00350686
0.00461841
0.00490668
0.00478258
0.00759286
0.00875306
0.0119672
0.0144131
0.0177572
0.0247109
0.0302349
-4.4652e-06
0.000584169
0.00128657
0.000770489
0.00168478
0.000864146
0.00328224
0.00405446
0.00433662
0.00348102
0.00461735
0.00494008
0.00475439
0.00764572
0.00874839
0.0119541
0.0144066
0.0177071
0.024691
0.0295188
-7.01677e-06
0.000582623
0.00128596
0.000770903
0.00168647
0.000868028
0.00328859
0.00401695
0.00434275
0.00345421
0.00461306
0.0049892
0.00472064
0.00768894
0.00874415
0.0119285
0.0143965
0.0176557
0.0245938
0.0288844
-9.71939e-06
0.00058059
0.00128448
0.000772031
0.00168819
0.000871116
0.0032952
0.00396632
0.00433509
0.00342606
0.00460943
0.00504651
0.00468841
0.00773005
0.00874854
0.0118973
0.01439
0.0175877
0.0244707
0.0282528
-1.26858e-05
0.000578116
0.00128255
0.000773938
0.00168979
0.000873986
0.00330158
0.00390341
0.00432211
0.00339914
0.0046082
0.00511123
0.00466285
0.00776988
0.00876274
0.0118593
0.0143807
0.0175124
0.0243123
0.027634
-1.59417e-05
0.000575303
0.00128059
0.000776607
0.00169112
0.000877189
0.00330661
0.00383151
0.00431066
0.00337409
0.00460866
0.00518197
0.00464503
0.00780748
0.00878544
0.0118139
0.0143684
0.0174291
0.0241148
0.0270261
-1.94804e-05
0.000572243
0.00127894
0.000779924
0.0016921
0.000881245
0.00330903
0.00375404
0.00430559
0.0033507
0.00460962
0.00525673
0.00463495
0.00784168
0.0088148
0.011762
0.0143511
0.017337
0.0238766
0.0264289
-2.3281e-05
0.00056901
0.00127775
0.000783728
0.00169271
0.000886522
0.0033077
0.00367429
0.00431096
0.00332867
0.00461028
0.00533383
0.00463221
0.00787121
0.00884905
0.0117046
0.0143261
0.0172348
0.0235999
0.0258388
-2.73275e-05
0.000565649
0.00127704
0.000787847
0.00169302
0.000893139
0.00330195
0.00359542
0.00432879
0.00330713
0.00461029
0.00541184
0.00463583
0.00789526
0.0088864
0.0116424
0.0142907
0.0171221
0.023288
0.0252516
-3.16248e-05
0.000562192
0.00127676
0.000792106
0.00169305
0.000900908
0.00329152
0.00351985
0.00435799
0.00328522
0.00460955
0.0054893
0.00464486
0.00791325
0.00892449
0.0115763
0.0142433
0.0169978
0.0229427
0.0246646
-3.61925e-05
0.00055864
0.00127685
0.000796376
0.00169281
0.000909344
0.00327706
0.00344872
0.00439498
0.00326257
0.00460765
0.00556507
0.00465842
0.00792452
0.00896109
0.0115073
0.0141834
0.0168589
0.0225658
0.0240762
-4.1052e-05
0.000554971
0.00127726
0.000800572
0.00169228
0.000917884
0.00325968
0.00338163
0.00443501
0.00323952
0.00460389
0.00563848
0.00467543
0.00792869
0.00899456
0.0114354
0.0141101
0.0167027
0.0221602
0.0234854
-4.62193e-05
0.000551151
0.00127794
0.00080461
0.00169145
0.000926151
0.00324047
0.00331752
0.00447356
0.00321689
0.00459717
0.00570909
0.00469463
0.00792565
0.0090234
0.0113599
0.0140234
0.0165266
0.0217291
0.0228917
-5.16965e-05
0.000547145
0.00127887
0.000808412
0.00169028
0.000934022
0.00322023
0.00325573
0.00450719
0.00319548
0.00458627
0.00577658
0.00471489
0.0079152
0.00904622
0.0112798
0.013924
0.0163276
0.021274
0.0222956
-5.74693e-05
0.0005429
0.00127998
0.000811911
0.00168875
0.000941566
0.00319932
0.00319639
0.00453387
0.00317577
0.00457015
0.00584072
0.00473507
0.00789766
0.00906232
0.0111931
0.0138135
0.0161037
0.0207946
0.0216983
-6.35093e-05
0.000538351
0.00128121
0.000815045
0.0016868
0.00094893
0.00317767
0.00314008
0.00455276
0.003158
0.00454806
0.00590134
0.00475423
0.00787351
0.00907174
0.0110968
0.0136937
0.0158544
0.0202898
0.0211026
-6.97751e-05
0.000533415
0.00128251
0.000817761
0.00168438
0.000956264
0.00315496
0.00308729
0.00456359
0.00314246
0.00451957
0.00595836
0.00477202
0.00784251
0.00907504
0.0109884
0.0135653
0.0155816
0.0197579
0.0205107
-7.62154e-05
0.000527992
0.00128383
0.000820014
0.00168144
0.000963701
0.00313071
0.00303803
0.00456624
0.00312969
0.00448426
0.00601185
0.00478846
0.00780391
0.00907336
0.0108651
0.0134275
0.0152892
0.0191968
0.0199231
-8.27683e-05
0.000521953
0.00128512
0.000821771
0.0016779
0.000971377
0.0031043
0.00299196
0.00456066
0.00312034
0.00444162
0.00606182
0.00480404
0.00775671
0.00906836
0.0107244
0.0132778
0.0149828
0.0186053
0.0193382
-8.93593e-05
0.000515149
0.00128637
0.000823013
0.00167367
0.000979386
0.0030751
0.00294872
0.00454663
0.00311501
0.00439139
0.00610803
0.00481954
0.00769918
0.00906157
0.0105651
0.0131127
0.014669
0.0179827
0.0187522
-9.59032e-05
0.000507412
0.00128758
0.00082372
0.0016686
0.000987806
0.0030425
0.00290814
0.00452378
0.00311402
0.00433361
0.00614973
0.00483601
0.00762906
0.00905409
0.0103877
0.0129266
0.0143545
0.0173313
0.0181577
-0.000102307
0.000498564
0.00128873
0.000823879
0.00166254
0.000996747
0.00300586
0.0028704
0.0044915
0.0031174
0.00426842
0.00618581
0.00485473
0.00754386
0.00904596
0.0101944
0.012713
0.0140455
0.0166566
0.0175448
-0.000108462
0.000488399
0.00128982
0.000823513
0.00165525
0.00100635
0.00296455
0.00283568
0.00444922
0.00312499
0.00419646
0.00621479
0.00487674
0.00744159
0.00903553
0.00998836
0.0124652
0.0137449
0.0159681
0.0169033
-0.000114251
0.000476699
0.00129083
0.000822666
0.00164648
0.00101676
0.00291802
0.0028042
0.00439653
0.00313627
0.00411879
0.00623446
0.00490313
0.00732131
0.00901964
0.00977456
0.0121777
0.0134512
0.015279
0.0162252
-0.000119537
0.000463235
0.00129172
0.000821433
0.00163593
0.00102814
0.00286577
0.00277625
0.00433305
0.00315037
0.00403665
0.00624209
0.00493466
0.00718289
0.00899404
0.0095587
0.0118479
0.0131587
0.0146035
0.0155074
-0.000124171
0.000447768
0.0012924
0.000819965
0.00162324
0.00104081
0.00280733
0.00275169
0.00425877
0.00316607
0.0039518
0.00623531
0.00497088
0.00702654
0.00895367
0.00934658
0.0114765
0.0128578
0.0139549
0.0147535
-0.000128013
0.000430078
0.00129277
0.000818429
0.00160797
0.0010551
0.00274229
0.00272999
0.00417415
0.00318152
0.00386648
0.00621227
0.00501095
0.00685371
0.00889303
0.00914325
0.0110667
0.0125366
0.0133446
0.0139737
-0.000130913
0.000409928
0.00129266
0.000817095
0.00158962
0.0010712
0.00267053
0.0027103
0.00408009
0.00319471
0.00378242
0.00617139
0.00505361
0.00666705
0.00880662
0.00895172
0.0106243
0.0121823
0.0127787
0.0131824
-0.000132692
0.000387075
0.0012918
0.000816336
0.00156768
0.0010893
0.00259216
0.00269146
0.00397804
0.00320327
0.00370104
0.00611175
0.00509685
0.00646988
0.00868941
0.00877253
0.0101582
0.011784
0.0122558
0.0123996
-0.000133184
0.000361374
0.00128977
0.000816577
0.00154154
0.00110951
0.00250759
0.00267175
0.00386997
0.003205
0.0036234
0.00603305
0.0051378
0.00626578
0.0085375
0.00860352
0.00967887
0.0113345
0.0117674
0.0116481
-0.000132245
0.00033275
0.00128606
0.000818323
0.00151046
0.0011317
0.00241776
0.00264897
0.00375831
0.00319833
0.00354951
0.00593566
0.00517303
0.00605786
0.00834819
0.00844016
0.00919832
0.0108322
0.0112983
0.0109477
-0.000129712
0.00030113
0.00127997
0.000822133
0.00147399
0.0011555
0.00232387
0.00262096
0.00364528
0.00318176
0.00347841
0.00582078
0.00519945
0.00584874
0.00812005
0.00827595
0.00872777
0.0102821
0.0108298
0.0103104
-0.000125441
0.000266518
0.00127061
0.000828498
0.00143187
0.00118008
0.00222764
0.00258538
0.00353229
0.00315441
0.0034086
0.00569011
0.0052142
0.00564002
0.0078542
0.00810398
0.00827521
0.00969385
0.0103426
0.00973515
-0.000119357
0.000228842
0.00125697
0.000837914
0.00138415
0.00120416
0.00213111
0.00254012
0.00341987
0.00311641
0.00333838
0.005545
0.00521438
0.00543268
0.007553
0.00791703
0.00784643
0.00908037
0.00982182
0.00921013
-0.000111359
0.000188939
0.00123774
0.000850642
0.00133139
0.00122616
0.0020366
0.00248375
0.00330822
0.0030686
0.00326536
0.00538603
0.00519674
0.00522784
0.0072195
0.00770797
0.00744352
0.00845516
0.0092622
0.00871749
-0.000101377
0.000146861
0.00121165
0.000866689
0.00127438
0.0012441
0.00194579
0.00241565
0.00319658
0.00301193
0.00318724
0.0052133
0.00515798
0.00502592
0.00685721
0.00747186
0.00706613
0.00782995
0.00866572
0.00823511
-8.94433e-05
0.000102996
0.00117736
0.000886031
0.00121434
0.00125551
0.00186025
0.00233649
0.00308298
0.0029471
0.00310323
0.00502666
0.0051002
0.0048278
0.00647019
0.0072035
0.00671315
0.00721662
0.00803841
0.00774213
-7.57118e-05
5.80275e-05
0.00113371
0.000908085
0.001153
0.00125807
0.00178102
0.00224752
0.00296472
0.00287443
0.00301299
0.00482674
0.00501817
0.00463279
0.00606416
0.00689804
0.00637988
0.00662696
0.0073916
0.00722536
-6.04637e-05
1.24714e-05
0.00107985
0.000932159
0.00109213
0.00124926
0.00170855
0.00214864
0.00283896
0.00279359
0.00291607
0.00461411
0.00491007
0.00443828
0.00564396
0.00655375
0.00605885
0.00606881
0.00674065
0.00668598
-4.40816e-05
-3.29054e-05
0.00101526
0.000956804
0.00103386
0.0012276
0.0016416
0.00203862
0.00270417
0.00270334
0.00281286
0.00438899
0.00477463
0.00424197
0.00521234
0.00617009
0.00574289
0.00554701
0.00610154
0.00613689
-2.70886e-05
-7.72723e-05
0.000939718
0.000980155
0.000980384
0.00119217
0.00157816
0.00193299
0.0025606
0.00260152
0.00270204
0.00415351
0.0046119
0.00404195
0.00477198
0.00574396
0.00541925
0.00505983
0.0054864
0.00560121
-1.01845e-05
-0.000119811
0.0008535
0.000999949
0.000933616
0.00114301
0.00151441
0.00183011
0.0024092
0.00248726
0.00258334
0.00390869
0.00442224
0.00383633
0.00432812
0.00527767
0.00507293
0.00459879
0.00488604
0.00508888
5.83678e-06
-0.000159534
0.000757377
0.00101313
0.000894754
0.00108126
0.00145102
0.00172881
0.00225115
0.00235897
0.00245609
0.00365779
0.00420737
0.00362165
0.00388955
0.00477809
0.00470515
0.00417426
0.00429638
0.00453165
1.99754e-05
-0.000195488
0.000652667
0.0010168
0.000864066
0.00100931
0.0013767
0.00163043
0.00208902
0.00221644
0.00231724
0.00340073
0.00397329
0.00340643
0.00347434
0.00427016
0.0043176
0.00377288
0.00370224
0.00387443
3.11782e-05
-0.000226836
0.000541558
0.00100733
0.000840707
0.000931063
0.00129072
0.00153281
0.00192516
0.00206097
0.00216789
0.00313823
0.0037184
0.00319013
0.00308752
0.00376724
0.00391172
0.00336765
0.00310683
0.00314699
3.83822e-05
-0.000253175
0.0004266
0.000981928
0.000822887
0.000849249
0.00119374
0.00143088
0.00176119
0.00189231
0.00200594
0.00287452
0.00344747
0.0029615
0.00269076
0.00319557
0.0034097
0.00292134
0.00253288
0.00254358
4.05887e-05
-0.000273792
0.00031017
0.000937115
0.000807216
0.000769232
0.00108288
0.0013241
0.0015976
0.00171585
0.00183074
0.0026003
0.00315454
0.00272292
0.0023354
0.00267296
0.00290757
0.00248731
0.00199138
0.00181982
3.73139e-05
-0.000289528
0.000196466
0.000871478
0.000788396
0.000693341
0.000962585
0.00120626
0.0014333
0.00153215
0.00164126
0.00231868
0.00284331
0.00246144
0.00198207
0.00214674
0.00235214
0.00201104
0.00147008
0.00116042
2.77622e-05
-0.000300222
8.70598e-05
0.000783263
0.000762231
0.000623789
0.000834352
0.0010752
0.00126759
0.00134245
0.00143949
0.00202638
0.00250432
0.00217188
0.00163365
0.00162592
0.00177971
0.00150667
0.000970294
0.000608082
1.21273e-05
-0.000309043
-1.47993e-05
0.000676089
0.000722909
0.000559539
0.000704263
0.000931795
0.00109393
0.00114564
0.00122463
0.00172232
0.00215024
0.00185828
0.00128091
0.00112191
0.0012067
0.000994199
0.000500403
0.000102878
-9.8464e-06
-0.000317197
-0.000108345
0.000552623
0.000665984
0.000498139
0.000575101
0.00077449
0.000910068
0.000941002
0.000998413
0.00141164
0.00177844
0.00151652
0.000926789
0.000644285
0.00064171
0.0004796
2.86135e-05
-0.000409049
-3.78231e-05
-0.000326308
-0.000193886
0.000418899
0.000588945
0.000432399
0.000448511
0.000609195
0.000715829
0.000724771
0.000759674
0.00109527
0.00140128
0.00115738
0.000565057
0.000187457
9.0623e-05
-5.31597e-05
-0.000449156
-0.000906068
-7.1144e-05
-0.000339992
-0.000270565
0.000280295
0.000488706
0.000357194
0.000327182
0.000437428
0.000508213
0.000496169
0.000510228
0.000775664
0.00101819
0.000779475
0.000190745
-0.00025328
-0.000440282
-0.000599983
-0.000927793
-0.00137369
-0.00010959
-0.00035846
-0.000340349
0.000139653
0.000366716
0.000267959
0.000204143
0.000262551
0.000292736
0.000256581
0.000246985
0.000448533
0.000632633
0.00039726
-0.000189223
-0.000687696
-0.00094937
-0.00114418
-0.00141876
-0.00182426
-0.000152313
-0.000384187
-0.000405074
1.55028e-06
0.000224971
0.000158196
7.75944e-05
8.81625e-05
7.16183e-05
3.83422e-06
-3.14406e-05
0.000115121
0.000246045
2.70149e-06
-0.000576763
-0.00111972
-0.0014382
-0.00167143
-0.00192852
-0.00227174
-0.000199286
-0.000417058
-0.000467059
-0.000132477
6.87653e-05
2.6113e-05
-6.01493e-05
-8.73743e-05
-0.000151864
-0.000256089
-0.000322129
-0.000229019
-0.000146584
-0.000391199
-0.000961676
-0.00154061
-0.00191291
-0.0021795
-0.00244316
-0.00272973
-0.000250024
-0.00045746
-0.000531017
-0.000261487
-9.37926e-05
-0.000129395
-0.000216302
-0.000265488
-0.000373106
-0.000520687
-0.000626158
-0.00058593
-0.00054444
-0.000785518
-0.00134246
-0.00195001
-0.00237825
-0.00267178
-0.00294652
-0.00320566
-0.000304376
-0.000505355
-0.000599657
-0.000385535
-0.000258791
-0.000304419
-0.000393255
-0.000451945
-0.000592239
-0.000786139
-0.000937856
-0.000952534
-0.000951019
-0.00118726
-0.00172152
-0.00234553
-0.00282495
-0.00315046
-0.00343315
-0.00368698
-0.000362752
-0.000559987
-0.000675198
-0.000509004
-0.00042278
-0.000491786
-0.000591538
-0.00065234
-0.000811856
-0.00104883
-0.00125251
-0.00132707
-0.00136827
-0.00159716
-0.0021025
-0.00271851
-0.00324735
-0.0036157
-0.0039082
-0.00416077
-0.000425591
-0.00062104
-0.00075762
-0.000636538
-0.000585319
-0.000683509
-0.000807499
-0.00087047
-0.00103682
-0.00130893
-0.00156535
-0.00170231
-0.00179245
-0.00201806
-0.00249005
-0.00309488
-0.00365076
-0.00405887
-0.00437265
-0.00462105
-0.0004933
-0.000688569
-0.000847301
-0.000769813
-0.000749468
-0.00087505
-0.00103435
-0.00110811
-0.00127211
-0.00156732
-0.00187338
-0.00207205
-0.00221688
-0.00245078
-0.0028875
-0.00346734
-0.00401484
-0.00448457
-0.00482155
-0.00507296
-0.000566349
-0.000762759
-0.000942786
-0.000908826
-0.000917318
-0.00106515
-0.00126484
-0.00136351
-0.0015233
-0.00182651
-0.00217478
-0.00243295
-0.002634
-0.00288899
-0.0032975
-0.00384768
-0.00439791
-0.00487808
-0.00527677
-0.00552401
-0.000645045
-0.000843874
-0.00104332
-0.00105311
-0.00109022
-0.00125504
-0.0014946
-0.00162998
-0.00179197
-0.00209203
-0.00246926
-0.00278234
-0.00303935
-0.0033248
-0.00371691
-0.00423452
-0.00477718
-0.00525221
-0.00566875
-0.00595459
-0.000729476
-0.000931982
-0.00114902
-0.00120141
-0.00126886
-0.00144722
-0.0017222
-0.00190007
-0.00207557
-0.00236958
-0.00276084
-0.00311828
-0.00342892
-0.0037514
-0.00413969
-0.00462507
-0.00515682
-0.00562342
-0.00603771
-0.00635859
-0.000819493
-0.00102713
-0.00125987
-0.00135198
-0.00145271
-0.00164404
-0.00194757
-0.00216892
-0.00236849
-0.00265941
-0.00305413
-0.00344268
-0.00379986
-0.00416272
-0.0045609
-0.00501666
-0.00553234
-0.00599779
-0.00639538
-0.006732
-0.000914731
-0.00112905
-0.00137617
-0.0015037
-0.00164028
-0.00184646
-0.00217224
-0.00243389
-0.00266475
-0.00295945
-0.00335123
-0.00375996
-0.00415288
-0.00455166
-0.00497369
-0.00540924
-0.00589866
-0.00636993
-0.00675396
-0.00708196
-0.00101483
-0.00123708
-0.00149785
-0.00165608
-0.00182967
-0.00205422
-0.0023982
-0.00269381
-0.00295849
-0.00326678
-0.00365341
-0.0040707
-0.00449244
-0.00491643
-0.00536615
-0.00580101
-0.00625771
-0.00672971
-0.0071137
-0.00742175
-0.00111917
-0.00135031
-0.0016246
-0.00180889
-0.00201896
-0.00226619
-0.00262664
-0.00294948
-0.00324545
-0.00357403
-0.00396075
-0.00437651
-0.00481903
-0.00526147
-0.00572954
-0.00618112
-0.00661328
-0.00707223
-0.00746529
-0.00775897
-0.00122734
-0.00146722
-0.00175557
-0.00195969
-0.00220651
-0.00248007
-0.00285705
-0.00320298
-0.00352591
-0.00387384
-0.00426762
-0.00467954
-0.00513205
-0.00559133
-0.00606662
-0.00653752
-0.00696337
-0.00739947
-0.00779851
-0.00808861
-0.00133825
-0.00158672
-0.00188977
-0.00211513
-0.0023922
-0.0026938
-0.00308822
-0.00345346
-0.0038007
-0.00416595
-0.0045673
-0.00497718
-0.00542888
-0.00589964
-0.00637929
-0.00686346
-0.00729966
-0.00771879
-0.00811505
-0.00840909
-0.00145113
-0.00170744
-0.00202571
-0.00227067
-0.00257484
-0.00290557
-0.00331901
-0.00370098
-0.00406787
-0.00444964
-0.00485925
-0.00526797
-0.00571427
-0.0061852
-0.00666201
-0.007146
-0.00759425
-0.00801024
-0.00840381
-0.0087132
-0.0015639
-0.0018281
-0.00216161
-0.00242564
-0.00275464
-0.00311263
-0.00354671
-0.00394716
-0.00432715
-0.0047194
-0.00513853
-0.00554519
-0.00599109
-0.00646089
-0.00692746
-0.00741182
-0.00786752
-0.00827137
-0.00863873
-0.0089332
-0.00167545
-0.00194708
-0.0022947
-0.002578
-0.00293117
-0.00331483
-0.00376919
-0.00419172
-0.00458281
-0.00497596
-0.00539882
-0.00578895
-0.00621531
-0.0066804
-0.00712886
-0.0076052
-0.00809521
-0.00855672
-0.00896452
-0.00929673
-0.00178347
-0.00206196
-0.00242289
-0.00272411
-0.00310366
-0.00351361
-0.00398886
-0.00443416
-0.00484679
-0.00524382
-0.00567929
-0.00607307
-0.00646868
-0.00691371
-0.00732512
-0.00772278
-0.00812959
-0.0085074
-0.00884074
-0.00913308
-0.00188387
-0.00217168
-0.00254223
-0.00286442
-0.00326035
-0.00369645
-0.00419419
-0.00465627
-0.00507598
-0.00545134
-0.00584662
-0.00622526
-0.00659455
-0.00702623
-0.00748514
-0.00796284
-0.00849078
-0.00901294
-0.00948015
-0.00980427
-0.00197385
-0.00227526
-0.00266878
-0.00300628
-0.00342532
-0.00388329
-0.00441709
-0.00493391
-0.00542145
-0.00585325
-0.00625595
-0.0065753
-0.00681766
-0.00705935
-0.00732317
-0.00757592
-0.00782574
-0.00807384
-0.00830341
-0.00854891
-0.00205489
-0.00234008
-0.00273508
-0.00308984
-0.00353296
-0.00403235
-0.00457798
-0.00507891
-0.00551609
-0.00586677
-0.00622331
-0.00656339
-0.00690702
-0.00729292
-0.0077241
-0.00819782
-0.00869652
-0.00919889
-0.00967345
-0.0100609
-0.00213441
-0.0024675
-0.00287271
-0.00321136
-0.00365428
-0.00416102
-0.00472544
-0.00524093
-0.00570418
-0.00605466
-0.00640918
-0.00677075
-0.00706708
-0.00734332
-0.00760987
-0.00783225
-0.00801664
-0.00821919
-0.00845006
-0.00874673
-0.00211559
-0.00240557
-0.00284595
-0.00325415
-0.0038114
-0.00440902
-0.00500467
-0.00552786
-0.0059947
-0.00629521
-0.00652172
-0.0067966
-0.0070571
-0.00731647
-0.00764853
-0.00804017
-0.00843034
-0.00878894
-0.00911936
-0.00945443
0.0468033
0.0299307
0.0145253
0.00483461
0.000915995
-0.000262407
-0.00170626
-0.00358105
-0.00496328
-0.00561289
-0.00598287
-0.00647287
-0.00720064
-0.00814049
-0.0091655
-0.0100334
-0.010729
-0.0115253
-0.0124648
-0.0133456
-0.0141082
-0.0148887
-0.015778
-0.0166797
-0.0176426
-0.0188242
-0.0200856
-0.0211961
-0.0220452
-0.0226892
-0.023393
-0.0242011
-0.0250439
-0.0259546
-0.026885
-0.0277907
-0.0287353
-0.0296668
-0.030575
-0.0315899
-0.0326458
-0.0336484
-0.0346176
-0.0355617
-0.0365018
-0.0375311
-0.0385939
-0.0396519
-0.0407343
-0.0418425
-0.0429644
-0.044097
-0.0452419
-0.0463882
-0.0475158
-0.0487028
-0.0499668
-0.0512222
-0.0524806
-0.0537843
-0.0551313
-0.056485
-0.057852
-0.059246
-0.0606381
-0.0620399
-0.0635143
-0.0649539
-0.0664483
-0.0681476
-0.0698825
-0.0714654
-0.0730581
-0.074705
-0.0763022
-0.0779236
-0.0797436
-0.0816668
-0.0835024
-0.0853463
-0.0872257
-0.0890698
-0.0909924
-0.0929845
-0.0950718
-0.0971461
-0.099183
-0.101383
-0.103747
-0.106051
-0.108118
-0.110343
-0.112676
-0.115087
-0.117515
-0.119959
-0.122487
-0.124877
-0.127434
-0.12998
0.0442149
0.0297019
0.0145976
0.00498812
0.0010217
-0.000209478
-0.00167631
-0.00356439
-0.00495344
-0.00560587
-0.00597683
-0.00646698
-0.00719474
-0.0081349
-0.00916078
-0.0100294
-0.0107248
-0.011521
-0.012461
-0.0133423
-0.014105
-0.0148856
-0.0157751
-0.016677
-0.0176398
-0.0188217
-0.0200836
-0.0211945
-0.0220439
-0.0226877
-0.0233914
-0.0241998
-0.0250426
-0.0259534
-0.026884
-0.0277897
-0.0287345
-0.029666
-0.0305743
-0.0315891
-0.0326452
-0.0336479
-0.0346171
-0.0355612
-0.0365013
-0.0375306
-0.0385934
-0.0396515
-0.0407338
-0.041842
-0.042964
-0.0440966
-0.0452416
-0.0463879
-0.0475155
-0.0487024
-0.0499665
-0.0512219
-0.0524802
-0.053784
-0.055131
-0.0564847
-0.0578517
-0.0592457
-0.0606379
-0.0620396
-0.0635141
-0.0649537
-0.066448
-0.0681473
-0.0698823
-0.0714652
-0.0730578
-0.0747048
-0.076302
-0.0779234
-0.0797434
-0.0816666
-0.0835022
-0.0853461
-0.0872256
-0.0890697
-0.0909922
-0.0929843
-0.0950716
-0.097146
-0.0991828
-0.101383
-0.103747
-0.106051
-0.108118
-0.110342
-0.112676
-0.115087
-0.117515
-0.119959
-0.122487
-0.124876
-0.127434
-0.12998
0.0426672
0.0295675
0.014753
0.00525079
0.00118501
-0.000153835
-0.00164863
-0.00354067
-0.0049344
-0.00559216
-0.00596782
-0.0064612
-0.00719021
-0.00813038
-0.00915658
-0.0100258
-0.0107216
-0.011518
-0.0124582
-0.0133395
-0.0141022
-0.0148828
-0.0157727
-0.0166747
-0.0176373
-0.0188196
-0.0200821
-0.0211934
-0.022043
-0.0226864
-0.02339
-0.0241985
-0.0250414
-0.0259524
-0.0268832
-0.0277889
-0.0287337
-0.0296654
-0.0305736
-0.0315884
-0.0326448
-0.0336475
-0.0346167
-0.0355608
-0.0365008
-0.0375302
-0.0385931
-0.0396511
-0.0407335
-0.0418417
-0.0429637
-0.0440963
-0.0452413
-0.0463876
-0.0475152
-0.0487021
-0.0499662
-0.0512217
-0.05248
-0.0537837
-0.0551307
-0.0564844
-0.0578515
-0.0592454
-0.0606377
-0.0620394
-0.0635139
-0.0649535
-0.0664477
-0.068147
-0.0698821
-0.071465
-0.0730576
-0.0747047
-0.0763019
-0.0779232
-0.0797432
-0.0816665
-0.0835021
-0.085346
-0.0872255
-0.0890696
-0.0909921
-0.0929842
-0.0950715
-0.0971459
-0.0991827
-0.101383
-0.103747
-0.106051
-0.108118
-0.110342
-0.112676
-0.115087
-0.117515
-0.119959
-0.122487
-0.124876
-0.127434
-0.12998
0.0410248
0.029324
0.0148994
0.00555115
0.00139709
-7.60736e-05
-0.00160386
-0.0034962
-0.00489571
-0.00556511
-0.00595235
-0.00645389
-0.00718613
-0.0081253
-0.00915019
-0.0100204
-0.0107183
-0.011516
-0.0124562
-0.0133369
-0.0140993
-0.0148799
-0.0157698
-0.0166718
-0.0176345
-0.0188172
-0.0200803
-0.0211921
-0.022042
-0.0226849
-0.0233881
-0.0241969
-0.02504
-0.0259513
-0.0268822
-0.0277879
-0.0287328
-0.0296647
-0.0305727
-0.0315877
-0.0326443
-0.033647
-0.0346163
-0.0355604
-0.0365003
-0.0375297
-0.0385927
-0.0396507
-0.0407331
-0.0418414
-0.0429634
-0.044096
-0.045241
-0.0463873
-0.0475148
-0.0487017
-0.0499659
-0.0512214
-0.0524797
-0.0537834
-0.0551305
-0.0564842
-0.0578512
-0.0592452
-0.0606374
-0.0620391
-0.0635137
-0.0649533
-0.0664474
-0.0681468
-0.0698821
-0.0714649
-0.0730574
-0.0747046
-0.0763017
-0.0779229
-0.0797429
-0.0816664
-0.083502
-0.0853459
-0.0872254
-0.0890695
-0.0909919
-0.0929841
-0.0950714
-0.0971459
-0.0991826
-0.101383
-0.103747
-0.106051
-0.108118
-0.110342
-0.112676
-0.115087
-0.117515
-0.119959
-0.122487
-0.124876
-0.127434
-0.129981
0.0393599
0.0289985
0.0150419
0.00586384
0.00162636
1.08824e-05
-0.00155078
-0.00343561
-0.00483803
-0.00552369
-0.00592935
-0.00644441
-0.00718246
-0.00811958
-0.00914059
-0.0100116
-0.0107138
-0.0115145
-0.0124547
-0.0133345
-0.0140966
-0.0148773
-0.0157668
-0.0166686
-0.0176314
-0.0188143
-0.0200776
-0.0211901
-0.0220406
-0.022683
-0.0233858
-0.0241947
-0.0250381
-0.0259498
-0.0268809
-0.0277865
-0.0287315
-0.0296636
-0.0305715
-0.0315867
-0.0326435
-0.0336464
-0.0346158
-0.0355598
-0.0364997
-0.0375292
-0.0385923
-0.0396503
-0.0407327
-0.041841
-0.042963
-0.0440957
-0.0452406
-0.046387
-0.0475145
-0.0487013
-0.0499656
-0.0512211
-0.0524794
-0.0537831
-0.0551302
-0.0564839
-0.057851
-0.059245
-0.0606372
-0.0620388
-0.0635134
-0.0649531
-0.066447
-0.0681465
-0.069882
-0.0714647
-0.0730571
-0.0747045
-0.0763016
-0.0779226
-0.0797427
-0.0816663
-0.0835019
-0.0853457
-0.0872253
-0.0890693
-0.0909918
-0.0929839
-0.0950713
-0.0971458
-0.0991825
-0.101382
-0.103747
-0.106051
-0.108118
-0.110342
-0.112676
-0.115087
-0.117515
-0.119959
-0.122487
-0.124876
-0.127434
-0.129982
0.0377065
0.028615
0.0151824
0.00617485
0.00186124
0.000100919
-0.00149758
-0.00336927
-0.0047701
-0.0054732
-0.00590138
-0.00643378
-0.00717953
-0.00811345
-0.00912795
-0.00999917
-0.0107075
-0.0115125
-0.012453
-0.013332
-0.0140945
-0.0148756
-0.0157643
-0.0166654
-0.0176285
-0.0188112
-0.0200737
-0.0211867
-0.0220384
-0.0226806
-0.0233826
-0.0241916
-0.0250356
-0.0259478
-0.0268791
-0.0277846
-0.0287297
-0.029662
-0.03057
-0.0315853
-0.0326425
-0.0336455
-0.034615
-0.035559
-0.0364988
-0.0375285
-0.0385917
-0.0396498
-0.0407322
-0.0418406
-0.0429626
-0.0440953
-0.0452403
-0.0463867
-0.0475141
-0.0487009
-0.0499653
-0.0512208
-0.0524791
-0.0537828
-0.0551299
-0.0564837
-0.0578507
-0.0592448
-0.060637
-0.0620385
-0.0635132
-0.0649528
-0.0664466
-0.0681462
-0.069882
-0.0714645
-0.0730568
-0.0747044
-0.0763015
-0.0779223
-0.0797423
-0.0816662
-0.0835018
-0.0853455
-0.0872252
-0.0890691
-0.0909916
-0.0929838
-0.0950712
-0.0971457
-0.0991823
-0.101382
-0.103747
-0.106051
-0.108118
-0.110342
-0.112676
-0.115087
-0.117515
-0.119959
-0.122487
-0.124876
-0.127434
-0.129984
0.036081
0.0281786
0.0153086
0.00647463
0.00209901
0.000195035
-0.00144521
-0.00330144
-0.00469692
-0.00541741
-0.00587053
-0.00642278
-0.00717735
-0.00810724
-0.00911346
-0.00998418
-0.0106993
-0.0115095
-0.0124505
-0.0133292
-0.0140928
-0.0148749
-0.0157625
-0.016663
-0.0176268
-0.0188085
-0.0200688
-0.0211818
-0.0220352
-0.0226772
-0.0233783
-0.0241874
-0.0250323
-0.0259453
-0.0268768
-0.0277822
-0.0287273
-0.0296598
-0.030568
-0.0315835
-0.0326409
-0.0336442
-0.0346139
-0.0355579
-0.0364978
-0.0375276
-0.038591
-0.0396491
-0.0407317
-0.0418401
-0.0429622
-0.0440948
-0.0452398
-0.0463863
-0.0475137
-0.0487005
-0.049965
-0.0512205
-0.0524787
-0.0537825
-0.0551296
-0.0564834
-0.0578505
-0.0592445
-0.0606367
-0.0620381
-0.0635129
-0.0649526
-0.0664462
-0.0681459
-0.069882
-0.0714642
-0.0730564
-0.0747043
-0.0763013
-0.0779219
-0.079742
-0.0816661
-0.0835016
-0.0853454
-0.087225
-0.0890689
-0.0909913
-0.0929835
-0.0950711
-0.0971456
-0.0991821
-0.101382
-0.103747
-0.106051
-0.108118
-0.110342
-0.112676
-0.115087
-0.117515
-0.119959
-0.122487
-0.124876
-0.127434
-0.129985
0.0344988
0.0276859
0.0154087
0.00675855
0.00234109
0.000296912
-0.00139244
-0.00323357
-0.00462073
-0.00535806
-0.00583767
-0.00641138
-0.0071756
-0.00810116
-0.00909825
-0.00996796
-0.01069
-0.0115053
-0.012447
-0.0133257
-0.0140912
-0.0148748
-0.0157616
-0.0166617
-0.0176265
-0.018807
-0.0200639
-0.021176
-0.022031
-0.0226728
-0.0233727
-0.0241818
-0.0250281
-0.0259421
-0.0268738
-0.0277792
-0.0287243
-0.0296572
-0.0305658
-0.0315813
-0.0326388
-0.0336424
-0.0346124
-0.0355564
-0.0364964
-0.0375264
-0.0385899
-0.0396481
-0.0407309
-0.0418395
-0.0429617
-0.0440944
-0.0452393
-0.0463858
-0.0475132
-0.0487001
-0.0499645
-0.0512201
-0.0524783
-0.0537821
-0.0551293
-0.0564832
-0.0578503
-0.0592443
-0.0606364
-0.0620377
-0.0635126
-0.0649523
-0.0664458
-0.0681456
-0.0698821
-0.0714639
-0.073056
-0.0747042
-0.0763012
-0.0779214
-0.0797415
-0.081666
-0.0835015
-0.0853451
-0.0872249
-0.0890687
-0.0909911
-0.0929833
-0.0950709
-0.0971455
-0.0991818
-0.101382
-0.103747
-0.106051
-0.108118
-0.110341
-0.112676
-0.115087
-0.117515
-0.119959
-0.122487
-0.124876
-0.127434
-0.129987
0.032958
0.0271332
0.0154771
0.00702847
0.00259107
0.000409683
-0.00133914
-0.00316768
-0.00454339
-0.00529615
-0.00580295
-0.00639927
-0.00717399
-0.00809539
-0.00908294
-0.00995122
-0.01068
-0.0115005
-0.0124429
-0.013322
-0.0140896
-0.0148753
-0.0157614
-0.0166613
-0.0176277
-0.0188071
-0.0200599
-0.0211704
-0.0220266
-0.0226676
-0.0233656
-0.0241747
-0.0250229
-0.0259383
-0.0268703
-0.0277757
-0.0287208
-0.0296541
-0.0305634
-0.0315789
-0.0326362
-0.0336401
-0.0346104
-0.0355544
-0.0364947
-0.0375249
-0.0385884
-0.0396468
-0.0407298
-0.0418385
-0.042961
-0.0440938
-0.0452387
-0.0463853
-0.0475128
-0.0486996
-0.049964
-0.0512195
-0.0524778
-0.0537817
-0.055129
-0.0564829
-0.0578501
-0.0592442
-0.0606362
-0.0620373
-0.0635123
-0.0649521
-0.0664453
-0.0681452
-0.0698821
-0.0714636
-0.0730555
-0.0747042
-0.0763011
-0.0779209
-0.0797411
-0.0816658
-0.0835013
-0.0853449
-0.0872247
-0.0890684
-0.0909907
-0.092983
-0.0950707
-0.0971454
-0.0991816
-0.101381
-0.103747
-0.106051
-0.108117
-0.110341
-0.112676
-0.115087
-0.117515
-0.119959
-0.122486
-0.124876
-0.127433
-0.12999
0.0314609
0.0265236
0.0155163
0.00728711
0.00284828
0.000532982
-0.00128679
-0.00310578
-0.00446614
-0.00523188
-0.00576612
-0.00638622
-0.00717251
-0.00809009
-0.00906778
-0.00993424
-0.0106698
-0.0114956
-0.0124386
-0.0133181
-0.0140881
-0.0148762
-0.0157619
-0.0166618
-0.0176301
-0.0188085
-0.0200571
-0.0211658
-0.0220227
-0.022662
-0.0233573
-0.0241664
-0.0250168
-0.0259337
-0.0268662
-0.0277718
-0.0287168
-0.0296508
-0.030561
-0.0315766
-0.0326337
-0.0336376
-0.0346079
-0.035552
-0.0364926
-0.0375231
-0.0385866
-0.0396452
-0.0407283
-0.0418372
-0.0429599
-0.0440929
-0.045238
-0.0463848
-0.0475123
-0.0486991
-0.0499634
-0.0512189
-0.0524773
-0.0537811
-0.0551284
-0.0564825
-0.0578499
-0.0592441
-0.060636
-0.062037
-0.0635119
-0.0649518
-0.0664448
-0.0681447
-0.069882
-0.0714632
-0.073055
-0.0747042
-0.076301
-0.0779204
-0.0797405
-0.0816656
-0.0835011
-0.0853447
-0.0872245
-0.0890681
-0.0909904
-0.0929827
-0.0950705
-0.0971452
-0.0991812
-0.101381
-0.103747
-0.106052
-0.108117
-0.110341
-0.112675
-0.115087
-0.117515
-0.119958
-0.122486
-0.124876
-0.127433
-0.129993
0.0300107
0.025865
0.0155281
0.00752986
0.00310648
0.000665589
-0.00123487
-0.0030482
-0.00438942