/*--------------------------------*- C++ -*----------------------------------*\
| =========                 |                                                 |
| \\      /  F ield         | OpenFOAM: The Open Source CFD Toolbox           |
|  \\    /   O peration     | Version:  v1912                                 |
|   \\  /    A nd           | Website:  www.openfoam.com                      |
|    \\/     M anipulation  |                                                 |
\*---------------------------------------------------------------------------*/
FoamFile
{
    version     2.0;
    format      ascii;
    class       volVectorField;
    location    "4.55";
    object      U;
}
// * * * * * * * * * * * * * * * * * * * * * * * * * * * * * * * * * * * * * //

dimensions      [0 1 -1 0 0 0 0];


internalField   nonuniform List<vector> 
9600
(
(0.968253 -0.00308911 0)
(1.00684 0.00291027 0)
(0.96849 0.00402011 0)
(1.01551 -0.0106046 0)
(0.964282 -0.00563408 0)
(1.0257 -0.00621757 0)
(1.01666 0.00391486 0)
(1.05418 -0.017406 0)
(0.949405 0.0385352 0)
(1.12547 0.0111477 0)
(0.888992 0.0197714 0)
(1.10518 0.0162697 0)
(0.887275 -0.00963507 0)
(1.05886 -0.00295536 0)
(0.922151 -0.0332713 0)
(1.03643 -0.0224686 0)
(0.93002 -0.0370363 0)
(1.04893 -0.035646 0)
(0.904742 -0.0232386 0)
(1.08427 -0.0397492 0)
(0.972142 -0.0029357 0)
(1.00542 0.00295244 0)
(0.973254 0.00391836 0)
(1.00932 -0.0104971 0)
(0.966385 -0.00580936 0)
(1.02113 -0.00669976 0)
(1.01891 0.00341473 0)
(1.05088 -0.0163633 0)
(0.9549 0.0376367 0)
(1.10673 0.0125203 0)
(0.917107 0.0197383 0)
(1.05627 0.0165817 0)
(0.958843 -0.00868837 0)
(1.00581 -0.00361453 0)
(0.994984 -0.0322134 0)
(0.986611 -0.023057 0)
(0.994872 -0.0366646 0)
(0.97395 -0.0358448 0)
(0.992647 -0.023313 0)
(0.976737 -0.0403277 0)
(0.978523 -0.00279562 0)
(1.00296 0.00295352 0)
(0.980804 0.00387249 0)
(1.0011 -0.0103951 0)
(0.969912 -0.00599007 0)
(1.01357 -0.00718488 0)
(1.02295 0.00304865 0)
(1.04623 -0.0155488 0)
(0.966779 0.0366477 0)
(1.08085 0.0130481 0)
(0.951997 0.020288 0)
(1.02134 0.0158979 0)
(0.991953 -0.00800264 0)
(0.997068 -0.0043473 0)
(0.993874 -0.0317473 0)
(0.982652 -0.0232948 0)
(0.975098 -0.0361193 0)
(0.971365 -0.0357497 0)
(0.973617 -0.024583 0)
(0.977151 -0.0353012 0)
(0.985607 -0.00269144 0)
(1.00048 0.00293811 0)
(0.988876 0.0038872 0)
(0.993366 -0.0102607 0)
(0.973357 -0.00614897 0)
(1.00533 -0.00767073 0)
(1.02664 0.00264604 0)
(1.04208 -0.0148755 0)
(0.981228 0.0361133 0)
(1.0588 0.0132913 0)
(0.979965 0.0210043 0)
(1.00978 0.0153782 0)
(1.00811 -0.0076022 0)
(1.00043 -0.00452292 0)
(1.00008 -0.031066 0)
(0.98526 -0.0230529 0)
(0.978744 -0.0354854 0)
(0.971303 -0.0361481 0)
(0.971986 -0.0240868 0)
(0.973528 -0.0347961 0)
(0.991746 -0.00261363 0)
(0.998819 0.00291532 0)
(0.995984 0.00394915 0)
(0.9881 -0.0100804 0)
(0.976053 -0.00629951 0)
(0.998446 -0.0081854 0)
(1.02774 0.0021572 0)
(1.03875 -0.01431 0)
(0.993581 0.0359015 0)
(1.04537 0.0134476 0)
(0.998015 0.0215198 0)
(1.01182 0.0150585 0)
(1.01683 -0.00733501 0)
(1.00775 -0.00461759 0)
(1.00448 -0.0302832 0)
(0.988652 -0.0229602 0)
(0.983132 -0.0347431 0)
(0.971021 -0.035976 0)
(0.972102 -0.0241751 0)
(0.971824 -0.0338457 0)
(0.996013 -0.00255893 0)
(0.998111 0.00287823 0)
(1.00163 0.00404585 0)
(0.985881 -0.00985687 0)
(0.978634 -0.00643695 0)
(0.993729 -0.00869585 0)
(1.02551 0.00160479 0)
(1.03448 -0.0138554 0)
(1.00194 0.0357494 0)
(1.03932 0.0135447 0)
(1.00882 0.0217836 0)
(1.01745 0.0148444 0)
(1.02288 -0.00710561 0)
(1.01377 -0.00464091 0)
(1.00865 -0.0293707 0)
(0.991961 -0.0228162 0)
(0.985956 -0.0338207 0)
(0.972436 -0.0357773 0)
(0.971282 -0.0242993 0)
(0.971345 -0.0328665 0)
(0.998393 -0.00252198 0)
(0.99784 0.0028224 0)
(1.00589 0.00415575 0)
(0.986069 -0.00960462 0)
(0.981982 -0.00654955 0)
(0.991001 -0.00915111 0)
(1.0205 0.00104575 0)
(1.02727 -0.0135195 0)
(1.00676 0.0355391 0)
(1.03734 0.0136128 0)
(1.01528 0.0218885 0)
(1.02247 0.0146758 0)
(1.02741 -0.00685209 0)
(1.01828 -0.00463962 0)
(1.01234 -0.0283856 0)
(0.995442 -0.0225991 0)
(0.988223 -0.0328641 0)
(0.974281 -0.0354765 0)
(0.970913 -0.0243523 0)
(0.971186 -0.0317703 0)
(0.999458 -0.00249226 0)
(0.997419 0.00274401 0)
(1.00893 0.00425961 0)
(0.987609 -0.00934374 0)
(0.986205 -0.00663029 0)
(0.989778 -0.00949972 0)
(1.01384 0.000555696 0)
(1.01647 -0.0133021 0)
(1.009 0.0351998 0)
(1.03618 0.0136582 0)
(1.01892 0.0218886 0)
(1.02598 0.01454 0)
(1.03049 -0.00658049 0)
(1.02158 -0.00464321 0)
(1.01536 -0.0273329 0)
(0.998523 -0.0223169 0)
(0.990422 -0.0318625 0)
(0.976025 -0.0350385 0)
(0.970998 -0.0243041 0)
(0.971169 -0.03067 0)
(0.999855 -0.00245941 0)
(0.996654 0.00264184 0)
(1.01084 0.00434543 0)
(0.989633 -0.00909262 0)
(0.990608 -0.00668089 0)
(0.989596 -0.00970927 0)
(1.00679 0.000201241 0)
(1.00328 -0.0131922 0)
(1.00899 0.034666 0)
(1.03376 0.0136813 0)
(1.02036 0.0217978 0)
(1.02801 0.0144146 0)
(1.03232 -0.00631307 0)
(1.02385 -0.0046395 0)
(1.01773 -0.0262517 0)
(1.00129 -0.0220004 0)
(0.992798 -0.0308112 0)
(0.977991 -0.0344345 0)
(0.971348 -0.0242128 0)
(0.971204 -0.0296548 0)
(1 -0.00241752 0)
(0.995749 0.00252093 0)
(1.01171 0.00440299 0)
(0.991645 -0.00886321 0)
(0.994329 -0.00670767 0)
(0.990031 -0.00977682 0)
(1.0006 2.40292e-05 0)
(0.990067 -0.013166 0)
(1.0069 0.0339196 0)
(1.02949 0.0136783 0)
(1.02011 0.0215991 0)
(1.02884 0.0142664 0)
(1.03303 -0.00605499 0)
(1.02516 -0.0046394 0)
(1.01921 -0.0251828 0)
(1.00365 -0.0216412 0)
(0.995256 -0.0297186 0)
(0.980268 -0.0336905 0)
(0.971977 -0.02409 0)
(0.971209 -0.0286818 0)
(1.00008 -0.00236519 0)
(0.995024 0.00238791 0)
(1.01175 0.0044309 0)
(0.993477 -0.00865652 0)
(0.996871 -0.00671781 0)
(0.990665 -0.00972555 0)
(0.996211 3.13299e-05 0)
(0.979178 -0.0131843 0)
(1.00346 0.0329937 0)
(1.02415 0.0136416 0)
(1.01893 0.0212591 0)
(1.02888 0.0140926 0)
(1.03279 -0.00581201 0)
(1.02558 -0.00464627 0)
(1.01976 -0.0241357 0)
(1.00544 -0.0212514 0)
(0.997685 -0.0286414 0)
(0.982845 -0.0328329 0)
(0.973026 -0.0238641 0)
(0.971318 -0.0276783 0)
(1.00016 -0.00230442 0)
(0.99467 0.00224888 0)
(1.01119 0.00443373 0)
(0.99516 -0.00846699 0)
(0.998225 -0.00671516 0)
(0.991145 -0.00959447 0)
(0.99394 0.000193998 0)
(0.972012 -0.0132042 0)
(0.999966 0.0319373 0)
(1.01909 0.0135743 0)
(1.0175 0.0207726 0)
(1.02845 0.0139051 0)
(1.03179 -0.00558362 0)
(1.02519 -0.00464836 0)
(1.01949 -0.0231164 0)
(1.00649 -0.0208791 0)
(0.999816 -0.0276014 0)
(0.985549 -0.0318684 0)
(0.974527 -0.0234856 0)
(0.97177 -0.0266341 0)
(1.00027 -0.00223898 0)
(0.994683 0.0021102 0)
(1.01019 0.00441537 0)
(0.99677 -0.00828858 0)
(0.998696 -0.00669488 0)
(0.991288 -0.00942505 0)
(0.99342 0.000451929 0)
(0.968725 -0.0131943 0)
(0.997366 0.0307992 0)
(1.01533 0.013486 0)
(1.01614 0.0201579 0)
(1.0276 0.0137225 0)
(1.03026 -0.00536248 0)
(1.02409 -0.0046319 0)
(1.01862 -0.0221364 0)
(1.00677 -0.0205409 0)
(1.00137 -0.0266035 0)
(0.988117 -0.0308247 0)
(0.976348 -0.0229743 0)
(0.972748 -0.0255457 0)
(1.00044 -0.00217246 0)
(0.994943 0.00197762 0)
(1.00891 0.00437779 0)
(0.998318 -0.00811681 0)
(0.998677 -0.00664974 0)
(0.991133 -0.00924865 0)
(0.993859 0.000741252 0)
(0.968581 -0.013135 0)
(0.995619 0.02962 0)
(1.01294 0.013394 0)
(1.01466 0.0194518 0)
(1.02616 0.0135609 0)
(1.02847 -0.00514415 0)
(1.02243 -0.00459833 0)
(1.01744 -0.0211923 0)
(1.00644 -0.020221 0)
(1.00218 -0.0256749 0)
(0.990294 -0.0297602 0)
(0.978253 -0.0223554 0)
(0.974235 -0.0243913 0)
(1.00064 -0.00210744 0)
(0.995308 0.00185546 0)
(1.00749 0.00432306 0)
(0.999724 -0.00795093 0)
(0.998489 -0.00657563 0)
(0.990861 -0.00907686 0)
(0.994462 0.00101217 0)
(0.970472 -0.0130107 0)
(0.993984 0.0284354 0)
(1.01132 0.013316 0)
(1.0128 0.0186985 0)
(1.024 0.0134119 0)
(1.02667 -0.00492828 0)
(1.02044 -0.00455787 0)
(1.0162 -0.0202761 0)
(1.00582 -0.0199192 0)
(1.00227 -0.0248207 0)
(0.991942 -0.0287239 0)
(0.980028 -0.0216695 0)
(0.976007 -0.0231743 0)
(1.00085 -0.00204498 0)
(0.995673 0.00174615 0)
(1.00609 0.00425349 0)
(1.00087 -0.00779364 0)
(0.998325 -0.00647236 0)
(0.990665 -0.00890582 0)
(0.994749 0.00123346 0)
(0.973302 -0.0128065 0)
(0.991874 0.0272746 0)
(1.00982 0.0132552 0)
(1.01057 0.0179284 0)
(1.02125 0.0132531 0)
(1.02502 -0.00472497 0)
(1.01841 -0.00450986 0)
(1.01503 -0.0194042 0)
(1.00521 -0.0196278 0)
(1.00185 -0.0240046 0)
(0.993063 -0.0277639 0)
(0.981576 -0.0209518 0)
(0.977772 -0.0219482 0)
(1.00103 -0.00198465 0)
(0.995984 0.00164936 0)
(1.00484 0.00417215 0)
(1.00169 -0.00764749 0)
(0.998253 -0.00634399 0)
(0.990652 -0.00872747 0)
(0.994616 0.00139496 0)
(0.976216 -0.0125155 0)
(0.989344 0.0261503 0)
(1.00814 0.0132065 0)
(1.00826 0.0171505 0)
(1.0183 0.0130611 0)
(1.02357 -0.00454469 0)
(1.01658 -0.00446556 0)
(1.01396 -0.0185694 0)
(1.00481 -0.0193352 0)
(1.00119 -0.0232036 0)
(0.993753 -0.026882 0)
(0.982905 -0.020242 0)
(0.97932 -0.0207514 0)
(1.00116 -0.00192539 0)
(0.996224 0.00156299 0)
(1.00378 0.00408241 0)
(1.00218 -0.00751327 0)
(0.998269 -0.00619795 0)
(0.99083 -0.00853322 0)
(0.994194 0.00150099 0)
(0.978707 -0.0121435 0)
(0.986886 0.0250661 0)
(1.00641 0.013163 0)
(1.00627 0.0163616 0)
(1.01557 0.012825 0)
(1.02231 -0.00440254 0)
(1.01512 -0.00443028 0)
(1.013 -0.0177566 0)
(1.00466 -0.0190428 0)
(1.00053 -0.0223947 0)
(0.994136 -0.0260536 0)
(0.984069 -0.0195888 0)
(0.980584 -0.0195858 0)
(1.00124 -0.00186589 0)
(0.996398 0.00148421 0)
(1.00293 0.00398829 0)
(1.0024 -0.00739081 0)
(0.998337 -0.00604197 0)
(0.991151 -0.00831629 0)
(0.993664 0.00156011 0)
(0.980604 -0.0116983 0)
(0.984967 0.0240141 0)
(1.00487 0.0131183 0)
(1.00483 0.0155548 0)
(1.01335 0.0125565 0)
(1.02121 -0.00429904 0)
(1.01403 -0.00439778 0)
(1.01215 -0.0169635 0)
(1.00468 -0.0187553 0)
(0.999987 -0.0215555 0)
(0.994326 -0.0252501 0)
(0.98511 -0.0190141 0)
(0.981597 -0.018458 0)
(1.00128 -0.00180482 0)
(0.996519 0.0014103 0)
(1.00224 0.00389346 0)
(1.00243 -0.00727942 0)
(0.998427 -0.00588227 0)
(0.991555 -0.00807412 0)
(0.993167 0.00158472 0)
(0.981966 -0.0111922 0)
(0.983775 0.0229746 0)
(1.00372 0.0130711 0)
(1.00401 0.014728 0)
(1.01171 0.0122645 0)
(1.02022 -0.00421924 0)
(1.01323 -0.00438019 0)
(1.01139 -0.0161691 0)
(1.00479 -0.0184816 0)
(0.999623 -0.0206854 0)
(0.994406 -0.024442 0)
(0.986051 -0.0185297 0)
(0.982419 -0.0173632 0)
(1.00131 -0.00174107 0)
(0.996595 0.0013393 0)
(1.00166 0.0038 0)
(1.00233 -0.00717836 0)
(0.998518 -0.00572417 0)
(0.991996 -0.00780541 0)
(0.992787 0.00158789 0)
(0.982945 -0.0106428 0)
(0.983232 0.021934 0)
(1.00296 0.0130167 0)
(1.00369 0.0138843 0)
(1.01056 0.0119491 0)
(1.01928 -0.00414394 0)
(1.01262 -0.00438996 0)
(1.01071 -0.0153596 0)
(1.00489 -0.0182176 0)
(0.99942 -0.0198016 0)
(0.994428 -0.0235993 0)
(0.986905 -0.0181389 0)
(0.983098 -0.0163121 0)
(1.00134 -0.00167393 0)
(0.996639 0.00127031 0)
(1.00116 0.00370885 0)
(1.00214 -0.00708694 0)
(0.998596 -0.0055703 0)
(0.992439 -0.00751306 0)
(0.992572 0.00157537 0)
(0.983704 -0.0100582 0)
(0.983138 0.0208736 0)
(1.00251 0.0129561 0)
(1.00372 0.0130284 0)
(1.00971 0.0116254 0)
(1.01836 -0.0040529 0)
(1.01211 -0.0044354 0)
(1.01005 -0.0145201 0)
(1.00496 -0.0179621 0)
(0.999336 -0.0189254 0)
(0.994415 -0.0226869 0)
(0.98768 -0.017838 0)
(0.983672 -0.0153322 0)
(1.00137 -0.00160306 0)
(0.996667 0.00120301 0)
(1.00074 0.00362088 0)
(1.00189 -0.0070037 0)
(0.998652 -0.00542411 0)
(0.992854 -0.00719969 0)
(0.992549 0.00155077 0)
(0.984366 -0.00944296 0)
(0.983286 0.0197861 0)
(1.00224 0.0128884 0)
(1.00392 0.0121688 0)
(1.009 0.011303 0)
(1.01741 -0.00393623 0)
(1.01162 -0.00452052 0)
(1.00938 -0.0136564 0)
(1.00494 -0.0176912 0)
(0.999322 -0.0180865 0)
(0.994372 -0.0216816 0)
(0.98838 -0.0175978 0)
(0.984176 -0.0144505 0)
(1.0014 -0.00152837 0)
(0.996698 0.00113642 0)
(1.00039 0.00353731 0)
(1.00162 -0.0069271 0)
(0.998676 -0.00528738 0)
(0.99321 -0.0068684 0)
(0.992727 0.00151287 0)
(0.98501 -0.0087971 0)
(0.983534 0.018683 0)
(1.002 0.0127993 0)
(1.00414 0.0113174 0)
(1.00828 0.0109605 0)
(1.01641 -0.0037795 0)
(1.01111 -0.00465109 0)
(1.00867 -0.0127842 0)
(1.00484 -0.0173832 0)
(0.999331 -0.0173136 0)
(0.9943 -0.0205765 0)
(0.989004 -0.0173661 0)
(0.984645 -0.0136978 0)
(1.00141 -0.0014499 0)
(0.996756 0.00107021 0)
(1.00012 0.00345771 0)
(1.00134 -0.00685443 0)
(0.99866 -0.0051601 0)
(0.993479 -0.00652706 0)
(0.993091 0.00146327 0)
(0.985672 -0.00812051 0)
(0.983816 0.0175611 0)
(1.00172 0.0126897 0)
(1.00429 0.0104865 0)
(1.0075 0.0106055 0)
(1.01538 -0.00356611 0)
(1.01056 -0.00482489 0)
(1.00792 -0.0119126 0)
(1.00465 -0.0170175 0)
(0.999332 -0.0166318 0)
(0.994199 -0.0193926 0)
(0.989542 -0.0170924 0)
(0.98511 -0.0131003 0)
(1.00136 -0.0013674 0)
(0.996861 0.0010014 0)
(0.999958 0.00338385 0)
(1.00107 -0.00678163 0)
(0.9986 -0.00504376 0)
(0.993644 -0.00617923 0)
(0.993599 0.00139684 0)
(0.986356 -0.00741145 0)
(0.984142 0.0164327 0)
(1.00137 0.0125556 0)
(1.00433 0.00967826 0)
(1.00666 0.01023 0)
(1.01432 -0.00330559 0)
(1.01 -0.00502677 0)
(1.00714 -0.0110618 0)
(1.00438 -0.0165708 0)
(0.99931 -0.016047 0)
(0.994082 -0.0181791 0)
(0.989987 -0.016734 0)
(0.985592 -0.0126582 0)
(1.00125 -0.00128134 0)
(0.99702 0.000928117 0)
(0.99991 0.00331508 0)
(1.00083 -0.00670273 0)
(0.998496 -0.00493537 0)
(0.9937 -0.00582964 0)
(0.994184 0.00130531 0)
(0.987046 -0.00666679 0)
(0.984558 0.0153143 0)
(1.00098 0.0123891 0)
(1.00429 0.00891696 0)
(1.00582 0.00980705 0)
(1.01328 -0.00300536 0)
(1.00946 -0.00524653 0)
(1.00637 -0.010248 0)
(1.00405 -0.0160364 0)
(0.999268 -0.0155588 0)
(0.993962 -0.0169714 0)
(0.990338 -0.0162476 0)
(0.986109 -0.0123552 0)
(1.00107 -0.00119163 0)
(0.997231 0.000848093 0)
(0.999973 0.00324979 0)
(1.00063 -0.00661132 0)
(0.998351 -0.0048349 0)
(0.993655 -0.00548058 0)
(0.994763 0.00119173 0)
(0.987719 -0.00589886 0)
(0.985108 0.0142197 0)
(1.00058 0.0121891 0)
(1.0042 0.0082115 0)
(1.00505 0.00934126 0)
(1.0123 -0.00267187 0)
(1.00898 -0.00546506 0)
(1.00563 -0.00949465 0)
(1.00369 -0.0154046 0)
(0.999223 -0.0151461 0)
(0.993867 -0.0158125 0)
(0.990597 -0.0156181 0)
(0.986656 -0.0121534 0)
(1.00083 -0.00109808 0)
(0.997478 0.000756131 0)
(1.00013 0.0031911 0)
(1.00048 -0.00650242 0)
(0.998176 -0.00473965 0)
(0.993537 -0.00513422 0)
(0.99526 0.00105756 0)
(0.988351 -0.00512266 0)
(0.985814 0.0131634 0)
(1.00022 0.0119473 0)
(1.00414 0.00756188 0)
(1.00441 0.00883708 0)
(1.01139 -0.0023157 0)
(1.00857 -0.00566196 0)
(1.00495 -0.00881167 0)
(1.00332 -0.014677 0)
(0.999197 -0.0147712 0)
(0.993815 -0.0147406 0)
(0.99078 -0.0148502 0)
(0.987231 -0.0119836 0)
(1.00055 -0.0009998 0)
(0.99774 0.000649172 0)
(1.00034 0.00313411 0)
(1.0004 -0.00636486 0)
(0.997985 -0.0046492 0)
(0.993376 -0.00478887 0)
(0.995625 0.000899601 0)
(0.988929 -0.0043514 0)
(0.986656 0.0121485 0)
(0.999942 0.0116625 0)
(1.00413 0.00698013 0)
(1.0039 0.00828941 0)
(1.01058 -0.00194235 0)
(1.00824 -0.00582204 0)
(1.00437 -0.00820687 0)
(1.00295 -0.0138584 0)
(0.999206 -0.0143992 0)
(0.993833 -0.0137792 0)
(0.990909 -0.0139629 0)
(0.987811 -0.0117796 0)
(1.00027 -0.000897319 0)
(0.997994 0.000527285 0)
(1.00058 0.00307328 0)
(1.00036 -0.00619569 0)
(0.997799 -0.0045649 0)
(0.993213 -0.00443588 0)
(0.995842 0.000720241 0)
(0.989452 -0.00360954 0)
(0.987583 0.0111941 0)
(0.999754 0.0113234 0)
(1.00418 0.00645397 0)
(1.00354 0.00770659 0)
(1.00984 -0.0015698 0)
(1.00799 -0.00592583 0)
(1.00388 -0.00768148 0)
(1.00257 -0.0129738 0)
(0.999254 -0.0139939 0)
(0.993932 -0.0129479 0)
(0.991012 -0.013008 0)
(0.988374 -0.0114835 0)
(1.00001 -0.000790859 0)
(0.998221 0.000390758 0)
(1.0008 0.00300726 0)
(1.00036 -0.00599064 0)
(0.99764 -0.00448595 0)
(0.993083 -0.00407425 0)
(0.995933 0.00052674 0)
(0.98993 -0.00291504 0)
(0.988534 0.010301 0)
(0.999637 0.0109263 0)
(1.00426 0.00598309 0)
(1.00328 0.00710574 0)
(1.00917 -0.00121043 0)
(1.00777 -0.00596794 0)
(1.00348 -0.00723291 0)
(1.0022 -0.0120376 0)
(0.999332 -0.0135294 0)
(0.994122 -0.0122478 0)
(0.991123 -0.0120401 0)
(0.988896 -0.0110563 0)
(0.999799 -0.000680013 0)
(0.998414 0.000239455 0)
(1.00099 0.00293264 0)
(1.00036 -0.00574538 0)
(0.997526 -0.0044097 0)
(0.993013 -0.00370953 0)
(0.995942 0.000328919 0)
(0.990378 -0.0022829 0)
(0.989455 0.00947058 0)
(0.999561 0.0104786 0)
(1.00433 0.00556538 0)
(1.00307 0.00650205 0)
(1.00852 -0.000872664 0)
(1.00755 -0.00594166 0)
(1.00317 -0.00685329 0)
(1.00182 -0.0110861 0)
(0.999418 -0.0129841 0)
(0.994396 -0.0116452 0)
(0.991273 -0.0111157 0)
(0.989364 -0.0104953 0)
(0.999639 -0.00056585 0)
(0.998569 7.94051e-05 0)
(1.00112 0.00284327 0)
(1.00036 -0.00546273 0)
(0.997467 -0.0043362 0)
(0.993018 -0.00334083 0)
(0.995924 0.000139717 0)
(0.990817 -0.00173351 0)
(0.990313 0.00871161 0)
(0.999498 0.00998634 0)
(1.00436 0.00519554 0)
(1.00288 0.00591063 0)
(1.00787 -0.000563344 0)
(1.0073 -0.00583684 0)
(1.00292 -0.00652005 0)
(1.00143 -0.0101485 0)
(0.999494 -0.0123594 0)
(0.994739 -0.0111126 0)
(0.991479 -0.010274 0)
(0.989778 -0.00981168 0)
(0.999533 -0.000450419 0)
(0.998692 -8.43661e-05 0)
(1.00118 0.00273851 0)
(1.00033 -0.00514117 0)
(0.997465 -0.00426695 0)
(0.993098 -0.00297592 0)
(0.995921 -3.07557e-05 0)
(0.991261 -0.00126648 0)
(0.9911 0.00801746 0)
(0.999432 0.00946207 0)
(1.00431 0.00485405 0)
(1.00268 0.00533516 0)
(1.00719 -0.00028599 0)
(1.00701 -0.00566311 0)
(1.00271 -0.00623815 0)
(1.00104 -0.00923445 0)
(0.999534 -0.0116552 0)
(0.995127 -0.0106192 0)
(0.991762 -0.0095312 0)
(0.990152 -0.0090707 0)
(0.999473 -0.000332769 0)
(0.998793 -0.000250922 0)
(1.00119 0.00261118 0)
(1.00026 -0.00478508 0)
(0.997515 -0.00419399 0)
(0.993245 -0.00262487 0)
(0.995959 -0.000174442 0)
(0.991719 -0.000882788 0)
(0.99182 0.00738283 0)
(0.999355 0.008905 0)
(1.0042 0.00453335 0)
(1.00246 0.00479194 0)
(1.00649 -4.29066e-05 0)
(1.00666 -0.00542212 0)
(1.00254 -0.00599115 0)
(1.00066 -0.00836947 0)
(0.999526 -0.0108967 0)
(0.995534 -0.0101271 0)
(0.992112 -0.00887648 0)
(0.990504 -0.00833552 0)
(0.999449 -0.000216584 0)
(0.998884 -0.000410788 0)
(1.00115 0.00246291 0)
(1.00016 -0.00440714 0)
(0.997606 -0.00412037 0)
(0.993445 -0.00228968 0)
(0.996044 -0.000275167 0)
(0.992192 -0.000581769 0)
(0.992485 0.0067981 0)
(0.999273 0.00833782 0)
(1.00403 0.00422898 0)
(1.00223 0.00427412 0)
(1.00579 0.000167502 0)
(1.00626 -0.00513001 0)
(1.00239 -0.00576067 0)
(1.00029 -0.00755593 0)
(0.999463 -0.0100987 0)
(0.995939 -0.00963397 0)
(0.992523 -0.00829619 0)
(0.990854 -0.00764214 0)
(0.999447 -0.000102662 0)
(0.998973 -0.000561251 0)
(1.00109 0.00229415 0)
(1.00004 -0.00400246 0)
(0.99773 -0.00404196 0)
(0.993687 -0.00198687 0)
(0.996169 -0.000331454 0)
(0.992677 -0.000349886 0)
(0.993109 0.00625497 0)
(0.999191 0.00777679 0)
(1.00383 0.00394168 0)
(1.00201 0.00378015 0)
(1.00509 0.000344106 0)
(1.00581 -0.00478412 0)
(1.00227 -0.00555284 0)
(0.99995 -0.00681439 0)
(0.999345 -0.00926291 0)
(0.996322 -0.00913387 0)
(0.992979 -0.00778941 0)
(0.991224 -0.0070249 0)
(0.999458 6.60238e-06 0)
(0.999068 -0.000691451 0)
(1.00101 0.00210119 0)
(0.999889 -0.00359242 0)
(0.997874 -0.00394569 0)
(0.993957 -0.00171978 0)
(0.996321 -0.000340615 0)
(0.993166 -0.000187075 0)
(0.993701 0.00574741 0)
(0.999114 0.00723461 0)
(1.0036 0.00367365 0)
(1.00179 0.00332451 0)
(1.00441 0.000470076 0)
(1.00534 -0.00439369 0)
(1.00217 -0.00532992 0)
(0.999663 -0.00614701 0)
(0.999182 -0.00840232 0)
(0.996664 -0.00859482 0)
(0.993466 -0.00732509 0)
(0.991622 -0.00648778 0)
(0.999474 0.000111123 0)
(0.99917 -0.000806789 0)
(1.00094 0.00189696 0)
(0.99973 -0.00317629 0)
(0.998032 -0.00384267 0)
(0.99425 -0.00149747 0)
(0.996487 -0.000298749 0)
(0.993649 -6.6536e-05 0)
(0.99427 0.00525495 0)
(0.999045 0.00671199 0)
(1.00336 0.00341604 0)
(1.0016 0.00290839 0)
(1.00378 0.000566933 0)
(1.00485 -0.00398878 0)
(1.00209 -0.00508702 0)
(0.999434 -0.00555369 0)
(0.99899 -0.00754393 0)
(0.996955 -0.00801515 0)
(0.993959 -0.00687789 0)
(0.99205 -0.00602505 0)
(0.999491 0.000207878 0)
(0.999278 -0.000891327 0)
(1.00089 0.00166684 0)
(0.999565 -0.002772 0)
(0.998192 -0.00370099 0)
(0.994561 -0.00132229 0)
(0.996661 -0.000236312 0)
(0.994117 2.69835e-05 0)
(0.994817 0.00477907 0)
(0.998989 0.00620585 0)
(1.00312 0.00318241 0)
(1.00143 0.00250872 0)
(1.0032 0.000625698 0)
(1.00436 -0.00357208 0)
(1.00203 -0.00482145 0)
(0.999273 -0.00501121 0)
(0.998788 -0.00668919 0)
(0.997191 -0.00738577 0)
(0.994446 -0.00644336 0)
(0.992484 -0.00559806 0)
(0.999507 0.000295339 0)
(0.999388 -0.000955309 0)
(1.00085 0.00143175 0)
(0.999406 -0.00237623 0)
(0.998351 -0.00354431 0)
(0.994883 -0.00119769 0)
(0.996839 -0.000133731 0)
(0.994568 0.000106972 0)
(0.995344 0.00431648 0)
(0.998947 0.00569929 0)
(1.00288 0.00296868 0)
(1.00127 0.00217322 0)
(1.00268 0.000643144 0)
(1.00386 -0.00316974 0)
(1.00198 -0.00456784 0)
(0.999183 -0.0045526 0)
(0.998592 -0.00586559 0)
(0.997366 -0.00667057 0)
(0.994908 -0.0059481 0)
(0.992914 -0.00514711 0)
(0.999522 0.000371458 0)
(0.999496 -0.000983253 0)
(1.00083 0.00117902 0)
(0.999251 -0.00201115 0)
(0.998497 -0.00333785 0)
(0.995218 -0.00111571 0)
(0.997022 -3.9208e-05 0)
(0.994991 0.000196132 0)
(0.995848 0.00388478 0)
(0.998925 0.00522452 0)
(1.00265 0.00275664 0)
(1.00114 0.00183502 0)
(1.00221 0.000631199 0)
(1.00337 -0.00276964 0)
(1.00192 -0.00428651 0)
(0.999173 -0.00419812 0)
(0.998443 -0.00515925 0)
(0.997508 -0.00603132 0)
(0.995345 -0.0055157 0)
(0.993311 -0.00463123 0)
(0.999539 0.000436854 0)
(0.999598 -0.00098938 0)
(1.00083 0.000926009 0)
(0.999117 -0.00167317 0)
(0.998635 -0.00310622 0)
(0.995551 -0.00107084 0)
(0.997214 8.04455e-05 0)
(0.995396 0.000274379 0)
(0.996332 0.00346086 0)
(0.998918 0.00474578 0)
(1.0024 0.00257603 0)
(1.00102 0.00157719 0)
(1.00181 0.00056225 0)
(1.00291 -0.00243129 0)
(1.00186 -0.00401824 0)
(0.999207 -0.00395491 0)
(0.998314 -0.00458385 0)
(0.997598 -0.00549838 0)
(0.99581 -0.00530246 0)
(0.9938 -0.00430111 0)
(0.999554 0.000487258 0)
(0.999692 -0.000956621 0)
(1.00086 0.000666654 0)
(0.998994 -0.00138179 0)
(0.998751 -0.00282801 0)
(0.995899 -0.00104362 0)
(0.997414 0.000147099 0)
(0.995764 0.000396892 0)
(0.996787 0.00307003 0)
(0.998941 0.00430323 0)
(1.0022 0.00235946 0)
(1.0009 0.00133803 0)
(1.00144 0.000514954 0)
(1.00245 -0.00210376 0)
(1.00177 -0.00381486 0)
(0.999293 -0.00379049 0)
(0.998238 -0.00422362 0)
(0.997605 -0.0049891 0)
(0.996198 -0.00496498 0)
(0.994377 -0.00395752 0)
(0.999573 0.000527264 0)
(0.999772 -0.000905683 0)
(1.00089 0.000422352 0)
(0.998904 -0.00114007 0)
(0.998856 -0.00252319 0)
(0.996224 -0.00102895 0)
(0.997631 0.000217357 0)
(0.996122 0.000474039 0)
(0.997214 0.00273078 0)
(0.998968 0.00384788 0)
(1.00197 0.00219766 0)
(1.00082 0.00111169 0)
(1.00116 0.000403857 0)
(1.002 -0.00182424 0)
(1.00165 -0.00353574 0)
(0.999377 -0.00357343 0)
(0.998205 -0.00373422 0)
(0.997672 -0.00433882 0)
(0.996608 -0.0043888 0)
(0.994956 -0.00342736 0)
(0.999592 0.000550071 0)
(0.999838 -0.000822774 0)
(1.00094 0.000187042 0)
(0.99883 -0.000951779 0)
(0.99894 -0.00219074 0)
(0.996556 -0.00100961 0)
(0.99785 0.000241866 0)
(0.996442 0.000566517 0)
(0.997608 0.00242763 0)
(0.999031 0.00341912 0)
(1.0018 0.00200909 0)
(1.0007 0.000929949 0)
(1.00088 0.000317599 0)
(1.00161 -0.00154477 0)
(1.00154 -0.00325284 0)
(0.999546 -0.00337634 0)
(0.998279 -0.00333148 0)
(0.997704 -0.00372005 0)
(0.996975 -0.00385374 0)
(0.995543 -0.00310707 0)
(0.999616 0.000564973 0)
(0.999887 -0.000732355 0)
(1.00098 -2.44581e-05 0)
(0.998796 -0.000828246 0)
(0.999018 -0.00184256 0)
(0.996849 -0.00096313 0)
(0.998089 0.00023072 0)
(0.996763 0.000650116 0)
(0.997966 0.00215171 0)
(0.999081 0.00304005 0)
(1.0016 0.00179106 0)
(1.00063 0.000789765 0)
(1.0007 0.000261971 0)
(1.00122 -0.00128991 0)
(1.00138 -0.00290445 0)
(0.999682 -0.00316055 0)
(0.998402 -0.00309163 0)
(0.997818 -0.00323148 0)
(0.997282 -0.00344627 0)
(0.996081 -0.00289081 0)
(0.999637 0.000564956 0)
(0.999922 -0.00063517 0)
(1.00103 -0.000198951 0)
(0.998778 -0.000757775 0)
(0.999081 -0.00150408 0)
(0.99714 -0.000892144 0)
(0.998323 0.00022065 0)
(0.997046 0.000680666 0)
(0.998291 0.00194562 0)
(0.999162 0.00266301 0)
(1.00146 0.00163872 0)
(1.00055 0.000664786 0)
(1.00051 0.000178668 0)
(1.00091 -0.00103512 0)
(1.00122 -0.00248724 0)
(0.999821 -0.00286271 0)
(0.99859 -0.00271243 0)
(0.997907 -0.00271199 0)
(0.997523 -0.00290115 0)
(0.996672 -0.00245947 0)
(0.999664 0.000558777 0)
(0.999938 -0.000530048 0)
(1.00106 -0.000346433 0)
(0.998802 -0.000727659 0)
(0.999148 -0.00117206 0)
(0.997379 -0.000786132 0)
(0.998561 0.000177346 0)
(0.997343 0.000724708 0)
(0.998581 0.00175133 0)
(0.999223 0.0023553 0)
(1.00131 0.00146072 0)
(1.00049 0.000567705 0)
(1.00043 0.00018295 0)
(1.00064 -0.000787393 0)
(1.00104 -0.00211803 0)
(0.999948 -0.00251268 0)
(0.998816 -0.00238501 0)
(0.998099 -0.002254 0)
(0.997804 -0.00237188 0)
(0.997068 -0.00210078 0)
(0.999687 0.000548815 0)
(0.999943 -0.000453187 0)
(1.0011 -0.000420928 0)
(0.99884 -0.00072374 0)
(0.99921 -0.000908032 0)
(0.997609 -0.00064139 0)
(0.998788 0.000166709 0)
(0.997602 0.000702281 0)
(0.998843 0.00158171 0)
(0.999306 0.00209786 0)
(1.0012 0.00133526 0)
(1.00044 0.000537255 0)
(1.00033 0.000146717 0)
(1.0004 -0.000616573 0)
(1.0009 -0.00171742 0)
(1.00007 -0.00215847 0)
(0.999065 -0.0021027 0)
(0.998285 -0.00188957 0)
(0.997997 -0.00206565 0)
(0.997398 -0.00187874 0)
(0.999714 0.000530122 0)
(0.999938 -0.000362535 0)
(1.00111 -0.000482598 0)
(0.998903 -0.000750123 0)
(0.999289 -0.000666947 0)
(0.997798 -0.00048259 0)
(0.998996 0.000148567 0)
(0.997873 0.000701632 0)
(0.999091 0.00145322 0)
(0.999374 0.00186717 0)
(1.00108 0.00122095 0)
(1.0004 0.000491774 0)
(1.0003 0.000142226 0)
(1.00026 -0.000421423 0)
(1.00076 -0.00137926 0)
(1.00014 -0.0018358 0)
(0.999308 -0.00187783 0)
(0.998492 -0.00161379 0)
(0.998209 -0.00172909 0)
(0.997761 -0.00157064 0)
(0.999739 0.000518366 0)
(0.999924 -0.000316286 0)
(1.00112 -0.000481607 0)
(0.998978 -0.000767591 0)
(0.999369 -0.000510065 0)
(0.997976 -0.000318489 0)
(0.999192 0.000190163 0)
(0.998111 0.000670707 0)
(0.999303 0.00129528 0)
(0.999458 0.00167154 0)
(1.00101 0.00114045 0)
(1.00037 0.000503715 0)
(1.00027 0.000142299 0)
(1.00013 -0.000315114 0)
(1.00064 -0.0011128 0)
(1.0002 -0.00150399 0)
(0.999544 -0.00163931 0)
(0.998743 -0.00137261 0)
(0.998422 -0.00137223 0)
(0.998085 -0.0013085 0)
(0.999763 0.00050019 0)
(0.999908 -0.000267169 0)
(1.00111 -0.000455077 0)
(0.999059 -0.000808545 0)
(0.999472 -0.00038068 0)
(0.998136 -0.000157897 0)
(0.999357 0.000227592 0)
(0.998341 0.00064993 0)
(0.999516 0.00119511 0)
(0.999542 0.00151682 0)
(1.00093 0.00105362 0)
(1.00033 0.000496502 0)
(1.00026 0.000150683 0)
(1.00007 -0.000178002 0)
(1.00056 -0.00085664 0)
(1.00025 -0.0012086 0)
(0.999747 -0.0013929 0)
(0.999022 -0.00118202 0)
(0.998644 -0.00109345 0)
(0.998345 -0.00105237 0)
(0.999787 0.000490885 0)
(0.999888 -0.000249683 0)
(1.00109 -0.000406373 0)
(0.999145 -0.000818248 0)
(0.999582 -0.000296324 0)
(0.998289 -3.51481e-05 0)
(0.999512 0.000302821 0)
(0.99855 0.000658891 0)
(0.999696 0.00107686 0)
(0.999624 0.00134725 0)
(1.00088 0.000984842 0)
(1.00032 0.000534931 0)
(1.00027 0.000203449 0)
(1.00001 -6.39244e-05 0)
(1.00049 -0.000661977 0)
(1.00029 -0.000956764 0)
(0.999929 -0.00113527 0)
(0.9993 -0.000991408 0)
(0.998899 -0.000898271 0)
(0.998575 -0.000767448 0)
(0.99981 0.000480204 0)
(0.999871 -0.00023931 0)
(1.00106 -0.000338112 0)
(0.999225 -0.000820802 0)
(0.999706 -0.000246152 0)
(0.998443 6.17673e-05 0)
(0.999647 0.000382439 0)
(0.998732 0.000667025 0)
(0.999864 0.000988515 0)
(0.999719 0.00122608 0)
(1.00085 0.000920008 0)
(1.0003 0.000550054 0)
(1.00028 0.000232954 0)
(0.999989 4.03111e-05 0)
(1.00046 -0.000454307 0)
(1.00035 -0.000713645 0)
(1.00009 -0.000901253 0)
(0.999546 -0.000791577 0)
(0.999189 -0.000755989 0)
(0.9988 -0.000521252 0)
(0.999832 0.000473752 0)
(0.999854 -0.000239769 0)
(1.00103 -0.000273899 0)
(0.999301 -0.0007862 0)
(0.999834 -0.000213267 0)
(0.998598 0.000111063 0)
(0.999777 0.000457849 0)
(0.998897 0.000708759 0)
(1.00001 0.00092877 0)
(0.999804 0.00110771 0)
(1.00083 0.000845108 0)
(1.00031 0.000575155 0)
(1.00032 0.000305253 0)
(0.999996 0.000173044 0)
(1.00043 -0.000269051 0)
(1.0004 -0.000508652 0)
(1.00025 -0.000720216 0)
(0.999767 -0.00059065 0)
(0.999482 -0.000622668 0)
(0.999055 -0.000365047 0)
(0.999853 0.000469595 0)
(0.99984 -0.000250657 0)
(1.00099 -0.000205705 0)
(0.999368 -0.000725305 0)
(0.999961 -0.000191415 0)
(0.998759 0.000133113 0)
(0.999908 0.000514092 0)
(0.999042 0.00075518 0)
(1.00013 0.000888335 0)
(0.999892 0.00101178 0)
(1.00084 0.00079142 0)
(1.00034 0.000594078 0)
(1.00036 0.000357962 0)
(1.00001 0.00027507 0)
(1.00042 -0.000111001 0)
(1.00044 -0.000304555 0)
(1.0004 -0.000546504 0)
(0.999979 -0.00040848 0)
(0.999746 -0.000469417 0)
(0.999342 -0.000264751 0)
(0.999872 0.000467062 0)
(0.999829 -0.000261208 0)
(1.00096 -0.000148091 0)
(0.999428 -0.000648923 0)
(1.00008 -0.000154328 0)
(0.998924 0.000134527 0)
(1.00004 0.000538504 0)
(0.999178 0.000794646 0)
(1.00023 0.000876171 0)
(0.999971 0.000943808 0)
(1.00086 0.000733205 0)
(1.00038 0.000594985 0)
(1.00043 0.000397779 0)
(1.00006 0.000385577 0)
(1.00043 4.61887e-05 0)
(1.00047 -0.000104356 0)
(1.00054 -0.000380406 0)
(1.00018 -0.000276027 0)
(0.99998 -0.000316887 0)
(0.999634 -0.000178092 0)
(0.999892 0.000462533 0)
(0.999819 -0.000267097 0)
(1.00093 -9.73145e-05 0)
(0.999484 -0.000565135 0)
(1.00019 -8.93303e-05 0)
(0.999084 0.000133367 0)
(1.00019 0.000532019 0)
(0.999312 0.000817136 0)
(1.00031 0.000871777 0)
(1.00004 0.000903011 0)
(1.00089 0.000690468 0)
(1.00045 0.00060033 0)
(1.00052 0.000423723 0)
(1.00013 0.000472841 0)
(1.00045 0.000176121 0)
(1.00051 6.3081e-05 0)
(1.00065 -0.000213789 0)
(1.00039 -0.00015941 0)
(1.00021 -0.000186203 0)
(0.999903 -7.27695e-05 0)
(0.99991 0.000458369 0)
(0.999811 -0.000270858 0)
(1.00091 -4.844e-05 0)
(0.999541 -0.000486178 0)
(1.00029 -8.81402e-06 0)
(0.999232 0.000146951 0)
(1.00033 0.000503988 0)
(0.99945 0.00081593 0)
(1.00039 0.000875082 0)
(1.0001 0.000883875 0)
(1.00092 0.000665788 0)
(1.00051 0.000600971 0)
(1.00062 0.000426735 0)
(1.00022 0.00052604 0)
(1.00049 0.000291368 0)
(1.00056 0.000209885 0)
(1.00074 -4.95344e-05 0)
(1.00057 -3.62369e-05 0)