/*--------------------------------*- C++ -*----------------------------------*\
| =========                 |                                                 |
| \\      /  F ield         | OpenFOAM: The Open Source CFD Toolbox           |
|  \\    /   O peration     | Version:  v1912                                 |
|   \\  /    A nd           | Website:  www.openfoam.com                      |
|    \\/     M anipulation  |                                                 |
\*---------------------------------------------------------------------------*/
FoamFile
{
    version     2.0;
    format      ascii;
    class       surfaceScalarField;
    location    "6.75";
    object      phi;
}
// * * * * * * * * * * * * * * * * * * * * * * * * * * * * * * * * * * * * * //

dimensions      [0 3 -1 0 0 0 0];
oriented        oriented;


internalField   nonuniform List<scalar> 
19000
(
1.15781e-06
-2.67974e-07
1.1443e-06
-8.44292e-07
1.18803e-06
1.34471e-06
1.15234e-06
-1.61815e-06
1.18908e-06
1.28847e-06
1.16929e-06
1.11379e-06
1.12242e-06
2.38823e-07
1.15368e-06
4.00002e-07
1.14291e-06
-6.0903e-07
1.12603e-06
-1.37001e-06
1.18529e-06
6.53537e-08
1.1426e-06
-1.61919e-06
1.20435e-06
5.38631e-07
1.14325e-06
-4.00386e-07
1.19367e-06
6.87528e-07
1.13704e-06
4.16045e-07
1.17934e-06
7.67158e-07
1.16162e-06
7.71645e-07
1.1553e-06
5.52827e-07
6.48373e-07
1.16588e-06
1.21381e-06
-2.57525e-07
1.20011e-06
-8.30584e-07
1.24254e-06
1.30228e-06
1.20883e-06
-1.58445e-06
1.23838e-06
1.25892e-06
1.22934e-06
1.12284e-06
1.1796e-06
2.8856e-07
1.20814e-06
3.71462e-07
1.19888e-06
-5.99773e-07
1.18276e-06
-1.35389e-06
1.23656e-06
1.15593e-08
1.19244e-06
-1.57507e-06
1.25117e-06
4.79898e-07
1.20124e-06
-3.5046e-07
1.23196e-06
6.56809e-07
1.20865e-06
4.3936e-07
1.21231e-06
7.63497e-07
1.24309e-06
7.40866e-07
1.18878e-06
6.07134e-07
5.90687e-07
1.24646e-06
1.27221e-06
-2.46957e-07
1.25978e-06
-8.18149e-07
1.30048e-06
1.26158e-06
1.2679e-06
-1.55187e-06
1.28997e-06
1.23685e-06
1.2905e-06
1.1223e-06
1.24373e-06
3.35329e-07
1.26406e-06
3.51133e-07
1.25743e-06
-5.93142e-07
1.24308e-06
-1.33955e-06
1.28925e-06
-3.46108e-08
1.2506e-06
-1.53642e-06
1.30178e-06
4.28722e-07
1.26521e-06
-3.13891e-07
1.27846e-06
6.43562e-07
1.27722e-06
4.40592e-07
1.26103e-06
7.79686e-07
1.29786e-06
7.04039e-07
1.26026e-06
6.44738e-07
5.81564e-07
1.26938e-06
1.33316e-06
-2.36013e-07
1.32352e-06
-8.08507e-07
1.36139e-06
1.22371e-06
1.33125e-06
-1.52173e-06
1.34452e-06
1.22359e-06
1.35221e-06
1.11461e-06
1.31368e-06
3.73861e-07
1.32528e-06
3.39535e-07
1.31987e-06
-5.87735e-07
1.3065e-06
-1.32617e-06
1.34296e-06
-7.10741e-08
1.31495e-06
-1.50841e-06
1.35766e-06
3.86013e-07
1.33778e-06
-2.9401e-07
1.33833e-06
6.43018e-07
1.34618e-06
4.3274e-07
1.33094e-06
7.94929e-07
1.35132e-06
6.83656e-07
1.34105e-06
6.55011e-07
5.90137e-07
1.33247e-06
1.39688e-06
-2.24535e-07
1.39116e-06
-8.02786e-07
1.42533e-06
1.18954e-06
1.3977e-06
-1.49411e-06
1.40449e-06
1.2168e-06
1.41527e-06
1.10382e-06
1.38766e-06
4.01471e-07
1.3932e-06
3.33996e-07
1.38686e-06
-5.81396e-07
1.37236e-06
-1.31167e-06
1.39999e-06
-9.87056e-08
1.38264e-06
-1.49106e-06
1.41919e-06
3.49456e-07
1.41208e-06
-2.86899e-07
1.41111e-06
6.43988e-07
1.41736e-06
4.26488e-07
1.41225e-06
8.00045e-07
1.41829e-06
6.77611e-07
1.42021e-06
6.53088e-07
5.97957e-07
1.41239e-06
1.46369e-06
-2.12544e-07
1.4623e-06
-8.01402e-07
1.49224e-06
1.15959e-06
1.46612e-06
-1.46798e-06
1.47012e-06
1.21281e-06
1.48071e-06
1.09324e-06
1.46384e-06
4.18333e-07
1.46724e-06
3.30601e-07
1.4586e-06
-5.72754e-07
1.44113e-06
-1.2942e-06
1.46184e-06
-1.19414e-07
1.45061e-06
-1.47983e-06
1.48386e-06
3.16206e-07
1.4846e-06
-2.87636e-07
1.48843e-06
6.40159e-07
1.49014e-06
4.24772e-07
1.49321e-06
7.96974e-07
1.49184e-06
6.78989e-07
1.49748e-06
6.47446e-07
6.03048e-07
1.49239e-06
1.53383e-06
-2.00156e-07
1.53652e-06
-8.0409e-07
1.56213e-06
1.13398e-06
1.53586e-06
-1.44172e-06
1.54005e-06
1.20862e-06
1.5491e-06
1.08419e-06
1.5414e-06
4.26027e-07
1.54597e-06
3.26032e-07
1.53482e-06
-5.616e-07
1.51378e-06
-1.27316e-06
1.52881e-06
-1.34446e-07
1.51771e-06
-1.46872e-06
1.54951e-06
2.84404e-07
1.55466e-06
-2.9279e-07
1.56441e-06
6.30415e-07
1.56249e-06
4.26689e-07
1.57045e-06
7.89018e-07
1.56583e-06
6.8361e-07
1.57378e-06
6.39491e-07
6.05876e-07
1.57095e-06
1.60744e-06
-1.8747e-07
1.61352e-06
-8.10172e-07
1.63508e-06
1.11243e-06
1.60704e-06
-1.41368e-06
1.61304e-06
1.20262e-06
1.6208e-06
1.07643e-06
1.62067e-06
4.26158e-07
1.62826e-06
3.1844e-07
1.615e-06
-5.48335e-07
1.59107e-06
-1.24923e-06
1.60073e-06
-1.44111e-07
1.58498e-06
-1.45297e-06
1.61602e-06
2.53361e-07
1.62308e-06
-2.99852e-07
1.63833e-06
6.15171e-07
1.63456e-06
4.30455e-07
1.64647e-06
7.77108e-07
1.64119e-06
6.88892e-07
1.65176e-06
6.28919e-07
6.06414e-07
1.65122e-06
1.68463e-06
-1.7453e-07
1.69326e-06
-8.18793e-07
1.71128e-06
1.0944e-06
1.68056e-06
-1.38295e-06
1.6892e-06
1.19397e-06
1.69648e-06
1.06915e-06
1.70256e-06
4.20078e-07
1.7135e-06
3.07499e-07
1.69854e-06
-5.3337e-07
1.67309e-06
-1.22378e-06
1.67756e-06
-1.48582e-07
1.65475e-06
-1.43016e-06
1.68471e-06
2.23401e-07
1.69145e-06
-3.06585e-07
1.71217e-06
5.94452e-07
1.70834e-06
4.34286e-07
1.72501e-06
7.60433e-07
1.72101e-06
6.92893e-07
1.73413e-06
6.15795e-07
6.05032e-07
1.73552e-06
1.7656e-06
-1.61404e-07
1.77577e-06
-8.28968e-07
1.79098e-06
1.0792e-06
1.75782e-06
-1.3498e-06
1.76978e-06
1.182e-06
1.77713e-06
1.0618e-06
1.78792e-06
4.09288e-07
1.80134e-06
2.94082e-07
1.78491e-06
-5.1694e-07
1.7593e-06
-1.19818e-06
1.75943e-06
-1.4871e-07
1.7293e-06
-1.40002e-06
1.75716e-06
1.95539e-07
1.76148e-06
-3.10907e-07
1.78794e-06
5.67988e-07
1.78544e-06
4.3679e-07
1.80784e-06
7.38037e-07
1.80624e-06
6.94489e-07
1.8213e-06
6.00739e-07
6.02403e-07
1.82392e-06
1.85064e-06
-1.48293e-07
1.86117e-06
-8.39498e-07
1.87438e-06
1.06599e-06
1.84e-06
-1.31542e-06
1.85592e-06
1.16609e-06
1.86355e-06
1.05417e-06
1.87717e-06
3.9567e-07
1.89154e-06
2.7971e-07
1.87382e-06
-4.99218e-07
1.84883e-06
-1.17319e-06
1.84642e-06
-1.46301e-07
1.80998e-06
-1.36358e-06
1.83452e-06
1.70996e-07
1.83458e-06
-3.10962e-07
1.8665e-06
5.36062e-07
1.86593e-06
4.37359e-07
1.89411e-06
7.0986e-07
1.89519e-06
6.93405e-07
1.91132e-06
5.84616e-07
5.98788e-07
1.91493e-06
1.9401e-06
-1.35556e-07
1.94962e-06
-8.49017e-07
1.96171e-06
1.0539e-06
1.9275e-06
-1.28121e-06
1.94766e-06
1.14593e-06
1.95587e-06
1.04596e-06
1.97038e-06
3.81152e-07
1.98417e-06
2.65922e-07
1.96544e-06
-4.80486e-07
1.94086e-06
-1.14861e-06
1.93828e-06
-1.4372e-07
1.89716e-06
-1.32246e-06
1.91757e-06
1.50584e-07
1.91188e-06
-3.05276e-07
1.94784e-06
5.0011e-07
1.94883e-06
4.36364e-07
1.98174e-06
6.76947e-07
1.98531e-06
6.89843e-07
2.00165e-06
5.6827e-07
5.93657e-07
2.00678e-06
2.03425e-06
-1.23613e-07
2.04149e-06
-8.56264e-07
2.05327e-06
1.04212e-06
2.01999e-06
-1.24793e-06
2.04405e-06
1.12187e-06
2.05346e-06
1.03655e-06
2.06749e-06
3.67116e-07
2.07967e-06
2.53741e-07
2.06037e-06
-4.61187e-07
2.03516e-06
-1.1234e-06
2.03446e-06
-1.4302e-07
1.99034e-06
-1.27834e-06
2.00683e-06
1.341e-07
1.99465e-06
-2.93099e-07
2.03221e-06
4.62551e-07
2.03357e-06
4.34997e-07
2.06939e-06
6.41134e-07
2.07519e-06
6.84042e-07
2.09101e-06
5.52451e-07
5.8592e-07
2.09875e-06
2.13317e-06
-1.12781e-07
2.13733e-06
-8.60428e-07
2.14939e-06
1.03007e-06
2.11699e-06
-1.21553e-06
2.14405e-06
1.09481e-06
2.1554e-06
1.02521e-06
2.16848e-06
3.5403e-07
2.17875e-06
2.43477e-07
2.15942e-06
-4.41863e-07
2.13229e-06
-1.09626e-06
2.13432e-06
-1.45055e-07
2.08853e-06
-1.23254e-06
2.10253e-06
1.20092e-07
2.08422e-06
-2.74781e-07
2.12096e-06
4.25802e-07
2.12126e-06
4.34699e-07
2.15787e-06
6.04525e-07
2.16581e-06
6.76099e-07
2.18029e-06
5.37978e-07
5.74524e-07
2.19168e-06
2.23689e-06
-1.03184e-07
2.23773e-06
-8.61269e-07
2.25047e-06
1.01733e-06
2.21837e-06
-1.18343e-06
2.24723e-06
1.06595e-06
2.26095e-06
1.01148e-06
2.27342e-06
3.41569e-07
2.28202e-06
2.34877e-07
2.26321e-06
-4.23056e-07
2.23341e-06
-1.06646e-06
2.23761e-06
-1.4926e-07
2.19082e-06
-1.18575e-06
2.20454e-06
1.06369e-07
2.18149e-06
-2.51731e-07
2.21614e-06
3.91151e-07
2.21443e-06
4.3641e-07
2.24999e-06
5.68965e-07
2.26007e-06
6.66026e-07
2.27222e-06
5.25824e-07
5.59115e-07
2.28763e-06
2.34544e-06
-9.47533e-08
2.34317e-06
-8.58992e-07
2.35683e-06
1.00367e-06
2.32439e-06
-1.151e-06
2.35382e-06
1.03652e-06
2.36988e-06
9.95415e-07
2.38244e-06
3.29013e-07
2.38986e-06
2.27457e-07
2.37203e-06
-4.0523e-07
2.33967e-06
-1.0341e-06
2.34468e-06
-1.54276e-07
2.29698e-06
-1.13805e-06
2.3123e-06
9.10507e-08
2.28632e-06
-2.25756e-07
2.31899e-06
3.58481e-07
2.31529e-06
4.40116e-07
2.34852e-06
5.3573e-07
2.36077e-06
6.53782e-07
2.36985e-06
5.16737e-07
5.40469e-07
2.3885e-06
2.45894e-06
-8.72932e-08
2.45395e-06
-8.54011e-07
2.4687e-06
9.88924e-07
2.43544e-06
-1.11773e-06
2.46444e-06
1.00752e-06
2.48243e-06
9.77429e-07
2.49581e-06
3.15632e-07
2.50249e-06
2.20776e-07
2.48599e-06
-3.88723e-07
2.45169e-06
-9.998e-07
2.45632e-06
-1.58911e-07
2.40747e-06
-1.08919e-06
2.42512e-06
7.33914e-08
2.39758e-06
-1.98216e-07
2.42901e-06
3.27059e-07
2.42408e-06
4.4504e-07
2.45424e-06
5.05577e-07
2.46882e-06
6.39196e-07
2.47474e-06
5.10823e-07
5.2017e-07
2.49503e-06
2.57754e-06
-8.0539e-08
2.57033e-06
-8.46805e-07
2.58629e-06
9.72968e-07
2.5519e-06
-1.08334e-06
2.57982e-06
9.79599e-07
2.5992e-06
9.58042e-07
2.61395e-06
3.00886e-07
2.62018e-06
2.14545e-07
2.60517e-06
-3.73708e-07
2.56957e-06
-9.64206e-07
2.57333e-06
-1.62673e-07
2.52306e-06
-1.03891e-06
2.54263e-06
5.38138e-08
2.51409e-06
-1.69675e-07
2.54461e-06
2.96538e-07
2.53947e-06
4.50186e-07
2.566e-06
4.79045e-07
2.58326e-06
6.21933e-07
2.58649e-06
5.07595e-07
4.99692e-07
2.60697e-06
2.70149e-06
-7.4202e-08
2.69256e-06
-8.3787e-07
2.70977e-06
9.55752e-07
2.67406e-06
-1.04763e-06
2.70065e-06
9.53005e-07
2.72095e-06
9.3774e-07
2.73735e-06
2.84495e-07
2.74327e-06
2.08616e-07
2.72975e-06
-3.60182e-07
2.69324e-06
-9.27698e-07
2.69622e-06
-1.6565e-07
2.64443e-06
-9.87125e-07
2.66492e-06
3.33244e-08
2.63544e-06
-1.40196e-07
2.66472e-06
2.67266e-07
2.66019e-06
4.54707e-07
2.68257e-06
4.56672e-07
2.70282e-06
6.01686e-07
2.70435e-06
5.0606e-07
4.80034e-07
2.72401e-06
2.83107e-06
-6.80071e-08
2.82089e-06
-8.27687e-07
2.83936e-06
9.37286e-07
2.80222e-06
-1.01048e-06
2.8276e-06
9.27617e-07
2.84839e-06
9.16953e-07
2.86646e-06
2.66432e-07
2.87214e-06
2.02933e-07
2.85996e-06
-3.48003e-07
2.82276e-06
-8.90499e-07
2.82521e-06
-1.68102e-07
2.77206e-06
-9.33971e-07
2.79248e-06
1.29065e-08
2.76211e-06
-1.09829e-07
2.78945e-06
2.39928e-07
2.78627e-06
4.57878e-07
2.80402e-06
4.38926e-07
2.82725e-06
5.78451e-07
2.82838e-06
5.04935e-07
4.61859e-07
2.84655e-06
2.96661e-06
-6.17252e-08
2.95561e-06
-8.16681e-07
2.97527e-06
9.17622e-07
2.93667e-06
-9.71882e-07
2.96121e-06
9.03078e-07
2.98209e-06
8.96066e-07
3.00164e-06
2.46887e-07
3.00708e-06
1.97494e-07
2.99602e-06
-3.3695e-07
2.95838e-06
-8.52852e-07
2.96046e-06
-1.70188e-07
2.90625e-06
-8.79757e-07
2.92592e-06
-6.76794e-09
2.89496e-06
-7.88667e-08
2.91979e-06
2.15096e-07
2.9187e-06
4.58969e-07
2.93175e-06
4.2588e-07
2.9574e-06
5.528e-07
2.95939e-06
5.02946e-07
4.45635e-07
2.97561e-06
3.10847e-06
-5.5193e-08
3.09698e-06
-8.05182e-07
3.11776e-06
8.9684e-07
3.07771e-06
-9.3183e-07
3.10186e-06
8.7892e-07
3.12251e-06
8.75422e-07
3.14317e-06
2.26221e-07
3.14834e-06
1.92324e-07
3.13817e-06
-3.2678e-07
3.10044e-06
-8.15113e-07
3.10217e-06
-1.71919e-07
3.04729e-06
-8.24876e-07
3.06584e-06
-2.53207e-08
3.03483e-06
-4.78565e-08
3.05683e-06
1.93098e-07
3.05859e-06
4.57207e-07
3.06738e-06
4.17092e-07
3.0944e-06
5.2578e-07
3.09826e-06
4.99087e-07
4.31706e-07
3.11218e-06
3.25704e-06
-4.83185e-08
3.24526e-06
-7.93408e-07
3.26707e-06
8.75029e-07
3.22563e-06
-8.9039e-07
3.2499e-06
8.54654e-07
3.27001e-06
8.55315e-07
3.29132e-06
2.04906e-07
3.29619e-06
1.87449e-07
3.28666e-06
-3.17241e-07
3.24927e-06
-7.7773e-07
3.25058e-06
-1.73222e-07
3.19545e-06
-7.69749e-07
3.21268e-06
-4.25558e-08
3.18229e-06
-1.74628e-08
3.20127e-06
1.74116e-07
3.20657e-06
4.51911e-07
3.2118e-06
4.1186e-07
3.23903e-06
4.98554e-07
3.24544e-06
4.92678e-07
4.20226e-07
3.25691e-06
3.41269e-06
-4.10752e-08
3.40074e-06
-7.81459e-07
3.42347e-06
8.523e-07
3.38075e-06
-8.47675e-07
3.4056e-06
8.29802e-07
3.42493e-06
8.35987e-07
3.44637e-06
1.83472e-07
3.45094e-06
1.82875e-07
3.44176e-06
-3.08063e-07
3.4052e-06
-7.41166e-07
3.40597e-06
-1.74e-07
3.35104e-06
-7.14811e-07
3.36684e-06
-5.83544e-08
3.33772e-06
1.1648e-08
3.35351e-06
1.58333e-07
3.36269e-06
4.42724e-07
3.36527e-06
4.09283e-07
3.39158e-06
4.72245e-07
3.40093e-06
4.83324e-07
4.11076e-07
3.41008e-06
3.57582e-06
-3.34875e-08
3.56369e-06
-7.69329e-07
3.58721e-06
8.28786e-07
3.54339e-06
-8.03861e-07
3.56929e-06
8.03907e-07
3.58765e-06
8.17626e-07
3.60868e-06
1.6244e-07
3.61298e-06
1.78575e-07
3.60385e-06
-2.98925e-07
3.56849e-06
-7.05812e-07
3.56866e-06
-1.74169e-07
3.51434e-06
-6.60494e-07
3.52861e-06
-7.26215e-08
3.50139e-06
3.88663e-08
3.51373e-06
1.45996e-07
3.52677e-06
4.29688e-07
3.52765e-06
4.084e-07
3.55202e-06
4.47871e-07
3.56448e-06
4.70868e-07
4.03792e-07
3.57176e-06
3.74683e-06
-2.56109e-08
3.73444e-06
-7.56942e-07
3.75857e-06
8.04655e-07
3.71389e-06
-7.59183e-07
3.74128e-06
7.76525e-07
3.75855e-06
8.00348e-07
3.77873e-06
1.4226e-07
3.78283e-06
1.74481e-07
3.77334e-06
-2.89433e-07
3.73947e-06
-6.71942e-07
3.73894e-06
-1.73645e-07
3.68566e-06
-6.0721e-07
3.69832e-06
-8.5285e-08
3.67349e-06
6.36934e-08
3.68212e-06
1.37371e-07
3.69863e-06
4.13181e-07
3.69876e-06
4.08265e-07
3.72038e-06
4.26247e-07
3.73584e-06
4.55417e-07
3.97634e-07
3.74199e-06
3.92609e-06
-1.75126e-08
3.91333e-06
-7.44182e-07
3.93788e-06
7.80109e-07
3.89259e-06
-7.13897e-07
3.92189e-06
7.4723e-07
3.93806e-06
7.84178e-07
3.95705e-06
1.23263e-07
3.96105e-06
1.70483e-07
3.95073e-06
-2.79113e-07
3.91847e-06
-6.39684e-07
3.91716e-06
-1.72328e-07
3.86526e-06
-5.55315e-07
3.87627e-06
-9.62989e-08
3.85421e-06
8.57571e-08
3.85901e-06
1.32576e-07
3.87829e-06
3.93901e-07
3.87858e-06
4.07971e-07
3.89696e-06
4.07872e-07
3.91495e-06
4.37419e-07
3.91647e-07
3.92094e-06
4.114e-06
-9.26003e-09
4.10075e-06
-7.30939e-07
4.1255e-06
7.55361e-07
4.07984e-06
-6.68231e-07
4.11142e-06
7.15645e-07
4.12657e-06
7.69031e-07
4.14418e-06
1.05651e-07
4.14825e-06
1.66415e-07
4.13658e-06
-2.67444e-07
4.10593e-06
-6.09031e-07
4.10371e-06
-1.70111e-07
4.05344e-06
-5.0505e-07
4.06279e-06
-1.05646e-07
4.04375e-06
1.04799e-07
4.04482e-06
1.31504e-07
4.06602e-06
3.72703e-07
4.06732e-06
4.06669e-07
4.08225e-06
3.92941e-07
4.10204e-06
4.1763e-07
3.84788e-07
4.1089e-06
4.31096e-06
-9.17163e-10
4.29715e-06
-7.17126e-07
4.32191e-06
7.30594e-07
4.27601e-06
-6.22331e-07
4.31015e-06
6.8151e-07
4.32447e-06
7.54713e-07
4.34062e-06
8.9501e-08
4.34497e-06
1.62064e-07
4.33147e-06
-2.53944e-07
4.30229e-06
-5.7985e-07
4.29909e-06
-1.66914e-07
4.25053e-06
-4.56486e-07
4.2582e-06
-1.13318e-07
4.24238e-06
1.20618e-07
4.24001e-06
1.3387e-07
4.26228e-06
3.50431e-07
4.26532e-06
4.03634e-07
4.27699e-06
3.81268e-07
4.29749e-06
3.97133e-07
3.76064e-07
4.30621e-06
4.5174e-06
7.45513e-09
4.50296e-06
-7.02685e-07
4.52764e-06
7.05919e-07
4.48154e-06
-5.76236e-07
4.5183e-06
6.44751e-07
4.53207e-06
7.40941e-07
4.54674e-06
7.4834e-08
4.55166e-06
1.57142e-07
4.53596e-06
-2.38242e-07
4.50804e-06
-5.51929e-07
4.50386e-06
-1.62734e-07
4.45688e-06
-4.0951e-07
4.46285e-06
-1.19289e-07
4.4504e-06
1.33074e-07
4.44504e-06
1.39231e-07
4.46755e-06
3.27913e-07
4.47296e-06
3.98229e-07
4.48187e-06
3.72357e-07
4.50187e-06
3.77132e-07
3.64824e-07
4.51311e-06
4.73377e-06
1.57985e-08
4.71866e-06
-6.87578e-07
4.74325e-06
6.81333e-07
4.6969e-06
-5.29885e-07
4.73612e-06
6.05527e-07
4.74969e-06
7.27371e-07
4.76285e-06
6.16751e-08
4.76869e-06
1.51308e-07
4.7506e-06
-2.20154e-07
4.72364e-06
-5.24975e-07
4.71861e-06
-1.57704e-07
4.67298e-06
-3.63871e-07
4.67718e-06
-1.23498e-07
4.66815e-06
1.42104e-07
4.66033e-06
1.47057e-07
4.68228e-06
3.05963e-07
4.69049e-06
3.90015e-07
4.69747e-06
3.65381e-07
4.71578e-06
3.58816e-07
3.50924e-07
4.72968e-06
4.96054e-06
2.40597e-08
4.94473e-06
-6.71768e-07
4.96936e-06
6.56697e-07
4.92263e-06
-4.83154e-07
4.96393e-06
5.64225e-07
4.97766e-06
7.13646e-07
4.98922e-06
5.01171e-08
4.99633e-06
1.44196e-07
4.97589e-06
-1.99712e-07
4.94955e-06
-4.98642e-07
4.94396e-06
-1.5211e-07
4.8994e-06
-3.19308e-07
4.90166e-06
-1.25758e-07
4.89609e-06
1.47671e-07
4.88638e-06
1.56771e-07
4.9069e-06
2.85444e-07
4.91815e-06
3.7876e-07
4.92414e-06
3.59389e-07
4.93999e-06
3.42972e-07
3.34947e-07
4.95596e-06
5.19818e-06
3.21913e-08
5.18162e-06
-6.55202e-07
5.20657e-06
6.31749e-07
5.15932e-06
-4.35906e-07
5.20215e-06
5.21393e-07
5.21637e-06
6.99422e-07
5.22615e-06
4.03459e-08
5.23486e-06
1.35486e-07
5.21231e-06
-1.77171e-07
5.1862e-06
-4.7253e-07
5.18045e-06
-1.46358e-07
5.13678e-06
-2.75641e-07
5.13682e-06
-1.25795e-07
5.13469e-06
1.49799e-07
5.12371e-06
1.67757e-07
5.14194e-06
2.67209e-07
5.15619e-06
3.6451e-07
5.16218e-06
3.53405e-07
5.17524e-06
3.29905e-07
3.18051e-07
5.19214e-06
5.44723e-06
4.01494e-08
5.42983e-06
-6.378e-07
5.45546e-06
6.06122e-07
5.40758e-06
-3.88031e-07
5.45129e-06
4.77679e-07
5.46634e-06
6.84374e-07
5.47406e-06
3.26324e-08
5.48457e-06
1.24972e-07
5.46037e-06
-1.52968e-07
5.43403e-06
-4.46191e-07
5.4286e-06
-1.40929e-07
5.38584e-06
-2.32887e-07
5.38326e-06
-1.23212e-07
5.38449e-06
1.48568e-07
5.37301e-06
1.79244e-07
5.3881e-06
2.52115e-07
5.405e-06
3.47615e-07
5.41187e-06
3.46532e-07
5.42241e-06
3.1936e-07
3.01665e-07
5.4388e-06
5.70822e-06
4.78869e-08
5.68987e-06
-6.1945e-07
5.71659e-06
5.79403e-07
5.66804e-06
-3.39479e-07
5.71197e-06
4.33746e-07
5.72815e-06
6.68192e-07
5.73347e-06
2.73144e-08
5.74585e-06
1.12592e-07
5.72057e-06
-1.27693e-07
5.69352e-06
-4.19139e-07
5.68886e-06
-1.36266e-07
5.64727e-06
-1.91296e-07
5.64162e-06
-1.17561e-07
5.64607e-06
1.44117e-07
5.63497e-06
1.90346e-07
5.64636e-06
2.40721e-07
5.66508e-06
3.28894e-07
5.67356e-06
3.3806e-07
5.68234e-06
3.10579e-07
2.8706e-07
5.69694e-06
5.98174e-06
5.5344e-08
5.9623e-06
-6.00012e-07
5.9905e-06
5.51201e-07
5.94132e-06
-2.90297e-07
5.98481e-06
3.90256e-07
6.00245e-06
6.50551e-07
6.00503e-06
2.47335e-08
6.01915e-06
9.84717e-08
5.99349e-06
-1.02036e-07
5.96525e-06
-3.90896e-07
5.96167e-06
-1.32687e-07
5.92176e-06
-1.51383e-07
5.91257e-06
-1.08379e-07
5.91992e-06
1.36767e-07
5.91014e-06
2.00133e-07
5.91783e-06
2.33029e-07
5.93717e-06
3.09549e-07
5.9476e-06
3.2763e-07
5.95552e-06
3.02666e-07
2.74831e-07
5.96775e-06
6.26839e-06
6.24422e-08
6.24771e-06
-5.79334e-07
6.27767e-06
5.21243e-07
6.22806e-06
-2.40685e-07
6.27046e-06
3.47854e-07
6.28989e-06
6.31123e-07
6.28944e-06
2.51793e-08
6.305e-06
8.29104e-08
6.27972e-06
-7.67548e-08
6.24985e-06
-3.61027e-07
6.2475e-06
-1.30335e-07
6.20994e-06
-1.13821e-07
6.19694e-06
-9.53771e-08
6.20654e-06
1.27162e-07
6.19902e-06
2.07661e-07
6.20336e-06
2.28688e-07
6.22212e-06
2.90784e-07
6.23442e-06
3.15327e-07
6.24228e-06
2.9481e-07
2.6478e-07
6.25233e-06
6.56883e-06
6.90846e-08
6.54676e-06
-5.57264e-07
6.57854e-06
4.89459e-07
6.52892e-06
-1.91059e-07
6.56959e-06
3.07175e-07
6.59111e-06
6.09608e-07
6.58749e-06
2.87984e-08
6.604e-06
6.63965e-08
6.57991e-06
-5.26618e-08
6.5481e-06
-3.29221e-07
6.5468e-06
-1.29028e-07
6.51246e-06
-7.9481e-08
6.49566e-06
-7.85816e-08
6.50645e-06
1.16371e-07
6.50202e-06
2.12094e-07
6.5037e-06
2.27004e-07
6.52074e-06
2.73751e-07
6.53462e-06
3.01447e-07
6.54295e-06
2.86474e-07
2.56268e-07
6.55146e-06
6.88372e-06
7.51573e-08
6.86013e-06
-5.33674e-07
6.89356e-06
4.56024e-07
6.84455e-06
-1.42051e-07
6.88289e-06
2.68844e-07
6.90675e-06
5.85741e-07
6.89998e-06
3.55736e-08
6.91682e-06
4.95586e-08
6.89469e-06
-3.05324e-08
6.86086e-06
-2.95394e-07
6.86012e-06
-1.28286e-07
6.82988e-06
-4.92395e-08
6.80971e-06
-5.84207e-08
6.82039e-06
1.05699e-07
6.81948e-06
2.13e-07
6.81941e-06
2.2708e-07
6.83396e-06
2.59193e-07
6.84882e-06
2.86587e-07
6.85804e-06
2.77256e-07
2.48612e-07
6.8657e-06
7.21375e-06
8.05427e-08
7.18854e-06
-5.08465e-07
7.2233e-06
4.21271e-07
7.17568e-06
-9.44333e-08
7.21104e-06
2.33479e-07
7.2374e-06
5.59383e-07
7.22771e-06
4.52682e-08
7.24416e-06
3.31095e-08
7.2247e-06
-1.10753e-08
7.189e-06
-2.59691e-07
7.18813e-06
-1.27424e-07
7.16276e-06
-2.38689e-08
7.13998e-06
-3.56343e-08
7.14926e-06
9.64178e-08
7.15185e-06
2.10411e-07
7.15095e-06
2.2798e-07
7.16252e-06
2.4762e-07
7.17761e-06
2.71498e-07
7.18799e-06
2.66872e-07
2.41149e-07
7.19546e-06
7.55965e-06
8.51197e-08
7.53274e-06
-4.81554e-07
7.5684e-06
3.85612e-07
7.52302e-06
-4.90543e-08
7.55484e-06
2.01654e-07
7.58365e-06
5.30577e-07
7.5715e-06
5.74147e-08
7.58681e-06
1.77966e-08
7.57059e-06
5.14574e-09
7.53338e-06
-2.22477e-07
7.53157e-06
-1.2562e-07
7.51159e-06
-3.88965e-09
7.48729e-06
-1.13294e-08
7.49413e-06
8.95764e-08
7.49991e-06
2.04634e-07
7.499e-06
2.28883e-07
7.5072e-06
2.39423e-07
7.52125e-06
2.57453e-07
7.53283e-06
2.55292e-07
2.33039e-07
7.54094e-06
7.92214e-06
8.8787e-08
7.89346e-06
-4.52873e-07
7.92966e-06
3.49412e-07
7.88733e-06
-6.71772e-09
7.91507e-06
1.73913e-07
7.94613e-06
4.99513e-07
7.93219e-06
7.13549e-08
7.94556e-06
4.42953e-09
7.93296e-06
1.77411e-08
7.89493e-06
-1.84443e-07
7.89126e-06
-1.21948e-07
7.87667e-06
1.06963e-08
7.85236e-06
1.2987e-08
7.85603e-06
8.59068e-08
7.86522e-06
1.95436e-07
7.86487e-06
2.29232e-07
7.86904e-06
2.35256e-07
7.88e-06
2.46491e-07
7.89152e-06
2.43772e-07
2.2224e-07
7.90232e-06
8.30201e-06
9.14534e-08
8.2714e-06
-4.22254e-07
8.30785e-06
3.12957e-07
8.26944e-06
3.16953e-08
8.29263e-06
1.50717e-07
8.3255e-06
4.66647e-07
8.31053e-06
8.63245e-08
8.32123e-06
-6.26844e-09
8.31247e-06
2.6496e-08
8.27442e-06
-1.46386e-07
8.26806e-06
-1.1559e-07
8.2584e-06
2.03535e-08
8.23542e-06
3.59676e-08
8.23525e-06
8.60791e-08
8.2487e-06
1.81984e-07
8.2564e-06
2.21535e-07
8.26799e-06
2.2366e-07
8.28529e-06
2.29196e-07
8.29847e-06
2.30592e-07
2.16634e-07
8.30408e-06
8.70004e-06
9.3078e-08
8.66732e-06
-3.8954e-07
8.70384e-06
2.76439e-07
8.67001e-06
6.5524e-08
8.68843e-06
1.32296e-07
8.72261e-06
4.32472e-07
8.70724e-06
1.01689e-07
8.71457e-06
-1.35989e-08
8.70964e-06
3.14278e-08
8.67267e-06
-1.09417e-07
8.66318e-06
-1.06095e-07
8.65758e-06
2.59525e-08
8.6374e-06
5.61426e-08
8.63522e-06
8.8265e-08
8.65058e-06
1.6662e-07
8.66057e-06
2.1155e-07
8.66848e-06
2.15746e-07
8.68163e-06
2.1605e-07
8.69365e-06
2.1857e-07
2.08665e-07
8.70162e-06
9.11705e-06
9.36444e-08
9.08245e-06
-3.54937e-07
9.11843e-06
2.40456e-07
9.08988e-06
9.40819e-08
9.10348e-06
1.18687e-07
9.13823e-06
3.97728e-07
9.12322e-06
1.16697e-07
9.12675e-06
-1.71277e-08
9.12521e-06
3.29688e-08
9.09037e-06
-7.45823e-08
9.07738e-06
-9.30962e-08
9.07536e-06
2.79657e-08
9.05908e-06
7.2424e-08
9.05359e-06
9.37595e-08
9.06715e-06
1.53061e-07
9.08032e-06
1.98372e-07
9.08931e-06
2.06757e-07
9.10135e-06
2.04015e-07
9.11257e-06
2.07349e-07
2.02455e-07
9.11878e-06
9.5539e-06
9.32073e-08
9.51833e-06
-3.19369e-07
9.55264e-06
2.06149e-07
9.5295e-06
1.17222e-07
9.53885e-06
1.09328e-07
9.57342e-06
3.63166e-07
9.55941e-06
1.30703e-07
9.55856e-06
-1.62782e-08
9.55983e-06
3.16955e-08
9.52842e-06
-4.31653e-08
9.51211e-06
-7.67921e-08
9.51252e-06
2.75551e-08
9.50192e-06
8.30283e-08
9.49297e-06
1.02713e-07
9.49743e-06
1.48597e-07
9.50309e-06
1.92718e-07
9.50438e-06
2.05458e-07
9.50758e-06
2.00819e-07
9.51681e-06
1.98116e-07
1.88186e-07
9.53108e-06
1.00115e-05
9.18428e-08
9.97576e-06
-2.8363e-07
1.00074e-05
1.74493e-07
9.98976e-06
1.34883e-07
9.99557e-06
1.03514e-07
1.00289e-05
3.29831e-07
1.00168e-05
1.42809e-07
1.00115e-05
-1.09322e-08
1.00147e-05
2.84672e-08
9.98727e-06
-1.5751e-08
9.96819e-06
-5.77162e-08
9.96825e-06
2.74996e-08
9.96049e-06
9.07893e-08
9.954e-06
1.09195e-07
9.96477e-06
1.37833e-07
9.98221e-06
1.75273e-07
9.99506e-06
1.92615e-07
1.00053e-05
1.90557e-07
1.00131e-05
1.90365e-07
1.86403e-07
1.00149e-05
1.04908e-05
8.96994e-08
1.04558e-05
-2.4866e-07
1.04839e-05
1.46453e-07
1.04713e-05
1.47412e-07
1.04745e-05
1.00373e-07
1.05063e-05
2.98005e-07
1.04961e-05
1.53032e-07
1.04867e-05
-1.53369e-09
1.04903e-05
2.48785e-08
1.04678e-05
6.68311e-09
1.0447e-05
-3.68626e-08
1.04463e-05
2.81304e-08
1.04424e-05
9.47444e-08
1.04335e-05
1.18049e-07
1.04328e-05
1.38515e-07
1.04396e-05
1.68508e-07
1.04453e-05
1.86885e-07
1.04495e-05
1.8639e-07
1.0457e-05
1.82837e-07
1.75878e-07
1.04676e-05
1.09928e-05
8.69122e-08
1.09591e-05
-2.14995e-07
1.09832e-05
1.22436e-07
1.09753e-05
1.55236e-07
1.09765e-05
9.92269e-08
1.10063e-05
2.68234e-07
1.09983e-05
1.60962e-07
1.09859e-05
1.09007e-08
1.09882e-05
2.25535e-08
1.09704e-05
2.4511e-08
1.09484e-05
-1.48814e-08
1.09445e-05
3.20251e-08
1.09427e-05
9.65761e-08
1.09358e-05
1.24928e-07
1.09344e-05
1.39918e-07
1.09413e-05
1.61652e-07
1.09494e-05
1.78749e-07
1.09556e-05
1.80158e-07
1.09631e-05
1.75353e-07
1.67923e-07
1.09711e-05
1.15186e-05
8.36381e-08
1.14868e-05
-1.83187e-07
1.15066e-05
1.02664e-07
1.15026e-05
1.5919e-07
1.15026e-05
9.92939e-08
1.15302e-05
2.40571e-07
1.15247e-05
1.66471e-07
1.15099e-05
2.57763e-08
1.151e-05
2.24582e-08
1.1496e-05
3.84215e-08
1.14745e-05
6.61544e-09
1.14673e-05
3.92357e-08
1.14671e-05
9.67831e-08
1.14632e-05
1.28855e-07
1.14619e-05
1.41193e-07
1.14674e-05
1.56174e-07
1.14761e-05
1.70089e-07
1.14834e-05
1.72861e-07
1.14904e-05
1.68358e-07
1.59828e-07
1.14985e-05
1.20694e-05
8.00133e-08
1.20398e-05
-1.53518e-07
1.20555e-05
8.69314e-08
1.20549e-05
1.5983e-07
1.20537e-05
1.0046e-07
1.20794e-05
2.14925e-07
1.20762e-05
1.6958e-07
1.20599e-05
4.20834e-08
1.20575e-05
2.49263e-08
1.20468e-05
4.91299e-08
1.20269e-05
2.6439e-08
1.20175e-05
4.86299e-08
1.20176e-05
9.66981e-08
1.20164e-05
1.3007e-07
1.2016e-05
1.41629e-07
1.20203e-05
1.51846e-07
1.20284e-05
1.62031e-07
1.20362e-05
1.65015e-07
1.20425e-05
1.62054e-07
1.52384e-07
1.205e-05
1.26465e-05
7.61446e-08
1.26191e-05
-1.26198e-07
1.26313e-05
7.48007e-08
1.2633e-05
1.58123e-07
1.26311e-05
1.02335e-07
1.26547e-05
1.91318e-07
1.26542e-05
1.70133e-07
1.26371e-05
5.91082e-08
1.2632e-05
3.00889e-08
1.26237e-05
5.73744e-08
1.26066e-05
4.3606e-08
1.25963e-05
5.8919e-08
1.2596e-05
9.70124e-08
1.25963e-05
1.29689e-07
1.25965e-05
1.41418e-07
1.26001e-05
1.48266e-07
1.26069e-05
1.55286e-07
1.26151e-05
1.56793e-07
1.26218e-05
1.55384e-07
1.4604e-07
1.26281e-05
1.3251e-05
7.2114e-08
1.3226e-05
-1.01233e-07
1.3235e-05
6.58169e-08
1.32385e-05
1.54601e-07
1.32361e-05
1.04757e-07
1.32572e-05
1.70162e-07
1.32596e-05
1.67783e-07
1.32427e-05
7.59844e-08
1.32351e-05
3.77504e-08
1.32284e-05
6.40419e-08
1.3214e-05
5.79692e-08
1.32036e-05
6.93694e-08
1.32024e-05
9.81495e-08
1.32037e-05
1.28398e-07
1.32048e-05
1.40346e-07
1.32083e-05
1.44744e-07
1.32141e-05
1.49509e-07
1.32217e-05
1.49153e-07
1.32292e-05
1.47869e-07
1.40677e-07
1.32346e-05
1.38843e-05
6.79981e-08
1.38616e-05
-7.8585e-08
1.3868e-05
5.94438e-08
1.38728e-05
1.49851e-07
1.387e-05
1.07506e-07
1.38884e-05
1.51811e-07
1.38937e-05
1.6248e-07
1.38779e-05
9.17486e-08
1.38679e-05
4.77287e-08
1.38619e-05
7.0035e-08
1.38504e-05
6.95094e-08
1.38405e-05
7.92138e-08
1.38386e-05
1.00121e-07
1.38404e-05
1.26596e-07
1.3842e-05
1.3867e-07
1.38455e-05
1.41307e-07
1.38509e-05
1.44142e-07
1.38573e-05
1.42714e-07
1.38652e-05
1.39971e-07
1.35153e-07
1.38707e-05
1.45478e-05
6.38624e-08
1.45274e-05
-5.82006e-08
1.45315e-05
5.53614e-08
1.45373e-05
1.44098e-07
1.45343e-05
1.10431e-07
1.45495e-05
1.36602e-07
1.45574e-05
1.54643e-07
1.45437e-05
1.05423e-07
1.4532e-05
5.93974e-08
1.45261e-05
7.60138e-08
1.45169e-05
7.86268e-08
1.45082e-05
8.7973e-08
1.45055e-05
1.02808e-07
1.45074e-05
1.2471e-07
1.45097e-05
1.3631e-07
1.4513e-05
1.38012e-07
1.45184e-05
1.38808e-07
1.45239e-05
1.37141e-07
1.45313e-05
1.32568e-07
1.28797e-07
1.45377e-05
1.5243e-05
5.97896e-08
1.52248e-05
-4.00725e-08
1.52269e-05
5.33211e-08
1.52334e-05
1.37594e-07
1.52303e-05
1.13454e-07
1.52422e-05
1.24718e-07
1.52518e-05
1.45094e-07
1.52412e-05
1.15999e-07
1.52287e-05
7.19269e-08
1.52222e-05
8.25201e-08
1.5215e-05
8.5818e-08
1.52077e-05
9.52539e-08
1.52048e-05
1.05668e-07
1.52065e-05
1.23002e-07
1.52094e-05
1.33476e-07
1.52125e-05
1.34938e-07
1.52176e-05
1.33628e-07
1.52229e-05
1.3187e-07
1.52291e-05
1.26332e-07
1.21828e-07
1.52361e-05
1.59713e-05
5.5847e-08
1.59554e-05
-2.41797e-08
1.59556e-05
5.31478e-08
1.59625e-05
1.30687e-07
1.59596e-05
1.16281e-07
1.59678e-05
1.16582e-07
1.59782e-05
1.34708e-07
1.59712e-05
1.2293e-07
1.5959e-05
8.41325e-08
1.5952e-05
8.9577e-08
1.59462e-05
9.15587e-08
1.59405e-05
1.00992e-07
1.59379e-05
1.08245e-07
1.59392e-05
1.21746e-07
1.59422e-05
1.30425e-07
1.59453e-05
1.31802e-07
1.59502e-05
1.28768e-07
1.59556e-05
1.26455e-07
1.59609e-05
1.21067e-07
1.1493e-07
1.59678e-05
1.67344e-05
5.20982e-08
1.67206e-05
-1.04176e-08
1.67192e-05
5.45689e-08
1.6726e-05
1.2388e-07
1.67237e-05
1.18578e-07
1.6728e-05
1.12293e-07
1.67377e-05
1.24948e-07
1.67348e-05
1.25819e-07
1.67244e-05
9.459e-08
1.67171e-05
9.6906e-08
1.67122e-05
9.64455e-08
1.67079e-05
1.05241e-07
1.67059e-05
1.10293e-07
1.6707e-05
1.20618e-07
1.67102e-05
1.27213e-07
1.67135e-05
1.28524e-07
1.67178e-05
1.24415e-07
1.67233e-05
1.20951e-07
1.67282e-05
1.16237e-07
1.09047e-07
1.67341e-05
1.75339e-05
4.85994e-08
1.75221e-05
1.34604e-09
1.75194e-05
5.7285e-08
1.75256e-05
1.17644e-07
1.75242e-05
1.20038e-07
1.75255e-05
1.10995e-07
1.75332e-05
1.17209e-07
1.75337e-05
1.25317e-07
1.7526e-05
1.02305e-07
1.75189e-05
1.03936e-07
1.75146e-05
1.00819e-07
1.75116e-05
1.08193e-07
1.75104e-05
1.11505e-07
1.75116e-05
1.1939e-07
1.75148e-05
1.24005e-07
1.75183e-05
1.25094e-07
1.75222e-05
1.20542e-07
1.75275e-05
1.15651e-07
1.75324e-05
1.11239e-07
1.04125e-07
1.75374e-05
1.83715e-05
4.54164e-08
1.83616e-05
1.13065e-08
1.83579e-05
6.09717e-08
1.83634e-05
1.12115e-07
1.83629e-05
1.2051e-07
1.83625e-05
1.11445e-07
1.83678e-05
1.11914e-07
1.837e-05
1.23059e-07
1.83653e-05
1.07066e-07
1.83594e-05
1.09865e-07
1.83554e-05
1.04754e-07
1.83533e-05
1.10291e-07
1.8353e-05
1.11816e-07
1.83546e-05
1.17842e-07
1.83578e-05
1.2072e-07
1.83615e-05
1.21389e-07
1.83652e-05
1.16881e-07
1.837e-05
1.10881e-07
1.83753e-05
1.05925e-07
9.97479e-08
1.83797e-05
1.92492e-05
4.25995e-08
1.92409e-05
1.96325e-08
1.92365e-05
6.53535e-08
1.92413e-05
1.07337e-07
1.92419e-05
1.19887e-07
1.92408e-05
1.12571e-07
1.9244e-05
1.08736e-07
1.92466e-05
1.20457e-07
1.92443e-05
1.09321e-07
1.92399e-05
1.1426e-07
1.92365e-05