/*--------------------------------*- C++ -*----------------------------------*\
| =========                 |                                                 |
| \\      /  F ield         | OpenFOAM: The Open Source CFD Toolbox           |
|  \\    /   O peration     | Version:  v1912                                 |
|   \\  /    A nd           | Website:  www.openfoam.com                      |
|    \\/     M anipulation  |                                                 |
\*---------------------------------------------------------------------------*/
FoamFile
{
    version     2.0;
    format      ascii;
    class       volVectorField;
    location    "6.65";
    object      U;
}
// * * * * * * * * * * * * * * * * * * * * * * * * * * * * * * * * * * * * * //

dimensions      [0 1 -1 0 0 0 0];


internalField   nonuniform List<vector> 
9600
(
(0.816323 -0.000584231 0)
(1.1544 0.0140217 0)
(0.789675 -0.0263593 0)
(1.14832 -0.0281008 0)
(1.0151 -0.00571069 0)
(1.17064 0.0226853 0)
(0.931194 0.0179591 0)
(1.17481 -7.94655e-05 0)
(0.890441 -0.0280872 0)
(1.14054 -0.0262482 0)
(0.942774 -0.0317412 0)
(1.14487 -0.0163848 0)
(0.90678 -0.015655 0)
(1.15976 -0.00316123 0)
(0.949196 -0.00635381 0)
(1.1731 0.000665357 0)
(0.95336 -0.00750938 0)
(1.18655 -0.00231248 0)
(0.934893 -0.00409943 0)
(1.19193 0.000270647 0)
(0.834267 -0.000468221 0)
(1.13474 0.0144136 0)
(0.833373 -0.0265749 0)
(1.11711 -0.0302328 0)
(1.02 -0.00626761 0)
(1.15522 0.023384 0)
(0.969648 0.0176728 0)
(1.13605 0.000639199 0)
(0.965476 -0.0276214 0)
(1.08781 -0.0269163 0)
(0.979134 -0.0320428 0)
(1.10514 -0.0156584 0)
(0.955104 -0.0160787 0)
(1.11414 -0.00404689 0)
(1.00754 -0.00675252 0)
(1.11796 0.000547614 0)
(1.03267 -0.00768079 0)
(1.10752 -0.00207007 0)
(1.04136 -0.00339722 0)
(1.07611 0.00128894 0)
(0.865922 -0.000333713 0)
(1.10149 0.0145731 0)
(0.870682 -0.0265239 0)
(1.06965 -0.0314429 0)
(1.02782 -0.00662516 0)
(1.12729 0.0240411 0)
(1.01694 0.0178293 0)
(1.11056 0.000588171 0)
(1.00877 -0.0269661 0)
(1.04763 -0.0268705 0)
(1.00186 -0.0321476 0)
(1.06116 -0.0155066 0)
(0.994822 -0.0161737 0)
(1.06839 -0.00511108 0)
(1.04497 -0.00672902 0)
(1.08159 -0.000325796 0)
(1.06578 -0.00699231 0)
(1.07362 -0.00283147 0)
(1.06304 -0.00211494 0)
(1.05825 0.00108964 0)
(0.903464 -0.000168432 0)
(1.06454 0.0146442 0)
(0.904729 -0.0263427 0)
(1.0202 -0.0326413 0)
(1.03246 -0.00725043 0)
(1.09985 0.024115 0)
(1.05753 0.0179225 0)
(1.09778 0.000782399 0)
(1.03531 -0.0259898 0)
(1.02687 -0.0267305 0)
(1.00796 -0.0322249 0)
(1.03178 -0.015591 0)
(1.01238 -0.0162506 0)
(1.04424 -0.0061004 0)
(1.05407 -0.00710642 0)
(1.06948 -0.000805725 0)
(1.06994 -0.00677979 0)
(1.06523 -0.0028069 0)
(1.06021 -0.00136489 0)
(1.05534 0.00173197 0)
(0.939094 6.52832e-06 0)
(1.03422 0.0147218 0)
(0.930393 -0.0259538 0)
(0.981416 -0.0336329 0)
(1.02958 -0.00808697 0)
(1.08148 0.0236668 0)
(1.08726 0.0178726 0)
(1.09437 0.00111619 0)
(1.04812 -0.024908 0)
(1.02106 -0.0262918 0)
(1.00525 -0.0321034 0)
(1.01614 -0.0158871 0)
(1.01747 -0.0164221 0)
(1.03584 -0.00705268 0)
(1.05285 -0.00758192 0)
(1.06495 -0.00142482 0)
(1.06773 -0.00633951 0)
(1.06074 -0.00281655 0)
(1.05543 -0.000663362 0)
(1.04999 0.00217792 0)
(0.967278 0.000149862 0)
(1.01614 0.0148599 0)
(0.949482 -0.025486 0)
(0.959172 -0.0344418 0)
(1.02001 -0.00916959 0)
(1.07173 0.0228402 0)
(1.10641 0.0176992 0)
(1.09413 0.00167687 0)
(1.05319 -0.0237583 0)
(1.02186 -0.0256628 0)
(1.00115 -0.0318195 0)
(1.00753 -0.016351 0)
(1.01791 -0.0167202 0)
(1.03327 -0.00794572 0)
(1.04939 -0.00807889 0)
(1.06023 -0.00201054 0)
(1.0628 -0.00592702 0)
(1.05511 -0.00272599 0)
(1.04934 7.69004e-05 0)
(1.04305 0.00270337 0)
(0.985614 0.000220324 0)
(1.01029 0.0150396 0)
(0.964961 -0.0249423 0)
(0.951183 -0.0350263 0)
(1.00812 -0.010389 0)
(1.06627 0.0216923 0)
(1.11639 0.0174431 0)
(1.09254 0.00241073 0)
(1.0537 -0.0225813 0)
(1.02371 -0.024912 0)
(0.998194 -0.0313533 0)
(1.00166 -0.016906 0)
(1.01589 -0.017118 0)
(1.03058 -0.00880931 0)
(1.04405 -0.00850123 0)
(1.05306 -0.00256062 0)
(1.05457 -0.0055029 0)
(1.04696 -0.00254242 0)
(1.04119 0.000789199 0)
(1.0347 0.0033166 0)
(0.994721 0.000198783 0)
(1.01254 0.0152138 0)
(0.979073 -0.0243374 0)
(0.951632 -0.0354001 0)
(0.998262 -0.0116559 0)
(1.06218 0.0202652 0)
(1.11862 0.0171661 0)
(1.08787 0.00325314 0)
(1.05107 -0.0214137 0)
(1.02444 -0.02411 0)
(0.996439 -0.0307326 0)
(0.996922 -0.0174807 0)
(1.0119 -0.0175607 0)
(1.02541 -0.00962575 0)
(1.03588 -0.00882302 0)
(1.04276 -0.00303068 0)
(1.0431 -0.00505661 0)
(1.03596 -0.00231317 0)
(1.03091 0.00144963 0)
(1.02504 0.0039913 0)
(0.997243 9.55186e-05 0)
(1.01764 0.0153172 0)
(0.992249 -0.023664 0)
(0.955726 -0.0355759 0)
(0.991894 -0.0129209 0)
(1.05825 0.0186624 0)
(1.11398 0.0169149 0)
(1.08003 0.0041641 0)
(1.04597 -0.0202808 0)
(1.02341 -0.0233091 0)
(0.995563 -0.0299893 0)
(0.99299 -0.0180068 0)
(1.00658 -0.0179656 0)
(1.0177 -0.0103491 0)
(1.02494 -0.00902796 0)
(1.02975 -0.00340152 0)
(1.02929 -0.00461349 0)
(1.02292 -0.00206415 0)
(1.01905 0.0019941 0)
(1.01458 0.00466341 0)
(0.9964 -5.98312e-05 0)
(1.02163 0.0153018 0)
(1.00363 -0.0229446 0)
(0.961188 -0.0355622 0)
(0.987732 -0.0141411 0)
(1.05301 0.0170173 0)
(1.10287 0.0167268 0)
(1.06952 0.00507783 0)
(1.03912 -0.0192148 0)
(1.02068 -0.022571 0)
(0.995344 -0.0291761 0)
(0.990032 -0.0184344 0)
(1.00087 -0.0182615 0)
(1.00868 -0.0109279 0)
(1.01257 -0.00910415 0)
(1.01545 -0.00368024 0)
(1.01466 -0.00420431 0)
(1.00923 -0.00182597 0)
(1.00669 0.00237986 0)
(1.00399 0.00526615 0)
(0.994734 -0.000230861 0)
(1.02282 0.0151524 0)
(1.01217 -0.0222235 0)
(0.967285 -0.0353653 0)
(0.983866 -0.0152435 0)
(1.04445 0.0154475 0)
(1.08599 0.0166061 0)
(1.05717 0.00591336 0)
(1.03148 -0.0182413 0)
(1.01674 -0.0219425 0)
(0.995515 -0.0283491 0)
(0.988171 -0.0187394 0)
(0.995658 -0.0184054 0)
(0.999921 -0.0113296 0)
(1.00069 -0.00904934 0)
(1.0018 -0.00387925 0)
(1.00093 -0.00384848 0)
(0.996383 -0.00161249 0)
(0.995034 0.00260682 0)
(0.993986 0.00574714 0)
(0.993575 -0.000390713 0)
(1.02143 0.0148939 0)
(1.01754 -0.021543 0)
(0.973538 -0.035009 0)
(0.979553 -0.0161495 0)
(1.03179 0.0140436 0)
(1.06536 0.0165116 0)
(1.04423 0.0065819 0)
(1.0241 -0.0173827 0)
(1.01232 -0.0214501 0)
(0.995735 -0.0275591 0)
(0.987223 -0.0189282 0)
(0.991489 -0.0183868 0)
(0.992606 -0.011554 0)
(0.990889 -0.00887978 0)
(0.990453 -0.00400285 0)
(0.989534 -0.00354203 0)
(0.985517 -0.00141753 0)
(0.98501 0.00270467 0)
(0.985211 0.00608171 0)
(0.993223 -0.000524639 0)
(1.01859 0.0145631 0)
(1.02017 -0.0209329 0)
(0.979285 -0.0345292 0)
(0.975354 -0.0167962 0)
(1.01664 0.0128474 0)
(1.0442 0.0163891 0)
(1.0322 0.00701871 0)
(1.01785 -0.0166437 0)
(1.00814 -0.0210872 0)
(0.995709 -0.0268337 0)
(0.986763 -0.0190197 0)
(0.988423 -0.018225 0)
(0.987208 -0.0116276 0)
(0.98384 -0.00862253 0)
(0.982213 -0.00404707 0)
(0.981162 -0.0032655 0)
(0.977253 -0.0012253 0)
(0.977171 0.00271844 0)
(0.978147 0.00627525 0)
(0.993458 -0.000627178 0)
(1.01542 0.0141874 0)
(1.02098 -0.0204014 0)
(0.983928 -0.0339606 0)
(0.972167 -0.0171631 0)
(1.00202 0.0118569 0)
(1.02576 0.0161847 0)
(1.0223 0.0071965 0)
(1.01313 -0.0160154 0)
(1.00467 -0.0208226 0)
(0.995315 -0.0261752 0)
(0.986369 -0.0190348 0)
(0.986193 -0.0179597 0)
(0.983549 -0.0115868 0)
(0.979343 -0.00830899 0)
(0.976972 -0.00401808 0)
(0.975788 -0.0029938 0)
(0.971692 -0.00101439 0)
(0.971697 0.00269702 0)
(0.973078 0.00635021 0)
(0.993973 -0.000702738 0)
(1.01263 0.01379 0)
(1.0208 -0.0199334 0)
(0.987232 -0.0333331 0)
(0.970356 -0.0172802 0)
(0.990416 0.0110391 0)
(1.01191 0.015881 0)
(1.01506 0.00713878 0)
(1.0099 -0.0154752 0)
(1.0021 -0.0206135 0)
(0.994607 -0.0255687 0)
(0.985808 -0.018989 0)
(0.984467 -0.0176321 0)
(0.981156 -0.0114687 0)
(0.976725 -0.00797392 0)
(0.974077 -0.00393551 0)
(0.97292 -0.00271024 0)
(0.968571 -0.000773006 0)
(0.968483 0.00267315 0)
(0.97006 0.0063376 0)
(0.994571 -0.000755353 0)
(1.01044 0.0133805 0)
(1.02021 -0.019505 0)
(0.989339 -0.0326681 0)
(0.96963 -0.0172017 0)
(0.982646 0.010343 0)
(1.00277 0.0154892 0)
(1.0103 0.00690268 0)
(1.00785 -0.0149962 0)
(1.00036 -0.0204219 0)
(0.993736 -0.0249948 0)
(0.985065 -0.0188905 0)
(0.983025 -0.0172736 0)
(0.979596 -0.0113079 0)
(0.975309 -0.00764343 0)
(0.972762 -0.003831 0)
(0.971901 -0.00241552 0)
(0.967437 -0.000509918 0)
(0.96723 0.00265932 0)
(0.968917 0.00626278 0)
(0.995162 -0.000791467 0)
(1.00884 0.0129634 0)
(1.01943 -0.0190983 0)
(0.990586 -0.0319755 0)
(0.969435 -0.0169803 0)
(0.978097 0.00972601 0)
(0.997346 0.015027 0)
(1.00747 0.00653768 0)
(1.00662 -0.0145562 0)
(0.999302 -0.0202191 0)
(0.992858 -0.0244351 0)
(0.984253 -0.0187424 0)
(0.981787 -0.0169086 0)
(0.978605 -0.0111269 0)
(0.974636 -0.00733651 0)
(0.972419 -0.00373734 0)
(0.9721 -0.00212584 0)
(0.967773 -0.000238308 0)
(0.967519 0.00265013 0)
(0.969284 0.00614092 0)
(0.995708 -0.000816576 0)
(1.00775 0.012539 0)
(1.01853 -0.0186981 0)
(0.991307 -0.0312608 0)
(0.969349 -0.0166679 0)
(0.975693 0.00914957 0)
(0.99442 0.0145133 0)
(1.00597 0.0060901 0)
(1.00589 -0.0141392 0)
(0.998752 -0.0199843 0)
(0.992084 -0.023878 0)
(0.98352 -0.0185467 0)
(0.980756 -0.0165518 0)
(0.978057 -0.0109434 0)
(0.974468 -0.00706068 0)
(0.972651 -0.00367834 0)
(0.972994 -0.00186515 0)
(0.969067 2.30502e-05 0)
(0.968882 0.00262992 0)
(0.970682 0.0059849 0)
(0.996171 -0.000834854 0)
(1.00708 0.0121089 0)
(1.01754 -0.0182929 0)
(0.991749 -0.0305267 0)
(0.969213 -0.0162945 0)
(0.974595 0.00857782 0)
(0.993048 0.0139573 0)
(1.00533 0.00559683 0)
(1.00546 -0.0137361 0)
(0.998558 -0.0197051 0)
(0.991465 -0.0233174 0)
(0.982982 -0.0183052 0)
(0.979956 -0.0162089 0)
(0.977865 -0.0107754 0)
(0.974681 -0.00680955 0)
(0.973222 -0.00366922 0)
(0.974191 -0.00165292 0)
(0.970861 0.000257928 0)
(0.970856 0.00258759 0)
(0.972618 0.00579916 0)
(0.996521 -0.000850314 0)
(1.00678 0.0116757 0)
(1.01647 -0.0178793 0)
(0.992081 -0.0297717 0)
(0.969059 -0.0158763 0)
(0.974347 0.00799283 0)
(0.992647 0.013363 0)
(1.00523 0.00508004 0)
(1.00518 -0.0133424 0)
(0.998584 -0.0193754 0)
(0.991011 -0.0227504 0)
(0.982699 -0.0180233 0)
(0.9794 -0.0158794 0)
(0.977935 -0.0106357 0)
(0.975176 -0.00657955 0)
(0.973988 -0.00370048 0)
(0.97543 -0.00150226 0)
(0.972792 0.000456519 0)
(0.973038 0.00252274 0)
(0.974674 0.00558713 0)
(0.996744 -0.000865953 0)
(1.00674 0.0112401 0)
(1.01533 -0.0174505 0)
(0.992411 -0.0290016 0)
(0.968991 -0.0154321 0)
(0.974704 0.00737692 0)
(0.992839 0.01273 0)
(1.00542 0.00455625 0)
(1.00496 -0.012954 0)
(0.998719 -0.0189939 0)
(0.990711 -0.0221791 0)
(0.982668 -0.017708 0)
(0.979087 -0.0155552 0)
(0.978165 -0.0105333 0)
(0.975849 -0.006368 0)
(0.974845 -0.00375352 0)
(0.976562 -0.00141799 0)
(0.974609 0.000611526 0)
(0.975128 0.00244097 0)
(0.976566 0.00535407 0)
(0.996848 -0.000883197 0)
(1.00684 0.0108019 0)
(1.01416 -0.0170049 0)
(0.992794 -0.0282194 0)
(0.969108 -0.0149722 0)
(0.975459 0.00672052 0)
(0.99333 0.0120634 0)
(1.00569 0.00404206 0)
(1.00473 -0.0125693 0)
(0.998873 -0.0185608 0)
(0.990555 -0.0216069 0)
(0.982841 -0.0173643 0)
(0.979005 -0.0152269 0)
(0.978469 -0.01047 0)
(0.976586 -0.00617626 0)
(0.975711 -0.00381301 0)
(0.977523 -0.00139813 0)
(0.97617 0.000725009 0)
(0.976947 0.00234891 0)
(0.978157 0.00510227 0)
(0.996863 -0.00090191 0)
(1.007 0.0103598 0)
(1.01297 -0.0165422 0)
(0.993228 -0.02743 0)
(0.969474 -0.014503 0)
(0.976395 0.00602878 0)
(0.993872 0.0113676 0)
(1.00588 0.00354993 0)
(1.00447 -0.0121927 0)
(0.998984 -0.0180813 0)
(0.990537 -0.0210336 0)
(0.983147 -0.0170028 0)
(0.979129 -0.0148791 0)
(0.978801 -0.0104412 0)
(0.9773 -0.00601115 0)
(0.976517 -0.00386258 0)
(0.978303 -0.0014355 0)
(0.977427 0.000793923 0)
(0.978418 0.00225674 0)
(0.979423 0.00483578 0)
(0.996823 -0.000921677 0)
(1.00712 0.0099155 0)
(1.0118 -0.0160645 0)
(0.993663 -0.0266403 0)
(0.970114 -0.0140253 0)
(0.977336 0.00531189 0)
(0.994292 0.0106438 0)
(1.0059 0.00308141 0)
(1.00417 -0.0118261 0)
(0.999018 -0.0175642 0)
(0.990653 -0.0204571 0)
(0.983521 -0.016633 0)
(0.979423 -0.0145022 0)
(0.979157 -0.0104335 0)
(0.977952 -0.00587902 0)
(0.977229 -0.00389104 0)
(0.978927 -0.00151614 0)
(0.978404 0.000813329 0)
(0.979552 0.00217264 0)
(0.980416 0.0045519 0)
(0.996759 -0.000941568 0)
(1.00718 0.00946926 0)
(1.01071 -0.0155732 0)
(0.994025 -0.0258536 0)
(0.971021 -0.0135372 0)
(0.978195 0.0045852 0)
(0.994506 0.00989479 0)
(1.00572 0.00263499 0)
(1.00384 -0.0114693 0)
(0.998966 -0.0170187 0)
(0.990894 -0.0198758 0)
(0.983916 -0.0162619 0)
(0.979843 -0.0140925 0)
(0.979553 -0.0104325 0)
(0.978551 -0.00577897 0)
(0.977852 -0.00389179 0)
(0.979445 -0.00162637 0)
(0.979177 0.000780442 0)
(0.980407 0.00210678 0)
(0.981218 0.00425063 0)
(0.996691 -0.000959289 0)
(1.00717 0.00901802 0)
(1.00974 -0.0150669 0)
(0.994256 -0.0250735 0)
(0.972159 -0.013044 0)
(0.97898 0.00386384 0)
(0.994512 0.00911772 0)
(1.00536 0.0022042 0)
(1.00348 -0.0111273 0)
(0.998833 -0.0164555 0)
(0.991231 -0.0192893 0)
(0.984316 -0.0158928 0)
(0.980345 -0.0136529 0)
(0.980003 -0.0104246 0)
(0.979128 -0.00571341 0)
(0.978419 -0.00386024 0)
(0.979911 -0.00175262 0)
(0.979838 0.000690952 0)
(0.981065 0.00205761 0)
(0.9819 0.00394885 0)
(0.99663 -0.000973778 0)
(1.00708 0.00856104 0)
(1.00894 -0.014544 0)
(0.994339 -0.0243062 0)
(0.973461 -0.0125461 0)
(0.979753 0.00316567 0)
(0.994349 0.00831754 0)
(1.00486 0.00178732 0)
(1.00308 -0.0108012 0)
(0.998633 -0.0158871 0)
(0.991625 -0.0186967 0)
(0.984719 -0.015528 0)
(0.980889 -0.0131898 0)
(0.980512 -0.0103956 0)
(0.979712 -0.00568306 0)
(0.978966 -0.00380073 0)
(0.980359 -0.00187967 0)
(0.980457 0.000544328 0)
(0.981604 0.00200754 0)
(0.982509 0.00367073 0)
(0.996576 -0.000984009 0)
(1.00692 0.00809616 0)
(1.00834 -0.0140031 0)
(0.994305 -0.0235538 0)
(0.974834 -0.0120516 0)
(0.980568 0.00250542 0)
(0.994073 0.00750007 0)
(1.00424 0.00137978 0)
(1.00262 -0.0104885 0)
(0.998377 -0.0153222 0)
(0.992029 -0.0180939 0)
(0.985136 -0.0151716 0)
(0.981447 -0.0127105 0)
(0.981071 -0.0103323 0)
(0.980313 -0.00568391 0)
(0.979515 -0.0037267 0)
(0.980806 -0.00199436 0)
(0.981073 0.000348185 0)
(0.982079 0.00194059 0)
(0.983059 0.00343361 0)
(0.996529 -0.000988466 0)
(1.0067 0.00762117 0)
(1.00792 -0.0134464 0)
(0.994214 -0.02281 0)
(0.976185 -0.0115729 0)
(0.981442 0.00188918 0)
(0.993738 0.00667026 0)
(1.00353 0.000973861 0)
(1.0021 -0.0101888 0)
(0.998078 -0.014769 0)
(0.9924 -0.0174825 0)
(0.985572 -0.0148206 0)
(0.981998 -0.0122262 0)
(0.981668 -0.0102303 0)
(0.980933 -0.00571447 0)
(0.980075 -0.00364274 0)
(0.981248 -0.00208677 0)
(0.981692 0.000114096 0)
(0.982526 0.00184105 0)
(0.983549 0.00324598 0)
(0.996493 -0.00098606 0)
(1.00643 0.00713323 0)
(1.00763 -0.0128755 0)
(0.994136 -0.0220624 0)
(0.97744 -0.0111149 0)
(0.982354 0.00132627 0)
(0.993396 0.00584006 0)
(1.00276 0.000565858 0)
(1.00152 -0.00989859 0)
(0.997746 -0.0142327 0)
(0.992708 -0.0168694 0)
(0.986024 -0.0144718 0)
(0.98253 -0.0117441 0)
(0.982285 -0.0100848 0)
(0.981569 -0.00577014 0)
(0.98064 -0.00355178 0)
(0.981678 -0.00215092 0)
(0.982305 -0.00013845 0)
(0.982964 0.00169393 0)
(0.983973 0.00310621 0)
(0.996475 -0.000976153 0)
(1.00613 0.00662757 0)
(1.00742 -0.0122914 0)
(0.994119 -0.0213091 0)
(0.978566 -0.0106799 0)
(0.983267 0.000812453 0)
(0.993093 0.00501836 0)
(1.00198 0.000162868 0)
(1.00089 -0.00962084 0)
(0.997394 -0.0137156 0)
(0.99294 -0.0162553 0)
(0.986484 -0.0141227 0)
(0.983033 -0.0112739 0)
(0.982901 -0.00989191 0)
(0.982218 -0.00584432 0)
(0.981204 -0.0034667 0)
(0.982088 -0.00218544 0)
(0.982896 -0.00039639 0)
(0.983407 0.0014903 0)
(0.984338 0.00298134 0)
(0.996483 -0.000957791 0)
(1.0058 0.006109 0)
(1.00721 -0.0117046 0)
(0.994179 -0.0205454 0)
(0.979569 -0.0102687 0)
(0.984148 0.000340861 0)
(0.992868 0.0042121 0)
(1.00122 -0.000242645 0)
(1.00026 -0.00935898 0)
(0.997037 -0.0132189 0)
(0.993097 -0.015643 0)
(0.986943 -0.0137744 0)
(0.983505 -0.0108254 0)
(0.983496 -0.00965008 0)
(0.982875 -0.00592954 0)
(0.981762 -0.00339202 0)
(0.982479 -0.00218473 0)
(0.983457 -0.000655916 0)
(0.983868 0.00122964 0)
(0.984665 0.00284255 0)
(0.996526 -0.000930767 0)
(1.00546 0.00557815 0)
(1.00695 -0.0111234 0)
(0.994305 -0.0197611 0)
(0.980483 -0.00988322 0)
(0.984983 -8.83347e-05 0)
(0.99274 0.00343149 0)
(1.00052 -0.000658423 0)
(0.999642 -0.00910915 0)
(0.996691 -0.0127445 0)
(0.99319 -0.0150379 0)
(0.987391 -0.0134267 0)
(0.983948 -0.0104014 0)
(0.984053 -0.00936777 0)
(0.983536 -0.00600779 0)
(0.982317 -0.00334411 0)
(0.982852 -0.00214698 0)
(0.983978 -0.000886739 0)
(0.984361 0.000919868 0)
(0.984987 0.00265975 0)
(0.996604 -0.000896556 0)
(1.00513 0.00503857 0)
(1.00662 -0.0105509 0)
(0.994471 -0.0189535 0)
(0.981346 -0.00952297 0)
(0.985777 -0.000485567 0)
(0.992715 0.0026834 0)
(0.999892 -0.00107182 0)
(0.99906 -0.00887217 0)
(0.996367 -0.0122906 0)
(0.993236 -0.0144386 0)
(0.987824 -0.0130763 0)
(0.984369 -0.0100044 0)
(0.984565 -0.00905795 0)
(0.984193 -0.00606987 0)
(0.982875 -0.00332192 0)
(0.983218 -0.00208373 0)
(0.984455 -0.00106995 0)
(0.984881 0.000588854 0)
(0.985334 0.00241483 0)
(0.996712 -0.000856527 0)
(1.00483 0.00450051 0)
(1.00623 -0.00999279 0)
(0.994652 -0.0181223 0)
(0.982191 -0.00918429 0)
(0.986541 -0.000859373 0)
(0.99278 0.00196273 0)
(0.999351 -0.00148143 0)
(0.998524 -0.0086473 0)
(0.996072 -0.0118556 0)
(0.99325 -0.0138483 0)
(0.988241 -0.0127218 0)
(0.984778 -0.0096358 0)
(0.985033 -0.00872379 0)
(0.984845 -0.00611708 0)
(0.983444 -0.00332388 0)
(0.983583 -0.00200405 0)
(0.98489 -0.00120617 0)
(0.985425 0.000268007 0)
(0.985729 0.00211221 0)
(0.99684 -0.000812717 0)
(1.00455 0.00396883 0)
(1.00578 -0.00945718 0)
(0.99483 -0.0172696 0)
(0.983037 -0.00886859 0)
(0.987282 -0.00121145 0)
(0.992915 0.00128079 0)
(0.998892 -0.00187835 0)
(0.998037 -0.00842579 0)
(0.995808 -0.0114376 0)
(0.993249 -0.0132741 0)
(0.988644 -0.0123612 0)
(0.985184 -0.0092923 0)
(0.98546 -0.00837305 0)
(0.985484 -0.00613398 0)
(0.984032 -0.00336426 0)
(0.983958 -0.00191946 0)
(0.985286 -0.00129239 0)
(0.985977 -1.75985e-05 0)
(0.986177 0.00175855 0)
(0.99698 -0.000767123 0)
(1.0043 0.00344598 0)
(1.00531 -0.0089434 0)
(0.995001 -0.0164002 0)
(0.983889 -0.00857157 0)
(0.988006 -0.00154692 0)
(0.993096 0.00063517 0)
(0.998505 -0.00226127 0)
(0.997596 -0.00821563 0)
(0.995573 -0.0110275 0)
(0.993245 -0.0127099 0)
(0.989038 -0.011996 0)
(0.985596 -0.00897637 0)
(0.985854 -0.00801962 0)
(0.986102 -0.00612011 0)
(0.984641 -0.00343149 0)
(0.984349 -0.0018309 0)
(0.985649 -0.00133592 0)
(0.98652 -0.00027563 0)
(0.986673 0.00136233 0)
(0.997124 -0.000718876 0)
(1.00407 0.00293983 0)
(1.00482 -0.0084569 0)
(0.995169 -0.0155159 0)
(0.984744 -0.00829504 0)
(0.988709 -0.00187106 0)
(0.9933 2.86234e-05 0)
(0.998176 -0.00262143 0)
(0.997198 -0.00801487 0)
(0.995366 -0.0106359 0)
(0.993244 -0.0121658 0)
(0.989425 -0.011619 0)
(0.986022 -0.00868286 0)
(0.986223 -0.0076683 0)
(0.986691 -0.00607055 0)
(0.985273 -0.00353034 0)
(0.984759 -0.00175852 0)
(0.985974 -0.00132393 0)
(0.987031 -0.000480481 0)
(0.987208 0.000950131 0)
(0.997269 -0.000674374 0)
(1.00386 0.00246004 0)
(1.00435 -0.00799935 0)
(0.995341 -0.0146252 0)
(0.985597 -0.00802863 0)
(0.98939 -0.00217804 0)
(0.993511 -0.000550882 0)
(0.997892 -0.00296674 0)
(0.996836 -0.00780856 0)
(0.995182 -0.0102536 0)
(0.993255 -0.0116445 0)
(0.989813 -0.011245 0)
(0.986467 -0.00840961 0)
(0.986576 -0.00732036 0)
(0.987242 -0.00598834 0)
(0.985918 -0.00363527 0)
(0.985196 -0.00172034 0)
(0.986274 -0.00131029 0)
(0.987488 -0.000641361 0)
(0.987747 0.000580918 0)
(0.997413 -0.000631359 0)
(1.00366 0.00199983 0)
(1.0039 -0.00757266 0)
(0.995522 -0.0137278 0)
(0.986442 -0.00778779 0)
(0.990043 -0.00246689 0)
(0.993718 -0.00108285 0)
(0.997647 -0.0033075 0)
(0.996514 -0.00760632 0)
(0.995019 -0.00988305 0)
(0.993274 -0.011136 0)
(0.990199 -0.0108683 0)
(0.986936 -0.00816383 0)
(0.986922 -0.00699706 0)
(0.987756 -0.00585182 0)
(0.98657 -0.00376448 0)
(0.985646 -0.00167852 0)
(0.986547 -0.00125901 0)
(0.987901 -0.000788271 0)
(0.988284 0.000236335 0)
(0.997557 -0.000591575 0)
(1.00346 0.00157628 0)
(1.00347 -0.0071823 0)
(0.995714 -0.0128453 0)
(0.987271 -0.007537 0)
(0.990675 -0.00274742 0)
(0.993918 -0.00159341 0)
(0.99743 -0.00360903 0)
(0.996228 -0.00741803 0)
(0.994876 -0.009515 0)
(0.993306 -0.0106568 0)
(0.99058 -0.0104941 0)
(0.987425 -0.00792425 0)
(0.987277 -0.00668906 0)
(0.988226 -0.00572114 0)
(0.987227 -0.0038473 0)
(0.986137 -0.00169598 0)
(0.986788 -0.00117706 0)
(0.988235 -0.000858057 0)
(0.98878 -0.000101307 0)
(0.9977 -0.000558225 0)
(1.00327 0.00118912 0)
(1.00306 -0.00681866 0)
(0.995922 -0.0119726 0)
(0.988081 -0.00730413 0)
(0.991273 -0.00299553 0)
(0.994115 -0.00205453 0)
(0.997245 -0.00392326 0)
(0.995981 -0.00721657 0)
(0.994753 -0.00916533 0)
(0.993344 -0.0101804 0)
(0.99096 -0.0101439 0)
(0.987936 -0.00770793 0)
(0.987626 -0.00638801 0)
(0.988671 -0.00555634 0)
(0.98788 -0.00398361 0)
(0.986642 -0.00170453 0)
(0.987041 -0.000991478 0)
(0.988501 -0.000809549 0)
(0.98921 -0.000316071 0)
(0.997841 -0.000527197 0)
(1.00308 0.000837423 0)
(1.00269 -0.00649868 0)
(0.996136 -0.0111247 0)
(0.988868 -0.00706005 0)
(0.991854 -0.00323872 0)
(0.994302 -0.00246676 0)
(0.997086 -0.00419977 0)
(0.995772 -0.00704704 0)
(0.994651 -0.0088141 0)
(0.993392 -0.00973683 0)
(0.991328 -0.00975517 0)
(0.988468 -0.0075443 0)
(0.987999 -0.00614124 0)
(0.989053 -0.00533573 0)
(0.988533 -0.00417142 0)
(0.987251 -0.0019145 0)
(0.987294 -0.000983608 0)
(0.988676 -0.000813329 0)
(0.989448 -0.000545992 0)
(0.99798 -0.00050755 0)
(1.00289 0.000538356 0)
(1.00235 -0.00621072 0)
(0.996361 -0.0103145 0)
(0.989625 -0.00680632 0)
(0.9924 -0.00346125 0)
(0.994495 -0.00283965 0)
(0.996956 -0.00444966 0)
(0.9956 -0.0068991 0)
(0.994568 -0.00846116 0)
(0.993448 -0.00930663 0)
(0.991684 -0.00942397 0)
(0.988998 -0.00731679 0)
(0.988393 -0.00595155 0)
(0.989405 -0.00516883 0)
(0.989106 -0.00428328 0)
(0.987846 -0.00226734 0)
(0.987618 -0.00121115 0)
(0.988843 -0.000995496 0)
(0.989774 -0.000547597 0)
(0.998116 -0.000492211 0)
(1.00271 0.000281441 0)
(1.00205 -0.00594866 0)
(0.996584 -0.00955633 0)
(0.990352 -0.00653871 0)
(0.992931 -0.00366732 0)
(0.994682 -0.00316056 0)
(0.996855 -0.00468432 0)
(0.995469 -0.00675157 0)
(0.994505 -0.00815739 0)
(0.993497 -0.00886721 0)
(0.992041 -0.00906095 0)
(0.989543 -0.0071942 0)
(0.988782 -0.00574192 0)
(0.989727 -0.00502121 0)
(0.989646 -0.00438882 0)
(0.988458 -0.00258932 0)
(0.987937 -0.00146173 0)
(0.989108 -0.00101716 0)
(0.990066 -0.000630468 0)
(0.998248 -0.000485543 0)
(1.00253 7.43904e-05 0)
(1.00177 -0.00571994 0)
(0.996816 -0.00885606 0)
(0.991043 -0.00623181 0)
(0.993427 -0.00386692 0)
(0.994879 -0.00345877 0)
(0.996786 -0.00484686 0)
(0.995371 -0.0066388 0)
(0.994467 -0.00785282 0)
(0.993565 -0.00845966 0)
(0.992353 -0.00873559 0)
(0.990081 -0.0070182 0)
(0.989213 -0.00561322 0)
(0.99001 -0.00485308 0)
(0.990109 -0.00439145 0)
(0.989046 -0.00278204 0)
(0.988396 -0.00144457 0)
(0.98934 -0.000878607 0)
(0.990463 -0.000658008 0)
(0.998374 -0.000488313 0)
(1.00235 -9.02005e-05 0)
(1.00152 -0.00550419 0)
(0.997049 -0.00821125 0)
(0.991697 -0.00593057 0)
(0.993901 -0.00402636 0)
(0.995078 -0.00370341 0)
(0.996739 -0.00498989 0)
(0.99531 -0.00651312 0)
(0.994453 -0.00758551 0)
(0.993612 -0.00809039 0)
(0.992682 -0.00838141 0)
(0.990621 -0.00685941 0)
(0.989631 -0.00550981 0)
(0.990313 -0.004676 0)
(0.990565 -0.00438683 0)
(0.989721 -0.00296791 0)
(0.988869 -0.00156511 0)
(0.98959 -0.000899767 0)
(0.990519 -0.000615511 0)
(0.998495 -0.000497475 0)
(1.00218 -0.000220119 0)
(1.00129 -0.00529645 0)
(0.997289 -0.00764053 0)
(0.992314 -0.00561367 0)
(0.994339 -0.00414166 0)
(0.995282 -0.0039452 0)
(0.996723 -0.0050964 0)
(0.995276 -0.00636725 0)
(0.994457 -0.0073396 0)
(0.993694 -0.00773321 0)
(0.992957 -0.00804734 0)
(0.991134 -0.0067345 0)
(0.990102 -0.00537811 0)
(0.990579 -0.00452072 0)
(0.990933 -0.00430548 0)
(0.990314 -0.00314671 0)
(0.989437 -0.00182913 0)
(0.98991 -0.000986211 0)
(0.990924 -0.000681725 0)
(0.99861 -0.000514084 0)
(1.00201 -0.00031859 0)
(1.00109 -0.00509309 0)
(0.997531 -0.00712377 0)
(0.992896 -0.00531624 0)
(0.994745 -0.00421755 0)
(0.995487 -0.00415352 0)
(0.996737 -0.00516781 0)
(0.995273 -0.00620904 0)
(0.994483 -0.00709936 0)
(0.993753 -0.00740263 0)
(0.993244 -0.00774855 0)
(0.991661 -0.0065195 0)
(0.990561 -0.00530764 0)
(0.990884 -0.0043374 0)
(0.991295 -0.00410916 0)
(0.990899 -0.0032029 0)
(0.989986 -0.00190032 0)
(0.99027 -0.000867774 0)
(0.991179 -0.000624342 0)
(0.998719 -0.000534459 0)
(1.00184 -0.00039897 0)
(1.0009 -0.00488282 0)
(0.99778 -0.00667018 0)
(0.993444 -0.00503385 0)
(0.995115 -0.00423954 0)
(0.995694 -0.00431772 0)
(0.99678 -0.00523692 0)
(0.995293 -0.00603829 0)
(0.994523 -0.00684866 0)
(0.993848 -0.00708335 0)
(0.9935 -0.00739625 0)
(0.99214 -0.00639485 0)
(0.991063 -0.00516356 0)
(0.991212 -0.00415757 0)
(0.991589 -0.00398264 0)
(0.991432 -0.00318059 0)
(0.990691 -0.0020398 0)
(0.990677 -0.000896571 0)
(0.991292 -0.000756172 0)
(0.998821 -0.0005617 0)
(1.00168 -0.000456436 0)
(1.00073 -0.00466161 0)
(0.998027 -0.00626528 0)
(0.993968 -0.004784 0)
(0.995451 -0.00420932 0)
(0.995888 -0.00445164 0)
(0.996852 -0.00529516 0)
(0.99535 -0.00584433 0)
(0.994582 -0.0065669 0)
(0.993929 -0.0067694 0)
(0.99374 -0.00711266 0)
(0.992641 -0.00615778 0)
(0.991578 -0.0050241 0)
(0.99153 -0.00403394 0)
(0.991912 -0.00380538 0)
(0.991944 -0.00308683 0)
(0.991263 -0.00223233 0)
(0.991062 -0.00113921 0)
(0.991536 -0.000776072 0)
(0.998917 -0.000587308 0)
(1.00152 -0.000504801 0)
(1.00057 -0.00443361 0)
(0.998273 -0.00590303 0)
(0.994465 -0.00456462 0)
(0.995753 -0.00415296 0)
(0.996073 -0.004518 0)
(0.996957 -0.00534025 0)
(0.995438 -0.00566487 0)
(0.994648 -0.0062826 0)
(0.994024 -0.00645388 0)
(0.993986 -0.00677246 0)
(0.993102 -0.00593634 0)
(0.992078 -0.00494584 0)
(0.991899 -0.00389052 0)
(0.992213 -0.0036311 0)
(0.992341 -0.00307794 0)
(0.99186 -0.0024223 0)
(0.991608 -0.00126028 0)
(0.991798 -0.000786591 0)
(0.999006 -0.000615065 0)
(1.00137 -0.000545204 0)
(1.00042 -0.00418935 0)
(0.99851 -0.00557918 0)
(0.994943 -0.00438012 0)
(0.996034 -0.0040634 0)
(0.996235 -0.00452865 0)
(0.997076 -0.00538734 0)
(0.995566 -0.00550446 0)
(0.994738 -0.00597457 0)
(0.99412 -0.00611174 0)
(0.994208 -0.00646387 0)
(0.993545 -0.00574616 0)
(0.992605 -0.00482573 0)
(0.992279 -0.00375061 0)
(0.992493 -0.00352012 0)
(0.992715 -0.00299761 0)
(0.992417 -0.00249214 0)
(0.992134 -0.00146638 0)
(0.992072 -0.000923963 0)
(0.999088 -0.000638876 0)
(1.00123 -0.000579972 0)
(1.00027 -0.00394048 0)
(0.998738 -0.00528001 0)
(0.995403 -0.00422554 0)
(0.99629 -0.00397412 0)
(0.996375 -0.00448762 0)
(0.997215 -0.00539342 0)
(0.995737 -0.00536479 0)
(0.994848 -0.00567672 0)
(0.994211 -0.00576295 0)
(0.994415 -0.00615279 0)
(0.993969 -0.00553063 0)
(0.993122 -0.00473453 0)
(0.992668 -0.0036574 0)
(0.992784 -0.0033999 0)
(0.993046 -0.00289769 0)
(0.992901 -0.00253894 0)
(0.992692 -0.00167237 0)
(0.992445 -0.00103868 0)
(0.999162 -0.000659298 0)
(1.0011 -0.00061353 0)
(1.00013 -0.00368534 0)
(0.998947 -0.00499938 0)
(0.995842 -0.00410454 0)
(0.996538 -0.00387606 0)
(0.996497 -0.00439031 0)
(0.997349 -0.00536585 0)
(0.995941 -0.00527064 0)
(0.994993 -0.00540264 0)
(0.994303 -0.00539271 0)
(0.994598 -0.00582725 0)
(0.994357 -0.00531639 0)
(0.993638 -0.00466386 0)
(0.993086 -0.00356234 0)
(0.993082 -0.00326979 0)
(0.993352 -0.00280132 0)
(0.99332 -0.0025279 0)
(0.993226 -0.00182641 0)
(0.992858 -0.00120516 0)
(0.99923 -0.000673164 0)
(1.00097 -0.000646334 0)
(0.999998 -0.00342947 0)
(0.999137 -0.0047322 0)
(0.996264 -0.00399966 0)
(0.996777 -0.00378562 0)
(0.996596 -0.00426651 0)
(0.997475 -0.00529157 0)
(0.99618 -0.00519486 0)
(0.995183 -0.00516047 0)
(0.9944 -0.00502386 0)
(0.994751 -0.00548994 0)
(0.994703 -0.00508823 0)
(0.994142 -0.00458144 0)
(0.993529 -0.00350097 0)
(0.993388 -0.00314979 0)
(0.993634 -0.00270835 0)
(0.993682 -0.00249452 0)
(0.993715 -0.00192696 0)
(0.993318 -0.00138091 0)
(0.999289 -0.000679978 0)
(1.00087 -0.000682581 0)
(0.999867 -0.00317149 0)
(0.999302 -0.00446782 0)
(0.996664 -0.00391931 0)
(0.997016 -0.00370376 0)
(0.996686 -0.00410881 0)
(0.99758 -0.00516385 0)
(0.996431 -0.00513023 0)
(0.995421 -0.00497803 0)
(0.994513 -0.00466455 0)
(0.994876 -0.00513312 0)
(0.995002 -0.00483723 0)
(0.994618 -0.00448375 0)
(0.993996 -0.00346873 0)
(0.993717 -0.00305271 0)
(0.993904 -0.00260052 0)
(0.994001 -0.0024395 0)
(0.994144 -0.00197186 0)
(0.993781 -0.00153161 0)
(0.999341 -0.000677924 0)
(1.00077 -0.000720937 0)
(0.999744 -0.00292603 0)
(0.999439 -0.00419577 0)
(0.997042 -0.00384544 0)
(0.997259 -0.0036317 0)
(0.996768 -0.00393809 0)
(0.997659 -0.00499465 0)
(0.996685 -0.00505261 0)
(0.995711 -0.00486008 0)
(0.99466 -0.00433181 0)
(0.994975 -0.00476155 0)
(0.995243 -0.00456835 0)
(0.995047 -0.00436368 0)
(0.994469 -0.00344477 0)
(0.994079 -0.00299121 0)
(0.994172 -0.00249321 0)
(0.994277 -0.00236814 0)
(0.994514 -0.00198468 0)
(0.994226 -0.00164647 0)
(0.999386 -0.000667919 0)
(1.00069 -0.000758102 0)
(0.999634 -0.00269693 0)
(0.999548 -0.00391465 0)
(0.99739 -0.00376533 0)
(0.997508 -0.00357774 0)
(0.996855 -0.00376596 0)
(0.997713 -0.00477525 0)
(0.996915 -0.00493541 0)
(0.996044 -0.00480452 0)
(0.99486 -0.00406441 0)
(0.99506 -0.00438963 0)
(0.995428 -0.00427743 0)
(0.995422 -0.00421761 0)
(0.994934 -0.00340622 0)
(0.994473 -0.00296036 0)
(0.994457 -0.00241338 0)
(0.994523 -0.002277 0)
(0.994826 -0.00196295 0)
(0.994639 -0.00172587 0)
(0.999424 -0.000651502 0)
(1.00063 -0.000790452 0)
(0.999538 -0.00248398 0)
(0.99963 -0.00362876 0)
(0.997707 -0.00366918 0)
(0.997764 -0.00352577 0)
(0.996954 -0.0036075 0)
(0.997749 -0.00453295 0)
(0.997105 -0.0047606 0)
(0.9964 -0.00477106 0)
(0.995128 -0.00389253 0)
(0.995154 -0.00404185 0)
(0.995556 -0.00395773 0)
(0.995734 -0.00404594 0)
(0.995368 -0.00335235 0)
(0.994879 -0.00293613 0)
(0.994775 -0.00236824 0)
(0.994762 -0.00219114 0)
(0.995075 -0.00190357 0)
(0.995004 -0.00177167 0)
(0.999456 -0.000628991 0)
(1.00058 -0.000814957 0)
(0.999461 -0.00229303 0)
(0.999689 -0.00333611 0)
(0.997986 -0.00354821 0)
(0.99802 -0.00347603 0)
(0.997071 -0.00346187 0)