/*--------------------------------*- C++ -*----------------------------------*\
| =========                 |                                                 |
| \\      /  F ield         | OpenFOAM: The Open Source CFD Toolbox           |
|  \\    /   O peration     | Version:  v1912                                 |
|   \\  /    A nd           | Website:  www.openfoam.com                      |
|    \\/     M anipulation  |                                                 |
\*---------------------------------------------------------------------------*/
FoamFile
{
    version     2.0;
    format      ascii;
    class       surfaceScalarField;
    location    "1.75";
    object      phi;
}
// * * * * * * * * * * * * * * * * * * * * * * * * * * * * * * * * * * * * * //

dimensions      [0 3 -1 0 0 0 0];
oriented        oriented;


internalField   nonuniform List<scalar> 
19000
(
1.14722e-06
-1.13452e-06
1.16309e-06
2.16467e-06
1.14306e-06
-5.55068e-07
1.19783e-06
-1.42033e-06
1.24173e-06
-2.64439e-06
1.26824e-06
5.71749e-07
1.26568e-06
9.61806e-07
1.27671e-06
1.85294e-06
1.25616e-06
5.78777e-07
1.21543e-06
-6.98124e-07
1.18292e-06
-1.73246e-06
1.15993e-06
-1.64514e-06
1.18261e-06
-1.02227e-06
1.15997e-06
-1.25377e-06
1.22763e-06
-1.75749e-07
1.1936e-06
-6.72477e-07
1.23436e-06
-2.88726e-07
1.23818e-06
-5.32976e-09
1.23306e-06
1.82354e-08
1.29076e-07
1.2147e-06
1.21012e-06
-1.12038e-06
1.23422e-06
2.14058e-06
1.19274e-06
-5.13597e-07
1.23245e-06
-1.46004e-06
1.29307e-06
-2.705e-06
1.33209e-06
5.32729e-07
1.32586e-06
9.6803e-07
1.34698e-06
1.83182e-06
1.32079e-06
6.04967e-07
1.28411e-06
-6.6144e-07
1.23775e-06
-1.6861e-06
1.21314e-06
-1.62053e-06
1.22686e-06
-1.036e-06
1.21371e-06
-1.24062e-06
1.2704e-06
-2.32434e-07
1.26014e-06
-6.62222e-07
1.27855e-06
-3.0714e-07
1.31569e-06
-4.24648e-08
1.27894e-06
5.49805e-08
1.07438e-07
1.30058e-06
1.27707e-06
-1.11467e-06
1.30749e-06
2.11016e-06
1.2432e-06
-4.4931e-07
1.266e-06
-1.48284e-06
1.33831e-06
-2.77732e-06
1.39485e-06
4.76191e-07
1.39159e-06
9.71292e-07
1.41039e-06
1.81302e-06
1.39093e-06
6.24425e-07
1.35006e-06
-6.20574e-07
1.29545e-06
-1.63149e-06
1.27312e-06
-1.5982e-06
1.27812e-06
-1.041e-06
1.27701e-06
-1.2395e-06
1.32264e-06
-2.78057e-07
1.33305e-06
-6.72639e-07
1.33964e-06
-3.13726e-07
1.37751e-06
-8.03402e-08
1.36279e-06
6.97026e-08
1.15005e-07
1.35523e-06
1.34599e-06
-1.11656e-06
1.37708e-06
2.07907e-06
1.2982e-06
-3.70423e-07
1.30417e-06
-1.48881e-06
1.37854e-06
-2.85169e-06
1.45125e-06
4.03477e-07
1.46001e-06
9.62541e-07
1.47817e-06
1.79486e-06
1.463e-06
6.39593e-07
1.41881e-06
-5.76383e-07
1.35983e-06
-1.5725e-06
1.33494e-06
-1.57331e-06
1.3356e-06
-1.04166e-06
1.34069e-06
-1.2446e-06
1.37841e-06
-3.15772e-07
1.39706e-06
-6.9129e-07
1.40634e-06
-3.23012e-07
1.43741e-06
-1.11409e-07
1.44358e-06
6.35326e-08
1.27856e-07
1.43073e-06
1.41428e-06
-1.12249e-06
1.44158e-06
2.05176e-06
1.361e-06
-2.89834e-07
1.3516e-06
-1.47941e-06
1.4182e-06
-2.91829e-06
1.50318e-06
3.18499e-07
1.52928e-06
9.36442e-07
1.5513e-06
1.77285e-06
1.53689e-06
6.53995e-07
1.48909e-06
-5.28579e-07
1.42711e-06
-1.51052e-06
1.40037e-06
-1.54657e-06
1.39921e-06
-1.0405e-06
1.40548e-06
-1.25087e-06
1.43931e-06
-3.49603e-07
1.45958e-06
-7.11554e-07
1.47361e-06
-3.37049e-07
1.49957e-06
-1.37365e-07
1.5161e-06
4.70002e-08
1.35934e-07
1.50802e-06
1.48133e-06
-1.12814e-06
1.50466e-06
2.02843e-06
1.4336e-06
-2.18781e-07
1.41079e-06
-1.4566e-06
1.46303e-06
-2.97054e-06
1.55706e-06
2.24469e-07
1.60087e-06
8.92637e-07
1.62974e-06
1.74398e-06
1.61351e-06
6.7022e-07
1.56172e-06
-4.76789e-07
1.49713e-06
-1.44593e-06
1.46939e-06
-1.51884e-06
1.46703e-06
-1.03813e-06
1.47243e-06
-1.25627e-06
1.50499e-06
-3.82166e-07
1.52425e-06
-7.30816e-07
1.54187e-06
-3.54666e-07
1.56458e-06
-1.60074e-07
1.58597e-06
2.56041e-08
1.39152e-07
1.58275e-06
1.54856e-06
-1.13048e-06
1.57151e-06
2.00548e-06
1.51533e-06
-1.62597e-07
1.48113e-06
-1.4224e-06
1.51677e-06
-3.00618e-06
1.61748e-06
1.23757e-07
1.6762e-06
8.33913e-07
1.71175e-06
1.70843e-06
1.6917e-06
6.9027e-07
1.63615e-06
-4.21248e-07
1.56985e-06
-1.37962e-06
1.54202e-06
-1.49102e-06
1.53795e-06
-1.03406e-06
1.54159e-06
-1.25991e-06
1.57361e-06
-4.14188e-07
1.59054e-06
-7.47742e-07
1.61136e-06
-3.75488e-07
1.63209e-06
-1.80799e-07
1.6564e-06
1.29369e-09
1.38818e-07
1.65673e-06
1.61825e-06
-1.1286e-06
1.64558e-06
1.97815e-06
1.60419e-06
-1.21211e-07
1.56038e-06
-1.37859e-06
1.58004e-06
-3.02583e-06
1.68509e-06
1.87064e-08
1.7545e-06
7.64497e-07
1.7949e-06
1.66804e-06
1.77036e-06
7.14813e-07
1.71249e-06
-3.6338e-07
1.64551e-06
-1.31264e-06
1.61805e-06
-1.46356e-06
1.61143e-06
-1.02744e-06
1.61256e-06
-1.26105e-06
1.64356e-06
-4.45186e-07
1.65691e-06
-7.61089e-07
1.68104e-06
-3.99626e-07
1.70086e-06
-2.00616e-07
1.72772e-06
-2.55687e-08
1.35322e-07
1.73122e-06
1.69224e-06
-1.12327e-06
1.72702e-06
1.94338e-06
1.69768e-06
-9.188e-08
1.64605e-06
-1.32695e-06
1.65145e-06
-3.03123e-06
1.75839e-06
-8.82364e-08
1.83392e-06
6.88964e-07
1.87698e-06
1.62498e-06
1.84843e-06
7.43354e-07
1.79051e-06
-3.05454e-07
1.72418e-06
-1.24631e-06
1.69716e-06
-1.43653e-06
1.68745e-06
-1.01774e-06
1.6852e-06
-1.2588e-06
1.71411e-06
-4.74092e-07
1.72251e-06
-7.69493e-07
1.74956e-06
-4.26673e-07
1.76913e-06
-2.20194e-07
1.79848e-06
-5.49173e-08
1.28239e-07
1.80557e-06
1.77136e-06
-1.11591e-06
1.81364e-06
1.9011e-06
1.79332e-06
-7.15646e-08
1.73648e-06
-1.27011e-06
1.72939e-06
-3.02414e-06
1.83533e-06
-1.94174e-07
1.9126e-06
6.11699e-07
1.95628e-06
1.5813e-06
1.92521e-06
7.74429e-07
1.87e-06
-2.50253e-07
1.80587e-06
-1.18218e-06
1.77907e-06
-1.40973e-06
1.76645e-06
-1.00511e-06
1.75996e-06
-1.25231e-06
1.78568e-06
-4.99808e-07
1.78796e-06
-7.71774e-07
1.81639e-06
-4.55104e-07
1.83551e-06
-2.39309e-07
1.86667e-06
-8.60843e-08
1.17121e-07
1.87779e-06
1.85545e-06
-1.10761e-06
1.90284e-06
1.85371e-06
1.88922e-06
-5.79462e-08
1.83103e-06
-1.21192e-06
1.81275e-06
-3.00586e-06
1.9136e-06
-2.9503e-07
1.98854e-06
5.36757e-07
2.03157e-06
1.53827e-06
2.0005e-06
8.05502e-07
1.95105e-06
-2.00806e-07
1.89069e-06
-1.12181e-06
1.86379e-06
-1.38283e-06
1.84914e-06
-9.90461e-07
1.83783e-06
-1.241e-06
1.85971e-06
-5.21683e-07
1.85529e-06
-7.67357e-07
1.88259e-06
-4.82401e-07
1.89999e-06
-2.56712e-07
1.93118e-06
-1.17277e-07
1.02236e-07
1.94607e-06
1.94389e-06
-1.09866e-06
1.99319e-06
1.80441e-06
1.98473e-06
-4.94862e-08
1.92952e-06
-1.15671e-06
1.90068e-06
-2.97701e-06
1.99125e-06
-3.85603e-07
2.06023e-06
4.67777e-07
2.10259e-06
1.49591e-06
2.0751e-06
8.32993e-07
2.03422e-06
-1.59924e-07
1.97887e-06
-1.06647e-06
1.95161e-06
-1.35557e-06
1.93616e-06
-9.75013e-07
1.91993e-06
-1.22478e-06
1.93804e-06
-5.39786e-07
1.9272e-06
-7.56514e-07
1.9506e-06
-5.0581e-07
1.96448e-06
-2.70589e-07
1.99301e-06
-1.45809e-07
8.48633e-08
2.01039e-06
2.03621e-06
-1.08868e-06
2.08485e-06
1.75577e-06
2.08053e-06
-4.51668e-08
2.03177e-06
-1.10795e-06
1.99259e-06
-2.93784e-06
2.06803e-06
-4.61038e-07
2.12816e-06
4.07644e-07
2.171e-06
1.45307e-06
2.15094e-06
8.53056e-07
2.12055e-06
-1.29541e-07
2.07085e-06
-1.01676e-06
2.04306e-06
-1.32778e-06
2.02788e-06
-9.59834e-07
2.00711e-06
-1.20401e-06
2.0221e-06
-5.54775e-07
2.00589e-06
-7.403e-07
2.02336e-06
-5.23286e-07
2.03218e-06
-2.79411e-07
2.05532e-06
-1.68951e-07
6.6919e-08
2.07327e-06
2.13237e-06
-1.07704e-06
2.1791e-06
1.70904e-06
2.17815e-06
-4.42151e-08
2.13744e-06
-1.06724e-06
2.08834e-06
-2.88874e-06
2.146e-06
-5.187e-07
2.19565e-06
3.57997e-07
2.24053e-06
1.40819e-06
2.2307e-06
8.62885e-07
2.21134e-06
-1.10183e-07
2.16717e-06
-9.72587e-07
2.13878e-06
-1.29939e-06
2.12444e-06
-9.45501e-07
2.09981e-06
-1.17937e-06
2.11254e-06
-5.67505e-07
2.09242e-06
-7.20184e-07
2.10319e-06
-5.34059e-07
2.10642e-06
-2.82637e-07
2.12235e-06
-1.84883e-07
5.021e-08
2.13906e-06
2.23276e-06
-1.06332e-06
2.27752e-06
1.66427e-06
2.27922e-06
-4.5913e-08
2.24633e-06
-1.03434e-06
2.18823e-06
-2.83065e-06
2.22852e-06
-5.58992e-07
2.26757e-06
3.18953e-07
2.31566e-06
1.3601e-06
2.31693e-06
8.61616e-07
2.30766e-06
-1.00916e-07
2.26832e-06
-9.33249e-07
2.23927e-06
-1.27033e-06
2.22589e-06
-9.32125e-07
2.19816e-06
-1.15164e-06
2.20933e-06
-5.78679e-07
2.18679e-06
-6.97642e-07
2.19129e-06
-5.38559e-07
2.18952e-06
-2.80867e-07
2.19788e-06
-1.93241e-07
3.58098e-08
2.21228e-06
2.33795e-06
-1.04739e-06
2.38133e-06
1.62089e-06
2.38494e-06
-4.95164e-08
2.35853e-06
-1.00793e-06
2.29283e-06
-2.76495e-06
2.31854e-06
-5.847e-07
2.34818e-06
2.8931e-07
2.39989e-06
1.30839e-06
2.41126e-06
8.50251e-07
2.41017e-06
-9.98286e-08
2.37471e-06
-8.97793e-07
2.34492e-06
-1.24054e-06
2.33233e-06
-9.19535e-07
2.30219e-06
-1.12151e-06
2.31221e-06
-5.88693e-07
2.28843e-06
-6.73862e-07
2.28778e-06
-5.37908e-07
2.2824e-06
-2.75492e-07
2.28408e-06
-1.94921e-07
2.38888e-08
2.296e-06
2.44842e-06
-1.02941e-06
2.49122e-06
1.57808e-06
2.49598e-06
-5.42721e-08
2.47441e-06
-9.86359e-07
2.40265e-06
-2.69319e-06
2.41756e-06
-5.99614e-07
2.43973e-06
2.67138e-07
2.49486e-06
1.25326e-06
2.51426e-06
8.30852e-07
2.51911e-06
-1.04682e-07
2.48663e-06
-8.65308e-07
2.45597e-06
-1.20987e-06
2.44392e-06
-9.07487e-07
2.41194e-06
-1.08953e-06
2.4209e-06
-5.97652e-07
2.39674e-06
-6.49704e-07
2.39216e-06
-5.33326e-07
2.38484e-06
-2.68167e-07
2.3814e-06
-1.91486e-07
1.40151e-08
2.39128e-06
2.56454e-06
-1.00966e-06
2.60749e-06
1.53514e-06
2.61269e-06
-5.94798e-08
2.59449e-06
-9.68155e-07
2.51803e-06
-2.61673e-06
2.52576e-06
-6.07345e-07
2.5425e-06
2.50401e-07
2.60056e-06
1.1952e-06
2.62576e-06
8.05646e-07
2.6345e-06
-1.13418e-07
2.60429e-06
-8.35103e-07
2.57262e-06
-1.1782e-06
2.5609e-06
-8.95768e-07
2.52753e-06
-1.05616e-06
2.53533e-06
-6.05453e-07
2.51139e-06
-6.25767e-07
2.50386e-06
-5.2579e-07
2.49604e-06
-2.60352e-07
2.48915e-06
-1.84592e-07
5.59851e-09
2.49756e-06
2.68657e-06
-9.88398e-07
2.73021e-06
1.4915e-06
2.73528e-06
-6.45509e-08
2.71933e-06
-9.522e-07
2.63924e-06
-2.53665e-06
2.64265e-06
-6.10757e-07
2.6557e-06
2.37357e-07
2.71614e-06
1.13476e-06
2.74529e-06
7.76488e-07
2.75625e-06
-1.24375e-07
2.7279e-06
-8.0675e-07
2.69505e-06
-1.14535e-06
2.6835e-06
-8.84222e-07
2.64913e-06
-1.02179e-06
2.65554e-06
-6.11862e-07
2.63227e-06
-6.02498e-07
2.62244e-06
-5.15956e-07
2.61516e-06
-2.5307e-07
2.6062e-06
-1.75638e-07
-1.82293e-09
2.61362e-06
2.81472e-06
-9.65846e-07
2.85945e-06
1.44676e-06
2.86393e-06
-6.90329e-08
2.84945e-06
-9.37712e-07
2.76653e-06
-2.45373e-06
2.76765e-06
-6.11883e-07
2.77833e-06
2.26677e-07
2.84062e-06
1.07247e-06
2.8724e-06
7.44703e-07
2.88432e-06
-1.36295e-07
2.85762e-06
-7.80045e-07
2.82347e-06
-1.1112e-06
2.81197e-06
-8.72725e-07
2.77701e-06
-9.8682e-07
2.78172e-06
-6.16575e-07
2.75946e-06
-5.80242e-07
2.74775e-06
-5.04247e-07
2.74153e-06
-2.46843e-07
2.73162e-06
-1.65727e-07
-8.47794e-09
2.73827e-06
2.94919e-06
-9.42143e-07
2.99531e-06
1.40064e-06
2.99888e-06
-7.26066e-08
2.98534e-06
-9.24171e-07
2.90016e-06
-2.36855e-06
2.90035e-06
-6.12067e-07
2.90961e-06
2.1741e-07
2.97322e-06
1.00886e-06
3.00678e-06
7.1115e-07
3.01873e-06
-1.4825e-07
2.99363e-06
-7.54942e-07
2.95812e-06
-1.07569e-06
2.94654e-06
-8.61145e-07
2.91141e-06
-9.51695e-07
2.91411e-06
-6.19269e-07
2.89312e-06
-5.59252e-07
2.87984e-06
-4.90967e-07
2.87481e-06
-2.41813e-07
2.86474e-06
-1.5566e-07
-1.44426e-08
2.87071e-06
3.09024e-06
-9.17381e-07
3.13792e-06
1.35297e-06
3.14038e-06
-7.50647e-08
3.12747e-06
-9.11261e-07
3.04046e-06
-2.28154e-06
3.04051e-06
-6.12121e-07
3.04903e-06
2.08888e-07
3.11346e-06
9.44437e-07
3.14828e-06
6.76327e-07
3.15959e-06
-1.59558e-07
3.1361e-06
-7.31453e-07
3.09928e-06
-1.03887e-06
3.08745e-06
-8.49311e-07
3.05261e-06
-9.16859e-07
3.05301e-06
-6.19661e-07
3.03343e-06
-5.39674e-07
3.01886e-06
-4.764e-07
3.01487e-06
-2.37825e-07
3.00521e-06
-1.46e-07
-1.97436e-08
3.01051e-06
3.23814e-06
-8.91608e-07
3.28747e-06
1.30363e-06
3.28869e-06
-7.62866e-08
3.27624e-06
-8.98808e-07
3.18773e-06
-2.19303e-06
3.18807e-06
-6.12459e-07
3.19633e-06
2.0063e-07
3.26105e-06
8.79717e-07
3.2969e-06
6.40474e-07
3.30708e-06
-1.69734e-07
3.28522e-06
-7.09595e-07
3.2473e-06
-1.00095e-06
3.23497e-06
-8.36987e-07
3.20086e-06
-8.82741e-07
3.19875e-06
-6.17553e-07
3.18061e-06
-5.21535e-07
3.16503e-06
-4.60826e-07
3.16182e-06
-2.3461e-07
3.15291e-06
-1.3709e-07
-2.43854e-08
3.15755e-06
3.39317e-06
-8.64848e-07
3.4442e-06
1.25261e-06
3.44412e-06
-7.6212e-08
3.43205e-06
-8.86732e-07
3.34232e-06
-2.1033e-06
3.34305e-06
-6.13189e-07
3.35142e-06
1.92264e-07
3.41593e-06
8.15209e-07
3.45275e-06
6.03648e-07
3.4615e-06
-1.7848e-07
3.44122e-06
-6.89319e-07
3.40255e-06
-9.62279e-07
3.38941e-06
-8.23845e-07
3.35637e-06
-8.49699e-07
3.35171e-06
-6.12897e-07
3.33491e-06
-5.0473e-07
3.31862e-06
-4.44537e-07
3.3159e-06
-2.3189e-07
3.30789e-06
-1.29087e-07
-2.83821e-08
3.31189e-06
3.55568e-06
-8.37112e-07
3.60837e-06
1.19991e-06
3.60698e-06
-7.48193e-08
3.59525e-06
-8.74998e-07
3.50458e-06
-2.01263e-06
3.50559e-06
-6.14197e-07
3.51438e-06
1.83472e-07
3.57818e-06
7.51409e-07
3.61603e-06
5.65794e-07
3.62321e-06
-1.85663e-07
3.60437e-06
-6.70475e-07
3.56543e-06
-9.23335e-07
3.55111e-06
-8.09529e-07
3.5194e-06
-8.17987e-07
3.51227e-06
-6.05774e-07
3.49662e-06
-4.89075e-07
3.47992e-06
-4.27838e-07
3.47742e-06
-2.29389e-07
3.4704e-06
-1.2207e-07
-3.1723e-08
3.47374e-06
3.726e-06
-8.08408e-07
3.78032e-06
1.14558e-06
3.77762e-06
-7.21121e-08
3.7662e-06
-8.63578e-07
3.67486e-06
-1.9213e-06
3.67589e-06
-6.15229e-07
3.68541e-06
1.73951e-07
3.74803e-06
6.88797e-07
3.787e-06
5.26823e-07
3.79262e-06
-1.91289e-07
3.77496e-06
-6.52814e-07
3.73627e-06
-8.8464e-07
3.72045e-06
-7.93713e-07
3.69019e-06
-7.87728e-07
3.68081e-06
-5.96388e-07
3.66609e-06
-4.74359e-07
3.64926e-06
-4.11003e-07
3.64676e-06
-2.26892e-07
3.64078e-06
-1.16087e-07
-3.43902e-08
3.64344e-06
3.90453e-06
-7.78746e-07
3.9604e-06
1.08971e-06
3.9564e-06
-6.81159e-08
3.94525e-06
-8.52426e-07
3.85357e-06
-1.82962e-06
3.85429e-06
-6.15949e-07
3.86484e-06
1.63405e-07
3.92581e-06
6.27822e-07
3.96593e-06
4.86704e-07
3.97015e-06
-1.95509e-07
3.95336e-06
-6.36017e-07
3.91541e-06
-8.46698e-07
3.89786e-06
-7.76164e-07
3.86905e-06
-7.5891e-07
3.8577e-06
-5.8504e-07
3.84369e-06
-4.60352e-07
3.82696e-06
-3.94272e-07
3.8243e-06
-2.24234e-07
3.8194e-06
-1.11182e-07
-3.63805e-08
3.82139e-06
4.09165e-06
-7.48141e-07
4.14897e-06
1.03239e-06
4.14373e-06
-6.28801e-08
4.13277e-06
-8.41461e-07
4.04113e-06
-1.73798e-06
4.04116e-06
-6.15976e-07
4.05304e-06
1.51527e-07
4.11196e-06
5.68899e-07
4.15314e-06
4.45519e-07
4.15623e-06
-1.986e-07
4.13995e-06
-6.19731e-07
4.1032e-06
-8.09945e-07
4.08381e-06
-7.56774e-07
4.05628e-06
-7.31386e-07
4.04334e-06
-5.72101e-07
4.02981e-06
-4.46824e-07
4.01338e-06
-3.77842e-07
4.01046e-06
-2.21309e-07
4.00664e-06
-1.07366e-07
-3.77575e-08
4.00802e-06
4.28778e-06
-7.16624e-07
4.34643e-06
9.73744e-07
4.34003e-06
-5.64802e-08
4.32913e-06
-8.30563e-07
4.23797e-06
-1.64682e-06
4.2369e-06
-6.14913e-07
4.25043e-06
1.38005e-07
4.30694e-06
5.12389e-07
4.34897e-06
4.03487e-07
4.3513e-06
-2.00933e-07
4.33519e-06
-6.03617e-07
4.29993e-06
-7.74691e-07
4.27877e-06
-7.35606e-07
4.2523e-06
-7.04922e-07
4.23812e-06
-5.57924e-07
4.22488e-06
-4.33581e-07
4.20893e-06
-3.61888e-07
4.20565e-06
-2.18027e-07
4.20288e-06
-1.04603e-07
-3.86517e-08
4.20378e-06
4.49339e-06
-6.84237e-07
4.5532e-06
9.13935e-07
4.54574e-06
-4.90239e-08
4.53475e-06
-8.1957e-07
4.44453e-06
-1.5566e-06
4.44196e-06
-6.12347e-07
4.45745e-06
1.22515e-07
4.51128e-06
4.58561e-07
4.5538e-06
3.60968e-07
4.55579e-06
-2.02918e-07
4.53957e-06
-5.87399e-07
4.50594e-06
-7.41065e-07
4.48326e-06
-7.12923e-07
4.45759e-06
-6.79248e-07
4.44246e-06
-5.42796e-07
4.42936e-06
-4.20488e-07
4.41398e-06
-3.46508e-07
4.41032e-06
-2.14364e-07
4.40854e-06
-1.02818e-07
-3.92067e-08
4.40909e-06
4.70892e-06
-6.51042e-07
4.7697e-06
8.53156e-07
4.76133e-06
-4.06517e-08
4.75004e-06
-8.08285e-07
4.66127e-06
-1.46783e-06
4.65678e-06
-6.0785e-07
4.6745e-06
1.04788e-07
4.72555e-06
4.07518e-07
4.7681e-06
3.18419e-07
4.7701e-06
-2.04921e-07
4.75362e-06
-5.70916e-07
4.72159e-06
-7.0904e-07
4.69777e-06
-6.89102e-07
4.67264e-06
-6.54116e-07
4.65678e-06
-5.26937e-07
4.64375e-06
-4.07456e-07
4.62901e-06
-3.31775e-07
4.62497e-06
-2.10322e-07
4.624e-06
-1.01849e-07
-3.96577e-08
4.62445e-06
4.93488e-06
-6.1712e-07
4.9964e-06
7.91633e-07
4.98729e-06
-3.1541e-08
4.97547e-06
-7.96471e-07
4.88868e-06
-1.38104e-06
4.8818e-06
-6.00976e-07
4.90192e-06
8.46672e-08
4.95029e-06
3.59147e-07
4.99238e-06
2.76335e-07
4.99465e-06
-2.07198e-07
4.97789e-06
-5.54156e-07
4.94734e-06
-6.78484e-07
4.92271e-06
-6.64478e-07
4.898e-06
-6.29402e-07
4.88156e-06
-5.10495e-07
4.86855e-06
-3.94454e-07
4.85449e-06
-3.17709e-07
4.85008e-06
-2.05909e-07
4.84979e-06
-1.01564e-07
-4.0208e-08
4.85034e-06
5.17177e-06
-5.82572e-07
5.23378e-06
7.29623e-07
5.22415e-06
-2.19089e-08
5.21153e-06
-7.83856e-07
5.12724e-06
-1.29674e-06
5.11764e-06
-5.91381e-07
5.14011e-06
6.21981e-08
5.18607e-06
3.13191e-07
5.2272e-06
2.35205e-07
5.22987e-06
-2.09873e-07
5.21297e-06
-5.37251e-07
5.18365e-06
-6.49171e-07
5.15857e-06
-6.39399e-07
5.13419e-06
-6.05018e-07
5.11731e-06
-4.93617e-07
5.10426e-06
-3.81406e-07
5.09092e-06
-3.04363e-07
5.08618e-06
-2.01168e-07
5.08638e-06
-1.01767e-07
-4.10399e-08
5.08721e-06
5.42014e-06
-5.47518e-07
5.48234e-06
6.67416e-07
5.47245e-06
-1.20124e-08
5.45873e-06
-7.70142e-07
5.37747e-06
-1.21547e-06
5.36517e-06
-5.79084e-07
5.38952e-06
3.78511e-08
5.4334e-06
2.6931e-07
5.47313e-06
1.95469e-07
5.47621e-06
-2.12952e-07
5.45939e-06
-5.20427e-07
5.43111e-06
-6.20895e-07
5.40583e-06
-6.14113e-07
5.38177e-06
-5.80963e-07
5.36462e-06
-4.7646e-07
5.35146e-06
-3.68253e-07
5.33879e-06
-2.91687e-07
5.33387e-06
-1.96257e-07
5.33431e-06
-1.02202e-07
-4.2301e-08
5.33557e-06
5.68054e-06
-5.12102e-07
5.74262e-06
6.05336e-07
5.73276e-06
-2.14894e-09
5.71763e-06
-7.55013e-07
5.6399e-06
-1.13775e-06
5.62505e-06
-5.64227e-07
5.65065e-06
1.22512e-08
5.6928e-06
2.27154e-07
5.7308e-06
1.57472e-07
5.73419e-06
-2.16346e-07
5.71767e-06
-5.03906e-07
5.69036e-06
-5.93579e-07
5.66498e-06
-5.88734e-07
5.64132e-06
-5.57302e-07
5.62405e-06
-4.59188e-07
5.61074e-06
-3.5495e-07
5.59865e-06
-2.79596e-07
5.5937e-06
-1.91302e-07
5.59419e-06
-1.02696e-07
-4.40295e-08
5.59592e-06
5.95357e-06
-4.76483e-07
6.01517e-06
5.4374e-07
6.00567e-06
7.35054e-09
5.9888e-06
-7.3814e-07
5.91509e-06
-1.06404e-06
5.89789e-06
-5.47027e-07
5.92408e-06
-1.39393e-08
5.9648e-06
1.86434e-07
6.00082e-06
1.21451e-07
6.00438e-06
-2.19902e-07
5.98832e-06
-4.87849e-07
5.96204e-06
-5.67294e-07
5.93659e-06
-5.63286e-07
5.91338e-06
-5.34099e-07
5.89614e-06
-4.41944e-07
5.88277e-06
-3.41581e-07
5.87111e-06
-2.67929e-07
5.86617e-06
-1.86364e-07
5.86662e-06
-1.03145e-07
-4.62507e-08
5.86884e-06
6.23985e-06
-4.40844e-07
6.30057e-06
4.83017e-07
6.29179e-06
1.61352e-08
6.27286e-06
-7.19209e-07
6.20357e-06
-9.94755e-07
6.18433e-06
-5.27784e-07
6.21042e-06
-4.00354e-08
6.24993e-06
1.46923e-07
6.28386e-06
8.7526e-08
6.28738e-06
-2.23421e-07
6.27187e-06
-4.72342e-07
6.24679e-06
-5.42214e-07
6.22128e-06
-5.37781e-07
6.19852e-06
-5.11331e-07
6.18152e-06
-4.24946e-07
6.16826e-06
-3.28324e-07
6.15679e-06
-2.56461e-07
6.1519e-06
-1.81469e-07
6.15228e-06
-1.03526e-07
-4.87962e-08
6.15482e-06
6.54001e-06
-4.05386e-07
6.59944e-06
4.23585e-07
6.59173e-06
2.38485e-08
6.57048e-06
-6.97957e-07
6.50589e-06
-9.3017e-07
6.48498e-06
-5.06875e-07
6.51032e-06
-6.53736e-08
6.54877e-06
1.08474e-07
6.58059e-06
5.57121e-08
6.58384e-06
-2.26677e-07
6.56891e-06
-4.57406e-07
6.54521e-06
-5.18522e-07
6.51977e-06
-5.12335e-07
6.49729e-06
-4.88856e-07
6.48081e-06
-4.08467e-07
6.46783e-06
-3.15335e-07
6.45643e-06
-2.45069e-07
6.45156e-06
-1.76597e-07
6.45187e-06
-1.0383e-07
-5.14258e-08
6.4545e-06
6.85473e-06
-3.7033e-07
6.91243e-06
3.65885e-07
6.90615e-06
3.01365e-08
6.8824e-06
-6.74213e-07
6.82258e-06
-8.70353e-07
6.80046e-06
-4.84747e-07
6.82449e-06
-8.94065e-08
6.86192e-06
7.10468e-08
6.89171e-06
2.59223e-08
6.89448e-06
-2.29445e-07
6.88008e-06
-4.43009e-07
6.85788e-06
-4.9632e-07
6.83276e-06
-4.87221e-07
6.81039e-06
-4.66479e-07
6.79455e-06
-3.92635e-07
6.78207e-06
-3.02851e-07
6.77087e-06
-2.33866e-07
6.76584e-06
-1.71567e-07
6.76608e-06
-1.04069e-07
-5.39756e-08
6.76863e-06
7.18472e-06
-3.35915e-07
7.24022e-06
3.10385e-07
7.23574e-06
3.46159e-08
7.20944e-06
-6.47913e-07
7.1542e-06
-8.15107e-07
7.13138e-06
-4.61928e-07
7.15365e-06
-1.11681e-07
7.19e-06
3.47022e-08
7.21793e-06
-2.01346e-09
7.22004e-06
-2.31556e-07
7.20607e-06
-4.29032e-07
7.1854e-06
-4.75654e-07
7.16096e-06
-4.62783e-07
7.13857e-06
-4.44089e-07
7.12325e-06
-3.77309e-07
7.11167e-06
-2.91277e-07
7.10088e-06
-2.23071e-07
7.09545e-06
-1.66137e-07
7.09566e-06
-1.0428e-07
-5.63773e-08
7.09806e-06
7.53071e-06
-3.024e-07
7.58352e-06
2.57576e-07
7.5813e-06
3.68327e-08
7.55241e-06
-6.19016e-07
7.50148e-06
-7.64178e-07
7.47847e-06
-4.38923e-07
7.49854e-06
-1.31748e-07
7.53368e-06
-4.40068e-10
7.55995e-06
-2.82841e-08
7.56134e-06
-2.32943e-07
7.5476e-06
-4.15292e-07
7.52844e-06
-4.56495e-07
7.50503e-06
-4.3937e-07
7.48264e-06
-4.21696e-07
7.46754e-06
-3.62215e-07
7.45717e-06
-2.80901e-07
7.44705e-06
-2.12951e-07
7.44118e-06
-1.60271e-07
7.44128e-06
-1.04381e-07
-5.86458e-08
7.44355e-06
7.89347e-06
-2.70059e-07
7.94307e-06
2.07972e-07
7.94363e-06
3.62755e-08
7.9119e-06
-5.87284e-07
7.86513e-06
-7.17405e-07
7.84251e-06
-4.16303e-07
7.86e-06
-1.49246e-07
7.89366e-06
-3.40965e-08
7.91851e-06
-5.31367e-08
7.91919e-06
-2.33617e-07
7.90548e-06
-4.01584e-07
7.88771e-06
-4.3873e-07
7.86562e-06
-4.17278e-07
7.84335e-06
-3.99422e-07
7.82826e-06
-3.47122e-07
7.81901e-06
-2.71653e-07
7.80991e-06
-2.03854e-07
7.80372e-06
-1.54077e-07
7.80344e-06
-1.0411e-07
-6.07989e-08
7.8056e-06
8.2738e-06
-2.39179e-07
8.31964e-06
1.6213e-07
8.32344e-06
3.24797e-08
8.28868e-06
-5.52529e-07
8.24585e-06
-6.74573e-07
8.22426e-06
-3.94716e-07
8.2389e-06
-1.63883e-07
8.27071e-06
-6.59071e-08
8.29433e-06
-7.67544e-08
8.29441e-06
-2.337e-07
8.28056e-06
-3.87737e-07
8.26399e-06
-4.22156e-07
8.2434e-06
-3.96686e-07
8.22147e-06
-3.77499e-07
8.20624e-06
-3.31889e-07
8.19771e-06
-2.63126e-07
8.18997e-06
-1.96109e-07
8.1836e-06
-1.47708e-07
8.18262e-06
-1.03125e-07
-6.28665e-08
8.18468e-06
8.67253e-06
-2.10046e-07
8.71404e-06
1.20623e-07
8.72112e-06
2.53932e-08
8.68372e-06
-5.15122e-07
8.64442e-06
-6.3528e-07
8.62454e-06
-3.74831e-07
8.6362e-06
-1.75547e-07
8.66566e-06
-9.53652e-08
8.68815e-06
-9.92443e-08
8.68782e-06
-2.33375e-07
8.67376e-06
-3.73668e-07
8.65809e-06
-4.06486e-07
8.63905e-06
-3.77653e-07
8.61776e-06
-3.56205e-07
8.60229e-06
-3.1642e-07
8.59405e-06
-2.54886e-07
8.58771e-06
-1.89773e-07
8.58146e-06
-1.41455e-07
8.57958e-06
-1.0124e-07
-6.46326e-08
8.58134e-06
9.0905e-06
-1.8293e-07
9.12714e-06
8.39886e-08
9.13725e-06
1.5285e-08
9.09816e-06
-4.7604e-07
9.06166e-06
-5.98772e-07
9.04411e-06
-3.57286e-07
9.05291e-06
-1.84348e-07
9.07943e-06
-1.21884e-07
9.10074e-06
-1.20559e-07
9.10021e-06
-2.32837e-07
9.08594e-06
-3.59398e-07
9.07087e-06
-3.91417e-07
9.05333e-06
-3.60115e-07
9.03295e-06
-3.35829e-07
9.01726e-06
-3.00727e-07
9.00893e-06
-2.4655e-07
9.00372e-06
-1.84565e-07
8.99801e-06
-1.35748e-07
8.99526e-06
-9.84922e-08
-6.60168e-08
8.99665e-06
9.5286e-06
-1.58068e-07
9.55991e-06
5.2675e-08
9.57265e-06
2.5447e-09
9.53319e-06
-4.36583e-07
9.49825e-06
-5.63825e-07
9.48358e-06
-3.42622e-07
9.49001e-06
-1.90779e-07
9.51302e-06
-1.44889e-07
9.53294e-06
-1.40478e-07
9.53237e-06
-2.32266e-07
9.51799e-06
-3.45023e-07
9.50324e-06
-3.7666e-07
9.48706e-06
-3.43936e-07
9.46782e-06
-3.16588e-07
9.45208e-06
-2.84987e-07
9.44334e-06
-2.3782e-07
9.43882e-06
-1.80044e-07
9.43408e-06
-1.31005e-07
9.43067e-06
-9.50872e-08
-6.69932e-08
9.43165e-06
9.98771e-06
-1.35642e-07
1.00134e-05
2.69919e-08
1.00283e-05
-1.23293e-08
9.98986e-06
-3.98181e-07
9.95503e-06
-5.2899e-07
9.94341e-06
-3.31003e-07
9.9484e-06
-1.95767e-07
9.96748e-06
-1.63976e-07
9.98565e-06
-1.58648e-07
9.98515e-06
-2.31757e-07
9.97082e-06
-3.30695e-07
9.95607e-06
-3.61916e-07
9.94111e-06
-3.28973e-07
9.92319e-06
-2.98665e-07
9.90765e-06
-2.69447e-07
9.89839e-06
-2.2856e-07
9.89413e-06
-1.75782e-07
9.89059e-06
-1.27471e-07
9.88695e-06
-9.14426e-08
-6.74411e-08
9.8874e-06
1.04688e-05
-1.1577e-07
1.04887e-05
7.05629e-09
1.05051e-05
-2.8757e-08
1.04693e-05
-3.62394e-07
1.04334e-05
-4.93075e-07
1.04242e-05
-3.21764e-07
1.04286e-05
-2.00197e-07
1.04439e-05
-1.79212e-07
1.04598e-05
-1.74602e-07
1.04595e-05
-2.3144e-07
1.04454e-05
-3.16591e-07
1.04304e-05
-3.46968e-07
1.04165e-05
-3.15008e-07
1.04e-05
-2.82214e-07
1.03849e-05
-2.54343e-07
1.03752e-05
-2.18847e-07
1.03708e-05
-1.71324e-07
1.03684e-05
-1.25153e-07
1.03652e-05
-8.82077e-08
-6.72137e-08
1.0365e-05
1.09727e-05
-9.84871e-08
1.09872e-05
-7.38546e-09
1.10044e-05
-4.59357e-08
1.09724e-05
-3.30447e-07
1.09351e-05
-4.55765e-07
1.09269e-05
-3.13551e-07
1.09312e-05
-2.04503e-07
1.0943e-05
-1.91008e-07
1.09565e-05
-1.88125e-07
1.09564e-05
-2.31348e-07
1.09428e-05
-3.0293e-07
1.09276e-05
-3.31814e-07
1.09143e-05
-3.01742e-07
1.08995e-05
-2.6736e-07
1.0885e-05
-2.39902e-07
1.08751e-05
-2.08893e-07
1.08701e-05
-1.66316e-07
1.08686e-05
-1.23708e-07
1.08665e-05
-8.60614e-08
-6.62411e-08
1.08655e-05
1.15006e-05
-8.37403e-08
1.15105e-05
-1.7282e-08
1.15272e-05
-6.2579e-08
1.14996e-05
-3.029e-07
1.14618e-05
-4.1792e-07
1.14534e-05
-3.05164e-07
1.14576e-05
-2.08749e-07
1.14663e-05
-1.997e-07
1.1477e-05
-1.98854e-07
1.14769e-05
-2.31221e-07
1.14641e-05
-2.90128e-07
1.14489e-05
-3.16565e-07
1.14361e-05
-2.89007e-07
1.14228e-05
-2.53984e-07
1.14092e-05
-2.2634e-07
1.13993e-05
-1.98994e-07
1.13938e-05
-1.60806e-07
1.13926e-05
-1.2248e-07
1.13918e-05
-8.52895e-08
-6.48792e-08
1.13904e-05
1.20535e-05
-7.13913e-08
1.20598e-05
-2.3603e-08
1.20747e-05
-7.75071e-08
1.20517e-05
-2.79838e-07
1.20147e-05
-3.81003e-07
1.20049e-05
-2.9531e-07
1.20093e-05
-2.13192e-07
1.20157e-05
-2.06065e-07
1.20231e-05
-2.06265e-07
1.20225e-05
-2.30571e-07
1.20105e-05
-2.78212e-07
1.19956e-05
-3.01667e-07
1.19833e-05
-2.76684e-07
1.19712e-05
-2.41873e-07
1.19587e-05
-2.13782e-07
1.1949e-05
-1.89346e-07
1.19432e-05
-1.55037e-07
1.19416e-05
-1.20875e-07
1.1942e-05
-8.5642e-08
-6.38135e-08
1.19409e-05
1.26324e-05
-6.12113e-08
1.26361e-05
-2.72627e-08
1.26484e-05
-8.983e-08
1.26295e-05
-2.60951e-07
1.25949e-05
-3.46362e-07
1.25829e-05
-2.83312e-07
1.2587e-05
-2.17345e-07
1.25922e-05
-2.11237e-07
1.25965e-05
-2.10619e-07
1.25947e-05
-2.28751e-07
1.25834e-05
-2.66845e-07
1.25691e-05
-2.87428e-07
1.25572e-05
-2.64776e-07
1.25462e-05
-2.30898e-07
1.25347e-05
-2.02254e-07
1.25254e-05
-1.80013e-07
1.25195e-05
-1.49203e-07
1.25173e-05
-1.18677e-07
1.25181e-05
-8.64365e-08
-6.35735e-08
1.25179e-05
1.32386e-05
-5.28958e-08
1.32405e-05
-2.91198e-08
1.32496e-05
-9.89392e-08
1.32344e-05
-2.45746e-07
1.3203e-05
-3.14973e-07
1.3189e-05
-2.69335e-07
1.31917e-05
-2.20044e-07
1.31963e-05
-2.15872e-07
1.31987e-05
-2.13005e-07
1.31954e-05
-2.25404e-07
1.31842e-05
-2.55641e-07
1.31705e-05
-2.73722e-07
1.3159e-05
-2.53325e-07
1.31491e-05
-2.20947e-07
1.31386e-05
-1.91754e-07
1.31296e-05
-1.7106e-07
1.31238e-05
-1.4336e-07
1.31211e-05
-1.16034e-07
1.31217e-05
-8.70111e-08
-6.41735e-08
1.31223e-05
1.38734e-05
-4.60929e-08
1.38741e-05
-2.99012e-08
1.38798e-05
-1.04555e-07
1.38676e-05
-2.3358e-07
1.384e-05
-2.87356e-07
1.38247e-05
-2.54028e-07
1.38248e-05
-2.20125e-07
1.3829e-05
-2.20136e-07
1.38305e-05
-2.14463e-07
1.38258e-05
-2.20732e-07
1.38145e-05
-2.44353e-07
1.38011e-05
-2.60264e-07
1.379e-05
-2.42287e-07
1.37809e-05
-2.11832e-07
1.37715e-05
-1.82346e-07
1.3763e-05
-1.62573e-07
1.37572e-05
-1.37567e-07
1.37542e-05
-1.13036e-07
1.37543e-05
-8.70823e-08
-6.52351e-08
1.37553e-05
1.4538e-05
-4.04355e-08
1.45382e-05
-3.01371e-08
1.45404e-05
-1.06745e-07
1.45304e-05
-2.2354e-07
1.45067e-05
-2.63702e-07
1.44909e-05
-2.38192e-07
1.44881e-05
-2.17332e-07
1.44912e-05
-2.23214e-07
1.44925e-05
-2.15748e-07
1.44873e-05
-2.15529e-07
1.44757e-05
-2.32814e-07
1.44624e-05
-2.46936e-07
1.44515e-05
-2.3142e-07
1.44431e-05
-2.03411e-07
1.44348e-05
-1.73984e-07
1.44269e-05
-1.54677e-07
1.44212e-05
-1.31924e-07
1.44179e-05
-1.09721e-07
1.44174e-05
-8.6599e-08
-6.63802e-08
1.44186e-05
1.5234e-05
-3.55585e-08
1.52342e-05
-3.02989e-08
1.52331e-05
-1.05673e-07
1.52242e-05
-2.146e-07
1.52042e-05
-2.43769e-07
1.51887e-05
-2.22707e-07
1.51835e-05
-2.12122e-07
1.51843e-05
-2.23999e-07
1.51857e-05
-2.17175e-07
1.51809e-05
-2.1073e-07
1.51693e-05
-2.21177e-07
1.51561e-05
-2.33686e-07
1.51451e-05
-2.20484e-07
1.51371e-05
-1.9543e-07
1.51297e-05
-1.66584e-07
1.51225e-05
-1.47431e-07
1.51171e-05
-1.26522e-07
1.51136e-05
-1.06282e-07
1.51125e-05
-8.54727e-08
-6.73777e-08
1.51135e-05
1.59629e-05
-3.11581e-08
1.59633e-05
-3.06476e-08
1.59593e-05
-1.01681e-07
1.59502e-05
-2.055e-07
1.59338e-05
-2.27363e-07
1.59195e-05
-2.0842e-07
1.59125e-05
-2.0512e-07
1.59105e-05
-2.22001e-07
1.59115e-05
-2.18196e-07
1.59077e-05
-2.06962e-07
1.58967e-05
-2.10126e-07
1.58835e-05
-2.20452e-07
1.58724e-05
-2.0942e-07
1.58645e-05
-1.8758e-07
1.58579e-05
-1.59951e-07
1.58514e-05
-1.40905e-07
1.58462e-05
-1.21379e-07
1.58429e-05
-1.02932e-07
1.58411e-05
-8.37104e-08
-6.79771e-08
1.58417e-05
1.67265e-05
-2.70329e-08
1.67269e-05
-3.11102e-08
1.67209e-05
-9.56032e-08
1.67103e-05
-1.9498e-07
1.66974e-05
-2.14407e-07
1.66848e-05
-1.95874e-07
1.66766e-05
-1.9686e-07
1.66721e-05
-2.17479e-07
1.66714e-05
-2.17563e-07
1.66689e-05
-2.04428e-07
1.66592e-05
-2.00446e-07
1.66462e-05
-2.07421e-07
1.6635e-05
-1.98272e-07
1.6627e-05
-1.79568e-07
1.66209e-05
-1.53831e-07
1.66151e-05
-1.35061e-07
1.66102e-05
-1.165e-07
1.6607e-05
-9.97681e-08
1.6605e-05
-8.16546e-08
-6.78511e-08
1.66048e-05
1.75264e-05
-2.31034e-08
1.75268e-05
-3.14942e-08
1.75198e-05
-8.85768e-08
1.75073e-05
-1.82499e-07
1.74967e-05
-2.03765e-07
1.74865e-05
-1.85678e-07
1.74776e-05
-1.87976e-07
1.74709e-05
-2.10792e-07
1.74678e-05
-2.14499e-07
1.74659e-05
-2.02457e-07
1.74579e-05
-1.92519e-07
1.74458e-05
-1.95315e-07
1.74346e-05
-1.87004e-07
1.74263e-05
-1.71335e-07
1.74204e-05
-1.47911e-07
1.74151e-05
-1.29784e-07
1.74106e-05
-1.11927e-07
1.74075e-05
-9.66991e-08
1.74055e-05
-7.96569e-08
-6.69669e-08
1.74046e-05
1.83646e-05
-1.93805e-08
1.83648e-05
-3.16441e-08
1.83576e-05
-8.14399e-08
1.83438e-05
-1.68701e-07
1.83338e-05