/*--------------------------------*- C++ -*----------------------------------*\
| =========                 |                                                 |
| \\      /  F ield         | OpenFOAM: The Open Source CFD Toolbox           |
|  \\    /   O peration     | Version:  v1912                                 |
|   \\  /    A nd           | Website:  www.openfoam.com                      |
|    \\/     M anipulation  |                                                 |
\*---------------------------------------------------------------------------*/
FoamFile
{
    version     2.0;
    format      ascii;
    class       volVectorField;
    location    "1.75";
    object      U;
}
// * * * * * * * * * * * * * * * * * * * * * * * * * * * * * * * * * * * * * //

dimensions      [0 1 -1 0 0 0 0];


internalField   nonuniform List<vector> 
9600
(
(0.852011 -0.0115403 0)
(1.10598 0.0236806 0)
(0.890367 -0.0068289 0)
(1.06104 -0.017845 0)
(0.988273 -0.0367523 0)
(1.13472 0.00891835 0)
(1.03927 0.016099 0)
(1.12866 0.033681 0)
(1.05933 0.0111295 0)
(1.08892 -0.0158158 0)
(0.995056 -0.0413872 0)
(1.02863 -0.0424342 0)
(0.959942 -0.0279351 0)
(1.05887 -0.0383808 0)
(0.932546 -0.00386066 0)
(1.16002 -0.0248142 0)
(0.89177 -0.0100011 0)
(1.21121 6.682e-05 0)
(0.911981 0.000273376 0)
(1.18977 0.00655108 0)
(0.867984 -0.0113408 0)
(1.10189 0.0236244 0)
(0.91972 -0.00637232 0)
(1.02665 -0.0187485 0)
(0.983586 -0.0378271 0)
(1.12589 0.00848494 0)
(1.05244 0.0160659 0)
(1.1132 0.0335388 0)
(1.08773 0.0116845 0)
(1.0711 -0.0145182 0)
(1.0269 -0.0399466 0)
(0.997396 -0.0415954 0)
(0.985161 -0.0286974 0)
(1.0159 -0.0374648 0)
(0.969856 -0.00712692 0)
(1.10004 -0.0237351 0)
(0.961762 -0.012021 0)
(1.12402 -0.000720659 0)
(1.02424 0.0020896 0)
(1.06547 0.0049918 0)
(0.892056 -0.0112193 0)
(1.09358 0.023327 0)
(0.948462 -0.00575739 0)
(0.990651 -0.019135 0)
(0.978435 -0.0386724 0)
(1.10606 0.00780773 0)
(1.06918 0.0162109 0)
(1.10161 0.0332046 0)
(1.09659 0.0121919 0)
(1.07369 -0.013829 0)
(1.03116 -0.0388948 0)
(0.991405 -0.0411402 0)
(0.993601 -0.0288161 0)
(0.996916 -0.0375603 0)
(0.995496 -0.00854399 0)
(1.06331 -0.0238176 0)
(1.01516 -0.012101 0)
(1.07392 -0.00269963 0)
(1.07036 0.00304783 0)
(1.05528 0.0052022 0)
(0.919549 -0.0111994 0)
(1.07976 0.0229135 0)
(0.971018 -0.0049038 0)
(0.963817 -0.0193297 0)
(0.970921 -0.0397087 0)
(1.0793 0.00681661 0)
(1.07895 0.0162277 0)
(1.09566 0.0328312 0)
(1.10222 0.0125343 0)
(1.07674 -0.012867 0)
(1.03416 -0.0374978 0)
(0.992234 -0.0404623 0)
(0.994201 -0.0289243 0)
(0.990982 -0.0375726 0)
(1.00508 -0.0097268 0)
(1.04327 -0.0245735 0)
(1.03481 -0.0123122 0)
(1.05864 -0.00417785 0)
(1.0774 0.00307428 0)
(1.0699 0.00626274 0)
(0.945188 -0.0112403 0)
(1.06178 0.0225453 0)
(0.985447 -0.00394216 0)
(0.951797 -0.0192916 0)
(0.961385 -0.0406854 0)
(1.05256 0.00558787 0)
(1.07956 0.0159389 0)
(1.09474 0.032469 0)
(1.10607 0.0128256 0)
(1.07886 -0.0118873 0)
(1.03539 -0.0361114 0)
(0.994298 -0.0398026 0)
(0.994494 -0.0289167 0)
(0.990161 -0.0376953 0)
(1.0072 -0.0110022 0)
(1.03386 -0.0251794 0)
(1.03863 -0.0127751 0)
(1.05401 -0.00537228 0)
(1.07426 0.0026449 0)
(1.0766 0.0069101 0)
(0.964638 -0.0113007 0)
(1.04338 0.0222598 0)
(0.994466 -0.00302923 0)
(0.953559 -0.0190661 0)
(0.952462 -0.0415349 0)
(1.03115 0.00420805 0)
(1.07563 0.0153499 0)
(1.09674 0.0320269 0)
(1.10945 0.0131284 0)
(1.08011 -0.0108144 0)
(1.03597 -0.0346351 0)
(0.996163 -0.0391084 0)
(0.995489 -0.0288651 0)
(0.99024 -0.0379147 0)
(1.00723 -0.0120728 0)
(1.02907 -0.0258563 0)
(1.03741 -0.0134473 0)
(1.05114 -0.00636096 0)
(1.06963 0.00172355 0)
(1.07677 0.00701466 0)
(0.976167 -0.0113448 0)
(1.02855 0.0220229 0)
(1.00149 -0.00225856 0)
(0.963715 -0.0186782 0)
(0.946473 -0.0421609 0)
(1.01681 0.0027263 0)
(1.07115 0.0144887 0)
(1.09975 0.0314426 0)
(1.11142 0.013474 0)
(1.07983 -0.00965869 0)
(1.03582 -0.0331041 0)
(0.997786 -0.0383961 0)
(0.99697 -0.0287919 0)
(0.98964 -0.0380634 0)
(1.0067 -0.013114 0)
(1.02473 -0.0265212 0)
(1.03423 -0.014216 0)
(1.04778 -0.00723864 0)
(1.06488 0.000583103 0)
(1.074 0.00702856 0)
(0.980885 -0.0113524 0)
(1.01928 0.0217785 0)
(1.00845 -0.00165836 0)
(0.977024 -0.0181588 0)
(0.943991 -0.0425645 0)
(1.00844 0.00114168 0)
(1.06706 0.0133963 0)
(1.10172 0.030736 0)
(1.11085 0.0139107 0)
(1.07796 -0.00843969 0)
(1.0352 -0.0315508 0)
(0.999108 -0.0377051 0)
(0.998515 -0.0286584 0)
(0.987938 -0.0381549 0)
(1.00549 -0.0141649 0)
(1.0189 -0.0270901 0)
(1.02909 -0.0150888 0)
(1.04288 -0.00810445 0)
(1.05938 -0.000585447 0)
(1.06961 0.00699217 0)
(0.981592 -0.0113207 0)
(1.01504 0.0214681 0)
(1.01517 -0.00121546 0)
(0.990094 -0.0175309 0)
(0.94424 -0.0427613 0)
(1.00386 -0.000517441 0)
(1.06277 0.0121547 0)
(1.10101 0.029952 0)
(1.10697 0.0144422 0)
(1.07429 -0.00718424 0)
(1.03414 -0.0299802 0)
(1.0001 -0.0370127 0)
(0.999635 -0.0284352 0)
(0.985532 -0.0381523 0)
(1.00312 -0.0151624 0)
(1.01133 -0.027495 0)
(1.02156 -0.016113 0)
(1.03564 -0.00894141 0)
(1.05194 -0.00186521 0)
(1.06327 0.00675313 0)
(0.981197 -0.0112596 0)
(1.0137 0.0210635 0)
(1.02047 -0.00091114 0)
(1.00109 -0.0168178 0)
(0.946541 -0.042765 0)
(1.00097 -0.00219018 0)
(1.05742 0.0108457 0)
(1.09658 0.0291426 0)
(1.09951 0.0150332 0)
(1.06881 -0.00595836 0)
(1.03256 -0.0284441 0)
(1.00074 -0.0363288 0)
(0.999948 -0.0281223 0)
(0.98321 -0.0380178 0)
(0.999435 -0.0160682 0)
(1.00289 -0.0276881 0)
(1.01188 -0.0172271 0)
(1.02583 -0.00975808 0)
(1.04168 -0.00328994 0)
(1.05402 0.00627586 0)
(0.981577 -0.011181 0)
(1.01296 0.0205729 0)
(1.02341 -0.000713113 0)
(1.0091 -0.0160586 0)
(0.950807 -0.0425866 0)
(0.998055 -0.00381346 0)
(1.05004 0.00954317 0)
(1.08776 0.0283367 0)
(1.08857 0.0156503 0)
(1.06175 -0.00481938 0)
(1.03045 -0.0269706 0)
(1.00107 -0.0356343 0)
(0.99938 -0.0277243 0)
(0.981698 -0.0377281 0)
(0.994787 -0.0168517 0)
(0.99493 -0.0276258 0)
(1.00119 -0.0183358 0)
(1.01405 -0.01054 0)
(1.02864 -0.00475523 0)
(1.04136 0.00559618 0)
(0.983276 -0.0110925 0)
(1.01136 0.0200321 0)
(1.02396 -0.000592424 0)
(1.01392 -0.0153108 0)
(0.956909 -0.0422363 0)
(0.993986 -0.00530981 0)
(1.03988 0.00831631 0)
(1.07445 0.0275532 0)
(1.07491 0.0162371 0)
(1.05373 -0.00383777 0)
(1.02792 -0.025605 0)
(1.00114 -0.0349333 0)
(0.998143 -0.027282 0)
(0.981268 -0.037286 0)
(0.989889 -0.017502 0)
(0.988573 -0.0273079 0)
(0.991061 -0.0193395 0)
(1.0016 -0.0112099 0)
(1.01403 -0.00617044 0)
(1.02592 0.00475146 0)
(0.985895 -0.0109951 0)
(1.00859 0.0194825 0)
(1.0228 -0.000529147 0)
(1.01608 -0.0146308 0)
(0.9641 -0.0417282 0)
(0.988628 -0.00658859 0)
(1.02724 0.00723112 0)
(1.0577 0.0267822 0)
(1.05998 0.0167143 0)
(1.04562 -0.00306734 0)
(1.02523 -0.0243676 0)
(1.00104 -0.034219 0)
(0.996618 -0.0268354 0)
(0.981691 -0.0367054 0)
(0.985485 -0.0180334 0)
(0.984224 -0.0267785 0)
(0.98281 -0.0201402 0)
(0.990023 -0.0116907 0)
(0.999727 -0.00738189 0)
(1.00947 0.00383479 0)
(0.988725 -0.0108844 0)
(1.00514 0.01895 0)
(1.02084 -0.000508342 0)
(1.01646 -0.014053 0)
(0.971209 -0.0410807 0)
(0.982757 -0.00760575 0)
(1.01367 0.00632219 0)
(1.03977 0.0259923 0)
(1.0456 0.0170115 0)
(1.03824 -0.00253656 0)
(1.02266 -0.0232675 0)
(1.00085 -0.0334967 0)
(0.995165 -0.0264166 0)
(0.982507 -0.036008 0)
(0.982057 -0.0184778 0)
(0.981599 -0.0260965 0)
(0.977031 -0.0206812 0)
(0.98047 -0.0119344 0)
(0.987482 -0.00827726 0)
(0.994227 0.00294565 0)
(0.991216 -0.0107558 0)
(1.00174 0.0184447 0)
(1.01877 -0.000522384 0)
(1.01596 -0.0135831 0)
(0.977248 -0.0403099 0)
(0.97745 -0.00834674 0)
(1.00116 0.00559588 0)
(1.02327 0.0251553 0)
(1.03328 0.0170941 0)
(1.03213 -0.00223824 0)
(1.02041 -0.0222925 0)
(1.00063 -0.0327649 0)
(0.994003 -0.0260339 0)
(0.983323 -0.0352091 0)
(0.979732 -0.018868 0)
(0.980112 -0.0253153 0)
(0.973568 -0.0209696 0)
(0.973463 -0.0119507 0)
(0.978265 -0.00881742 0)
(0.98194 0.00215319 0)
(0.993131 -0.0106064 0)
(0.998904 0.0179623 0)
(1.01696 -0.000560795 0)
(1.01518 -0.013207 0)
(0.981778 -0.0394336 0)
(0.973437 -0.00883405 0)
(0.991175 0.0050385 0)
(1.00999 0.024253 0)
(1.02377 0.0169633 0)
(1.02745 -0.00213896 0)
(1.01856 -0.0214232 0)
(1.00043 -0.0320206 0)
(0.993193 -0.0256796 0)
(0.983953 -0.0343308 0)
(0.97837 -0.0192235 0)
(0.979246 -0.0244802 0)
(0.971837 -0.0210398 0)
(0.968913 -0.0117895 0)
(0.972154 -0.00901306 0)
(0.973344 0.0014906 0)
(0.994477 -0.010436 0)
(0.996845 0.0174926 0)
(1.01552 -0.000615168 0)
(1.01438 -0.0129041 0)
(0.98486 -0.0384668 0)
(0.970886 -0.0091298 0)
(0.984149 0.00462012 0)
(1.00049 0.0232821 0)
(1.01702 0.0166523 0)
(1.02403 -0.00219158 0)
(1.01708 -0.0206311 0)
(1.00027 -0.0312573 0)
(0.992691 -0.025346 0)
(0.984385 -0.0333903 0)
(0.977717 -0.0195428 0)
(0.978695 -0.0236262 0)
(0.971197 -0.0209284 0)
(0.966359 -0.0115168 0)
(0.968625 -0.00894274 0)
(0.96819 0.000940254 0)
(0.995373 -0.0102462 0)
(0.995509 0.0170252 0)
(1.0144 -0.00067803 0)
(1.01365 -0.012653 0)
(0.986806 -0.0374265 0)
(0.969575 -0.0092907 0)
(0.979744 0.00430603 0)
(0.994349 0.0222496 0)
(1.01253 0.0162057 0)
(1.02159 -0.00234809 0)
(1.0159 -0.0198998 0)
(1.00015 -0.0304674 0)
(0.992411 -0.0250277 0)
(0.984691 -0.0323995 0)
(0.977527 -0.0198254 0)
(0.978328 -0.0227747 0)
(0.971164 -0.0206802 0)
(0.965231 -0.0112029 0)
(0.966947 -0.00868476 0)
(0.965684 0.000480131 0)
(0.995949 -0.0100401 0)
(0.994739 0.0165524 0)
(1.01351 -0.000741572 0)
(1.01298 -0.0124362 0)
(0.987964 -0.036326 0)
(0.969156 -0.00936695 0)
(0.977303 0.00406476 0)
(0.99074 0.0211687 0)
(1.00964 0.0156643 0)
(1.01983 -0.00256772 0)
(1.01491 -0.0192173 0)
(1.00007 -0.0296455 0)
(0.992273 -0.0247157 0)
(0.984947 -0.0313722 0)
(0.977624 -0.0200656 0)
(0.978104 -0.0219392 0)
(0.971449 -0.0203334 0)
(0.965026 -0.0108852 0)
(0.966459 -0.00830676 0)
(0.964937 8.03372e-05 0)
(0.996308 -0.00981993 0)
(0.994367 0.0160693 0)
(1.01278 -0.000799709 0)
(1.01236 -0.0122421 0)
(0.988618 -0.0351783 0)
(0.969328 -0.00939557 0)
(0.976196 0.00387249 0)
(0.988844 0.0200501 0)
(1.0078 0.0150597 0)
(1.0185 -0.00282041 0)
(1.01405 -0.0185747 0)
(1.00001 -0.0287881 0)
(0.992215 -0.0244078 0)
(0.985206 -0.0303194 0)
(0.9779 -0.020252 0)
(0.978009 -0.0211372 0)
(0.971907 -0.0199023 0)
(0.965375 -0.0106012 0)
(0.966671 -0.0078606 0)
(0.965238 -0.000273393 0)
(0.996521 -0.00958739 0)
(0.994257 0.0155723 0)
(1.01215 -0.000848337 0)
(1.01179 -0.0120627 0)
(0.988971 -0.0339943 0)
(0.969875 -0.00940224 0)
(0.975944 0.00371084 0)
(0.988034 0.0189018 0)
(1.00659 0.0144118 0)
(1.01743 -0.00308141 0)
(1.01325 -0.0179705 0)
(0.999954 -0.0278944 0)
(0.992201 -0.0240967 0)
(0.985491 -0.0292575 0)
(0.978296 -0.0203729 0)
(0.978031 -0.0203787 0)
(0.972468 -0.0194029 0)
(0.966036 -0.0103653 0)
(0.967254 -0.0073871 0)
(0.966102 -0.000586594 0)
(0.996643 -0.00934377 0)
(0.994308 0.015059 0)
(1.01157 -0.000884639 0)
(1.01125 -0.0118925 0)
(0.989165 -0.0327805 0)
(0.970656 -0.00940267 0)
(0.976217 0.00356603 0)
(0.987873 0.0177336 0)
(1.00573 0.0137351 0)
(1.0165 -0.00333466 0)
(1.01248 -0.0174047 0)
(0.999888 -0.0269643 0)
(0.992208 -0.0237776 0)
(0.985803 -0.0282004 0)
(0.978779 -0.0204177 0)
(0.978155 -0.0196653 0)
(0.973093 -0.0188561 0)
(0.966865 -0.0101719 0)
(0.968003 -0.00693011 0)
(0.96723 -0.000864741 0)
(0.996714 -0.0090898 0)
(0.994449 0.0145278 0)
(1.01103 -0.000905608 0)
(1.01075 -0.01173 0)
(0.989292 -0.031541 0)
(0.971571 -0.00940584 0)
(0.976792 0.00342916 0)
(0.988071 0.0165544 0)
(1.00505 0.0130355 0)
(1.01562 -0.00356484 0)
(1.01172 -0.0168811 0)
(0.999796 -0.026001 0)
(0.992228 -0.0234469 0)
(0.986131 -0.0271605 0)
(0.979323 -0.0203821 0)
(0.97836 -0.0190008 0)
(0.973758 -0.0182628 0)
(0.967778 -0.0100262 0)
(0.968804 -0.00650617 0)
(0.968447 -0.00110541 0)
(0.996764 -0.00882579 0)
(0.994629 0.0139783 0)
(1.0105 -0.000911026 0)
(1.01026 -0.0115728 0)
(0.989411 -0.030283 0)
(0.972553 -0.00941603 0)
(0.977517 0.00329187 0)
(0.988443 0.0153769 0)
(1.00443 0.0123151 0)
(1.01475 -0.00376333 0)
(1.01097 -0.0163974 0)
(0.999671 -0.0250145 0)
(0.992258 -0.0230978 0)
(0.986463 -0.0261512 0)
(0.979907 -0.020264 0)
(0.978631 -0.0183817 0)
(0.974445 -0.0176349 0)
(0.968734 -0.00990508 0)
(0.969604 -0.00611885 0)
(0.969658 -0.00131697 0)
(0.996814 -0.00855181 0)
(0.994818 0.0134105 0)
(1.00999 -0.000901519 0)
(1.00978 -0.0114188 0)
(0.989551 -0.0290121 0)
(0.973557 -0.00942962 0)
(0.9783 0.00314998 0)
(0.988877 0.0142088 0)
(1.00383 0.0115727 0)
(1.01386 -0.0039268 0)
(1.01022 -0.0159487 0)
(0.99951 -0.0240197 0)
(0.992298 -0.0227151 0)
(0.986789 -0.0251814 0)
(0.980512 -0.0200626 0)
(0.978952 -0.0178036 0)
(0.975142 -0.0169911 0)
(0.969714 -0.00979419 0)
(0.970389 -0.00577585 0)
(0.970823 -0.0015027 0)
(0.996874 -0.00826776 0)
(0.995 0.0128235 0)
(1.00947 -0.000875671 0)
(1.0093 -0.01127 0)
(0.989724 -0.0277263 0)
(0.974564 -0.00944828 0)
(0.97909 0.00299864 0)
(0.989315 0.0130586 0)
(1.00324 0.0108051 0)
(1.01295 -0.00405432 0)
(1.00947 -0.015529 0)
(0.999318 -0.0230275 0)
(0.99235 -0.0222885 0)
(0.987101 -0.024257 0)
(0.981123 -0.0197839 0)
(0.979313 -0.0172611 0)
(0.975842 -0.0163397 0)
(0.970711 -0.00968715 0)
(0.971168 -0.00547461 0)
(0.971931 -0.00165799 0)
(0.99695 -0.00797433 0)
(0.995167 0.0122198 0)
(1.00897 -0.000835185 0)
(1.00881 -0.0111248 0)
(0.989927 -0.0264322 0)
(0.975569 -0.00946082 0)
(0.97987 0.00283165 0)
(0.989727 0.0119371 0)
(1.00265 0.0100193 0)
(1.01202 -0.00415251 0)
(1.00874 -0.0151299 0)
(0.999102 -0.0220498 0)
(0.992409 -0.0218185 0)
(0.987402 -0.0233753 0)
(0.981731 -0.0194359 0)
(0.979706 -0.0167464 0)
(0.976538 -0.0156867 0)
(0.97172 -0.00957609 0)
(0.97195 -0.00521902 0)
(0.972982 -0.00178065 0)
(0.997041 -0.00767125 0)
(0.99532 0.0115995 0)
(1.00847 -0.000778584 0)
(1.00832 -0.0109822 0)
(0.990153 -0.0251384 0)
(0.976575 -0.00946761 0)
(0.98064 0.00264374 0)
(0.990106 0.0108507 0)
(1.00206 0.00921272 0)
(1.01107 -0.00422432 0)
(1.00803 -0.0147478 0)
(0.998869 -0.0211005 0)
(0.99247 -0.0212939 0)
(0.987692 -0.022532 0)
(0.982329 -0.0190344 0)
(0.980127 -0.0162522 0)
(0.977227 -0.0150396 0)
(0.972732 -0.00945669 0)
(0.972745 -0.00501922 0)
(0.97398 -0.00186507 0)
(0.997147 -0.00735849 0)
(0.995462 0.0109636 0)
(1.00798 -0.000708491 0)
(1.00782 -0.0108405 0)
(0.990392 -0.0238488 0)
(0.977586 -0.0094654 0)
(0.981406 0.00242832 0)
(0.990451 0.00980795 0)
(1.00149 0.00838674 0)
(1.0101 -0.00427558 0)
(1.00732 -0.0143699 0)
(0.998629 -0.020188 0)
(0.992526 -0.0207174 0)
(0.987976 -0.0217198 0)
(0.982916 -0.0185924 0)
(0.980574 -0.0157692 0)
(0.977906 -0.0144053 0)
(0.973741 -0.00932139 0)
(0.973556 -0.00487279 0)
(0.974926 -0.00191409 0)
(0.997265 -0.00703695 0)
(0.995597 0.0103145 0)
(1.0075 -0.000624863 0)
(1.00733 -0.0107004 0)
(0.990637 -0.022568 0)
(0.978601 -0.00943804 0)
(0.982175 0.00218085 0)
(0.990768 0.00881166 0)
(1.00094 0.00754499 0)
(1.00914 -0.00431637 0)
(1.00664 -0.0139874 0)
(0.998389 -0.019323 0)
(0.992573 -0.0200981 0)
(0.988256 -0.0209283 0)
(0.983491 -0.018114 0)
(0.981046 -0.0152983 0)
(0.978576 -0.0137925 0)
(0.974739 -0.0091703 0)
(0.974386 -0.00477102 0)
(0.975827 -0.00194734 0)
(0.99739 -0.00670712 0)
(0.995731 0.00965401 0)
(1.00701 -0.000528043 0)
(1.00684 -0.0105581 0)
(0.990882 -0.0213032 0)
(0.979617 -0.0093849 0)
(0.982955 0.00190024 0)
(0.991066 0.00785818 0)
(1.00041 0.00669615 0)
(1.00819 -0.00436223 0)
(1.00596 -0.0135962 0)
(0.998154 -0.0185002 0)
(0.99261 -0.0194466 0)
(0.98853 -0.0201525 0)
(0.984057 -0.0176106 0)
(0.98154 -0.0148342 0)
(0.979242 -0.0132038 0)
(0.975724 -0.00900523 0)
(0.975234 -0.0047073 0)
(0.976687 -0.00197438 0)
(0.99752 -0.00636923 0)
(0.995868 0.00898398 0)
(1.00652 -0.000424451 0)
(1.00637 -0.0104095 0)
(0.991127 -0.0200632 0)
(0.980627 -0.00929483 0)
(0.983745 0.00158009 0)
(0.991356 0.00695854 0)
(0.999917 0.00585675 0)
(1.00727 -0.0044147 0)
(1.0053 -0.0131905 0)
(0.997926 -0.0177125 0)
(0.992638 -0.0187802 0)
(0.9888 -0.0193858 0)
(0.984613 -0.0170797 0)
(0.982057 -0.0143683 0)
(0.979904 -0.0126439 0)
(0.976694 -0.00882339 0)
(0.976101 -0.00467802 0)
(0.977515 -0.00199799 0)
(0.997652 -0.00602468 0)
(0.996012 0.00830608 0)
(1.00603 -0.000311771 0)
(1.0059 -0.0102527 0)
(0.991373 -0.0188572 0)
(0.981624 -0.0091666 0)
(0.984545 0.00121734 0)
(0.991645 0.006108 0)
(0.999452 0.00503522 0)
(1.00637 -0.0044739 0)
(1.00466 -0.0127793 0)
(0.997704 -0.0169556 0)
(0.99266 -0.0181 0)
(0.989066 -0.0186338 0)
(0.985161 -0.0165213 0)
(0.982591 -0.0139022 0)
(0.980565 -0.0121151 0)
(0.977646 -0.00862792 0)
(0.976984 -0.00467901 0)
(0.978318 -0.00202667 0)
(0.997784 -0.00567406 0)
(0.996166 0.00762424 0)
(1.00554 -0.000193858 0)
(1.00544 -0.0100819 0)
(0.991624 -0.0176905 0)
(0.982604 -0.00899717 0)
(0.985348 0.000823439 0)
(0.991935 0.00528821 0)
(0.999018 0.00423311 0)
(1.0055 -0.00454671 0)
(1.00404 -0.0123751 0)
(0.99749 -0.0162189 0)
(0.992676 -0.0174121 0)
(0.989328 -0.0178975 0)
(0.985701 -0.0159499 0)
(0.983138 -0.0134347 0)
(0.981223 -0.0116119 0)
(0.978577 -0.00842383 0)
(0.977879 -0.00470118 0)
(0.979107 -0.00207568 0)
(0.997914 -0.00531914 0)
(0.99633 0.00694308 0)
(1.00506 -7.63553e-05 0)
(1.005 -0.00989476 0)
(0.991881 -0.0165702 0)
(0.983562 -0.00877988 0)
(0.98615 0.000406212 0)
(0.992226 0.00450556 0)
(0.998611 0.00346453 0)
(1.00467 -0.00462729 0)
(1.00345 -0.0119792 0)
(0.997284 -0.015499 0)
(0.99269 -0.016722 0)
(0.989588 -0.0171824 0)
(0.986234 -0.015368 0)
(0.983697 -0.0129578 0)
(0.981878 -0.0111313 0)
(0.979484 -0.00821617 0)
(0.978779 -0.0047266 0)
(0.979888 -0.00215392 0)
(0.998042 -0.00496209 0)
(0.996505 0.00626609 0)
(1.00458 3.9194e-05 0)
(1.00457 -0.00968706 0)
(0.992149 -0.015505 0)
(0.984496 -0.00852894 0)
(0.986946 -2.75089e-05 0)
(0.992518 0.00375464 0)
(0.998229 0.00273481 0)
(1.00387 -0.00471054 0)
(1.00288 -0.0115977 0)
(0.997089 -0.0148002 0)
(0.992699 -0.0160222 0)
(0.989845 -0.0164919 0)
(0.986764 -0.0147868 0)
(0.984261 -0.0124713 0)
(0.982526 -0.0106724 0)
(0.980367 -0.00800778 0)
(0.979678 -0.0047482 0)
(0.980668 -0.00225702 0)
(0.998167 -0.00460288 0)
(0.996691 0.00559542 0)
(1.00412 0.000147254 0)
(1.00416 -0.00945355 0)
(0.992426 -0.0144988 0)
(0.985403 -0.00824741 0)
(0.98773 -0.000463921 0)
(0.992812 0.00302647 0)
(0.997872 0.00204213 0)
(1.0031 -0.00479374 0)
(1.00233 -0.0112327 0)
(0.996907 -0.0141338 0)
(0.992706 -0.0153116 0)
(0.990099 -0.015814 0)
(0.987293 -0.0142234 0)
(0.984831 -0.011976 0)
(0.983164 -0.0102213 0)
(0.981223 -0.00780306 0)
(0.980568 -0.00476806 0)
(0.981449 -0.00238077 0)
(0.998289 -0.00424502 0)
(0.996888 0.00493844 0)
(1.00367 0.000243614 0)
(1.00376 -0.00919196 0)
(0.992714 -0.0135565 0)
(0.986281 -0.00793645 0)
(0.988499 -0.000892922 0)
(0.993107 0.00231528 0)
(0.997541 0.00139662 0)
(1.00236 -0.00487396 0)
(1.00181 -0.010883 0)
(0.996741 -0.0135058 0)
(0.992711 -0.0145927 0)
(0.990346 -0.0151455 0)
(0.987823 -0.0136834 0)
(0.98541 -0.0114847 0)
(0.983786 -0.00976847 0)
(0.982048 -0.00760346 0)
(0.981444 -0.00478567 0)
(0.982227 -0.0025135 0)
(0.998406 -0.0038905 0)
(0.997094 0.00429815 0)
(1.00324 0.000327021 0)
(1.00338 -0.00890008 0)
(0.993013 -0.0126812 0)
(0.987129 -0.00760401 0)
(0.989248 -0.00130682 0)
(0.993406 0.00162278 0)
(0.997236 0.000791429 0)
(1.00167 -0.00494256 0)
(1.00132 -0.0105486 0)
(0.996594 -0.012917 0)
(0.992716 -0.0138777 0)
(0.990581 -0.0144707 0)
(0.988354 -0.0131711 0)
(0.986001 -0.0110209 0)
(0.984393 -0.00931534 0)
(0.982838 -0.00739331 0)
(0.982303 -0.00480435 0)
(0.983 -0.00264624 0)
(0.998519 -0.00354064 0)
(0.997308 0.00367807 0)
(1.00282 0.000392443 0)
(1.00301 -0.00857303 0)
(0.993324 -0.0118721 0)
(0.987945 -0.00725627 0)
(0.989971 -0.00169353 0)
(0.993708 0.00095431 0)
(0.996961 0.0002288 0)
(1.001 -0.00499142 0)
(1.00085 -0.0102282 0)
(0.996469 -0.0123716 0)
(0.992729 -0.013179 0)
(0.9908 -0.0137886 0)
(0.988879 -0.0126804 0)
(0.986609 -0.0105942 0)
(0.984992 -0.00886908 0)
(0.983587 -0.00716538 0)
(0.983139 -0.00481975 0)
(0.983765 -0.0027745 0)
(0.998627 -0.00319851 0)
(0.997529 0.00308459 0)
(1.00243 0.000431581 0)
(1.00265 -0.00821152 0)
(0.993647 -0.011125 0)
(0.98873 -0.00690326 0)
(0.990666 -0.00205348 0)
(0.994013 0.000302419 0)
(0.996717 -0.000296039 0)
(1.00037 -0.00502229 0)
(1.00041 -0.00991131 0)
(0.996369 -0.011869 0)
(0.992751 -0.0125052 0)
(0.991002 -0.013107 0)
(0.989393 -0.0121938 0)
(0.987235 -0.0102152 0)
(0.985587 -0.008449 0)
(0.984295 -0.00691565 0)
(0.983947 -0.00482906 0)
(0.984518 -0.00289712 0)
(0.998731 -0.00286675 0)
(0.997755 0.00252361 0)
(1.00206 0.000442506 0)
(1.00232 -0.00781897 0)
(0.993979 -0.0104391 0)
(0.989484 -0.0065489 0)
(0.991328 -0.0023739 0)
(0.994322 -0.000334494 0)
(0.996508 -0.000796755 0)
(0.999779 -0.00503477 0)
(0.999989 -0.00959238 0)
(0.996293 -0.0114037 0)
(0.992789 -0.0118659 0)
(0.991188 -0.0124204 0)
(0.989884 -0.0117019 0)
(0.987874 -0.00988052 0)
(0.986192 -0.00807133 0)
(0.984962 -0.00664614 0)
(0.984719 -0.00482406 0)
(0.985256 -0.00301878 0)
(0.998829 -0.00254808 0)
(0.997986 0.00199997 0)
(1.00173 0.000420609 0)
(1.00199 -0.0073889 0)
(0.994318 -0.00981446 0)
(0.99021 -0.00620087 0)
(0.991952 -0.00263974 0)
(0.994632 -0.000942836 0)
(0.996338 -0.00127813 0)
(0.999225 -0.0050323 0)
(0.999591 -0.00927225 0)
(0.996243 -0.0109743 0)
(0.99285 -0.0112688 0)
(0.99136 -0.0117386 0)
(0.990344 -0.0112007 0)
(0.988519 -0.00957714 0)
(0.986813 -0.00774805 0)
(0.985598 -0.00636722 0)
(0.98545 -0.00478968 0)
(0.985977 -0.00312594 0)
(0.998922 -0.00224613 0)
(0.998217 0.00152262 0)
(1.00142 0.000355623 0)
(1.00168 -0.00691812 0)
(0.994662 -0.0092425 0)
(0.990911 -0.00587929 0)
(0.992537 -0.00284746 0)
(0.994939 -0.00150633 0)
(0.996211 -0.00173985 0)
(0.998715 -0.00501756 0)
(0.999212 -0.00894206 0)
(0.996217 -0.0105751 0)
(0.992941 -0.0107224 0)
(0.991525 -0.0110747 0)
(0.990767 -0.0106907 0)
(0.989157 -0.00929073 0)
(0.987456 -0.0074849 0)
(0.986213 -0.00609391 0)
(0.986138 -0.00471605 0)
(0.986673 -0.0032148 0)
(0.99901 -0.00196281 0)
(0.998446 0.00109701 0)
(1.00115 0.000249689 0)
(1.00139 -0.00641152 0)
(0.995004 -0.00871464 0)
(0.991591 -0.00559395 0)
(0.993084 -0.00300145 0)
(0.995239 -0.00201765 0)
(0.996127 -0.00218597 0)
(0.998251 -0.00499811 0)
(0.998849 -0.00859953 0)
(0.996208 -0.0101916 0)
(0.993065 -0.010221 0)
(0.99169 -0.0104368 0)
(0.991151 -0.0101696 0)
(0.989777 -0.00900404 0)
(0.988121 -0.00727295 0)
(0.986825 -0.0058393 0)
(0.986782 -0.004603 0)
(0.987338 -0.00328741 0)
(0.999092 -0.00170134 0)
(0.99867 0.000726236 0)
(1.00092 0.000109153 0)
(1.00111 -0.00588748 0)
(0.995338 -0.00821662 0)
(0.992251 -0.00535418 0)
(0.993593 -0.00311726 0)
(0.995527 -0.00246468 0)
(0.996087 -0.00261222 0)
(0.997843 -0.00498615 0)
(0.998502 -0.00824866 0)
(0.996212 -0.00981026 0)
(0.993224 -0.0097582 0)
(0.991865 -0.00983485 0)
(0.991498 -0.00963897 0)
(0.990366 -0.00870369 0)
(0.988804 -0.00709958 0)
(0.987446 -0.00561767 0)
(0.987385 -0.00445725 0)
(0.987969 -0.00334083 0)
(0.999169 -0.00146359 0)
(0.998883 0.000415979 0)
(1.00073 -6.31122e-05 0)
(1.00085 -0.0053716 0)
(0.995657 -0.00772206 0)
(0.992892 -0.00517038 0)
(0.994073 -0.00320863 0)
(0.9958 -0.00283837 0)
(0.996086 -0.00300173 0)
(0.997494 -0.0049873 0)
(0.998177 -0.00789841 0)
(0.996222 -0.00942433 0)
(0.993413 -0.00933097 0)
(0.992056 -0.00927109 0)
(0.991813 -0.00911589 0)
(0.990915 -0.0083818 0)
(0.989496 -0.00695096 0)
(0.988093 -0.00544913 0)
(0.987956 -0.00428238 0)
(0.98856 -0.0033773 0)
(0.999241 -0.00125113 0)
(0.999083 0.00016719 0)
(1.00058 -0.000255892 0)
(1.00062 -0.00488522 0)
(0.995957 -0.00721745 0)
(0.993511 -0.00502656 0)
(0.994527 -0.00328622 0)
(0.996057 -0.00313377 0)
(0.996118 -0.00334402 0)
(0.997205 -0.00499961 0)
(0.99788 -0.00756331 0)
(0.996237 -0.00903477 0)
(0.993629 -0.00892991 0)
(0.992267 -0.00874642 0)
(0.992104 -0.00860579 0)
(0.991419 -0.00803498 0)
(0.990182 -0.00679941 0)
(0.988776 -0.00533937 0)
(0.988507 -0.00410906 0)
(0.989101 -0.00338615 0)
(0.999308 -0.00106596 0)
(0.999265 -1.71096e-05 0)
(1.00045 -0.000461851 0)
(1.00041 -0.00444495 0)
(0.996234 -0.00669169 0)
(0.994103 -0.00490221 0)
(0.994962 -0.0033635 0)
(0.996298 -0.0033582 0)
(0.996175 -0.00362893 0)
(0.996975 -0.00501097 0)
(0.997617 -0.00725254 0)
(0.996256 -0.00864765 0)
(0.993867 -0.00854936 0)
(0.9925 -0.00827106 0)
(0.992378 -0.00811215 0)
(0.991878 -0.00767361 0)
(0.990841 -0.00662125 0)
(0.989491 -0.0052782 0)
(0.989063 -0.00397933 0)
(0.989586 -0.00334291 0)
(0.999371 -0.000906848 0)
(0.999427 -0.00014399 0)
(1.00036 -0.000667585 0)
(1.00025 -0.00406799 0)
(0.996488 -0.00614219 0)
(0.99466 -0.00477666 0)
(0.99538 -0.0034499 0)
(0.996527 -0.0035328 0)
(0.996251 -0.00385146 0)
(0.996797 -0.00501531 0)
(0.99739 -0.00696236 0)
(0.996286 -0.00826488 0)
(0.994122 -0.00818477 0)
(0.992758 -0.00784337 0)
(0.992643 -0.00764288 0)
(0.992298 -0.00730974 0)
(0.991458 -0.00641007 0)
(0.990218 -0.00524503 0)
(0.989651 -0.00391974 0)
(0.990025 -0.00326347 0)
(0.999428 -0.000772432 0)
(0.999568 -0.000228154 0)
(1.00029 -0.000856795 0)
(1.00012 -0.00375362 0)
(0.996723 -0.00559799 0)
(0.995175 -0.00463377 0)
(0.99578 -0.00354298 0)
(0.99675 -0.00366753 0)
(0.996345 -0.00400573 0)
(0.996668 -0.00500474 0)
(0.997201 -0.00668602 0)
(0.996326 -0.0078931 0)
(0.994392 -0.00783877 0)
(0.993041 -0.00745938 0)
(0.992906 -0.00720622 0)
(0.992684 -0.00694921 0)
(0.992023 -0.00617562 0)
(0.990927 -0.00519751 0)
(0.990283 -0.00393333 0)
(0.990443 -0.0031926 0)
(0.999482 -0.000661625 0)
(0.999687 -0.000278769 0)
(1.00023 -0.00102008 0)
(1.00002 -0.00349187 0)
(0.996943 -0.00508693 0)
(0.995642 -0.00446112 0)
(0.996163 -0.00363164 0)
(0.996973 -0.00377804 0)
(0.996455 -0.00410088 0)
(0.996579 -0.00496024 0)
(0.997047 -0.00641634 0)
(0.996373 -0.00753487 0)
(0.994672 -0.00751211 0)
(0.993349 -0.00711512 0)
(0.993175 -0.00680576 0)
(0.993044 -0.0065989 0)
(0.992541 -0.00593758 0)
(0.991591 -0.00511144 0)
(0.990941 -0.00398759 0)
(0.990883 -0.0031675 0)
(0.99953 -0.000570375 0)
(0.999785 -0.000305503 0)
(1.00018 -0.00114827 0)
(0.999967 -0.0032819 0)
(0.997153 -0.00462239 0)
(0.996062 -0.00424479 0)
(0.99652 -0.00369513 0)
(0.9972 -0.00388844 0)
(0.996584 -0.004163 0)
(0.996528 -0.00487853 0)
(0.996921 -0.00614566 0)
(0.996425 -0.00718533 0)
(0.994956 -0.00720116 0)
(0.99368 -0.00680403 0)
(0.993455 -0.00644139 0)
(0.993382 -0.0062592 0)
(0.993018 -0.00570454 0)
(0.992202 -0.00500003 0)
(0.991598 -0.00403051 0)
(0.991364 -0.00319821 0)
(0.999574 -0.000495171 0)
(0.999864 -0.000318689 0)
(1.00014 -0.00123277 0)
(0.999941 -0.00311444 0)
(0.997361 -0.00421223 0)
(0.996436 -0.00400062 0)
(0.996843 -0.003715 0)
(0.997428 -0.00399543 0)
(0.996741 -0.00420695 0)
(0.996515 -0.00477149 0)
(0.996822 -0.00586204 0)
(0.996477 -0.00683899 0)
(0.995239 -0.00690601 0)
(0.994032 -0.00652856 0)
(0.993751 -0.00611626 0)
(0.993703 -0.00593686 0)
(0.993457 -0.00546934 0)
(0.992764 -0.00487641 0)
(0.992231 -0.00404344 0)
(0.991877 -0.00325367 0)
(0.999613 -0.000434299 0)
(0.999927 -0.000322675 0)
(1.00009 -0.00127396 0)
(0.99994 -0.00297689 0)
(0.997571 -0.00385892 0)
(0.996771 -0.00375024 0)
(0.997126 -0.00367961 0)
(0.997651 -0.00407787 0)
(0.996925 -0.00425347 0)
(0.996543 -0.00465802 0)
(0.996747 -0.00556492 0)
(0.996522 -0.00648501 0)
(0.995509 -0.00660971 0)
(0.994399 -0.00628322 0)
(0.994068 -0.00583146 0)
(0.994016 -0.00564009 0)
(0.993861 -0.00523186 0)
(0.993277 -0.0047408 0)
(0.99283 -0.00403702 0)
(0.992409 -0.00331207 0)
(0.999646 -0.000382044 0)
(0.999977 -0.000324063 0)
(1.00005 -0.00127495 0)
(0.999958 -0.00285752 0)
(0.997786 -0.0035629 0)
(0.997075 -0.00350774 0)
(0.997368 -0.0035902 0)
(0.997857 -0.00411165 0)
(0.997135 -0.00431085 0)
(0.99662 -0.00455647 0)
(0.996701 -0.00527553 0)
(0.99656 -0.00612281 0)
(0.995756 -0.00630044 0)
(0.994766 -0.00605143 0)
(0.994405 -0.00558774 0)
(0.994328 -0.00537454 0)
(0.994237 -0.0050043 0)
(0.993737 -0.00458072 0)
(0.993384 -0.00400243 0)
(0.992951 -0.00337185 0)
(0.999675 -0.000336047 0)
(1.00002 -0.000326836 0)
(0.999999 -0.00123591 0)
(0.999986 -0.00274269 0)
(0.998007 -0.00332074 0)
(0.997357 -0.00328326 0)
(0.997575 -0.00346834 0)
(0.998035 -0.00408607 0)
(0.997357 -0.00435515 0)
(0.996746 -0.00448685 0)
(0.99669 -0.00500519 0)
(0.996596 -0.00575934 0)
(0.995975 -0.005981 0)
(0.99512 -0.00581673 0)
(0.994754 -0.005376 0)
(0.994646 -0.00513917 0)
(0.994601 -0.00480076 0)
(0.994158 -0.00441672 0)
(0.993874 -0.0039255 0)
(0.993488 -0.00342694 0)
(0.999698 -0.000293374 0)
(1.00005 -0.000333138 0)
(0.999949 -0.00116661 0)
(1.00002 -0.00261543 0)
(0.998232 -0.00312478 0)
(0.997625 -0.00308053 0)
(0.997752 -0.00333317 0)
(0.998183 -0.00400619 0)
(0.997578 -0.00435775 0)
(0.996919 -0.0044544 0)
(0.996728 -0.0047709 0)
(0.996634 -0.00540755 0)
(0.996166 -0.00565058 0)
(0.99545 -0.00557128 0)
(0.995105 -0.0051785 0)
(0.994965 -0.00492994 0)
(0.994952 -0.0046154 0)
(0.994561 -0.00427467 0)
(0.994302 -0.00381418 0)
(0.993986 -0.00344354 0)
(0.999718 -0.000252512 0)
(1.00008 -0.000339889 0)
(0.999899 -0.00108415 0)
(1.00005 -0.00246127 0)
(0.998457 -0.00296484 0)
(0.997884 -0.00291132 0)
(0.99791 -0.00318925 0)
(0.998304 -0.00388346 0)
(0.997779 -0.00430656 0)
(0.997122 -0.00442402 0)
(0.996817 -0.00459423 0)
(0.996689 -0.00508633 0)
(0.996332 -0.00531453 0)
(0.995748 -0.00531325 0)
(0.995448 -0.00498342 0)
(0.995286 -0.00474172 0)
(0.995288 -0.00443748 0)
(0.994953 -0.00415092 0)
(0.994696 -0.00370654 0)
(0.994418 -0.00340232 0)
(0.999733 -0.000213943 0)
(1.00011 -0.000344274 0)
(0.999855 -0.000999656 0)
(1.00007 -0.00228029 0)
(0.998674 -0.00282227 0)
(0.998137 -0.00278403 0)
(0.998055 -0.00304521 0)
(0.998403 -0.00373577 0)
(0.997959 -0.00420712 0)
(0.997337 -0.00436812 0)
(0.996953 -0.00445901 0)
(0.996776 -0.00481337 0)
(0.996484 -0.00499134 0)
(0.99601 -0.00503715 0)
(0.995769 -0.00478377 0)
(0.995604 -0.00456752 0)
(0.995607 -0.00427081 0)
(0.995324 -0.00402917 0)
(0.99508 -0.00362337 0)
(0.994792 -0.00332772 0)
(0.999745 -0.000177456 0)
(1.00014 -0.00034679 0)
(0.99982 -0.000918264 0)
(1.00008 -0.0020868 0)
(0.998872 -0.00267582 0)
(0.998387 -0.00268835 0)
(0.998199 -0.00290738 0)
(0.998488 -0.00357401 0)
(0.998114 -0.0040668 0)
(0.997548 -0.00428179 0)
(0.99712 -0.00433138 0)
(0.996897 -0.00459018 0)
(0.996639 -0.00470696 0)
(0.99624 -0.00475538 0)
(0.996058 -0.00456674 0)
(0.995911 -0.00439882 0)