/*--------------------------------*- C++ -*----------------------------------*\
| =========                 |                                                 |
| \\      /  F ield         | OpenFOAM: The Open Source CFD Toolbox           |
|  \\    /   O peration     | Version:  v1912                                 |
|   \\  /    A nd           | Website:  www.openfoam.com                      |
|    \\/     M anipulation  |                                                 |
\*---------------------------------------------------------------------------*/
FoamFile
{
    version     2.0;
    format      ascii;
    class       volScalarField;
    location    "6.1";
    object      p;
}
// * * * * * * * * * * * * * * * * * * * * * * * * * * * * * * * * * * * * * //

dimensions      [0 2 -2 0 0 0 0];


internalField   nonuniform List<scalar> 
9600
(
8.52695e-11
-0.000817931
-0.000577248
0.000923448
0.00297337
0.0026222
-0.000503366
0.00229659
0.000289961
0.00369076
0.00344398
0.00515502
0.00699715
0.00763863
0.00692563
0.00637376
0.0051767
0.00857819
0.00909696
0.0133261
-2.67557e-06
-0.000789885
-0.000609798
0.000928103
0.00296713
0.00262034
-0.000488741
0.00230773
0.000290434
0.00369039
0.00344984
0.00514461
0.00700419
0.0076449
0.00695572
0.00637095
0.00518204
0.00828729
0.00914198
0.0130166
-2.36254e-06
-0.000765822
-0.000644538
0.000957108
0.00296003
0.00263161
-0.000458299
0.0023104
0.00029454
0.00369163
0.00345402
0.00514612
0.00701058
0.00766453
0.00699112
0.00634984
0.00520382
0.00816602
0.00916573
0.0126718
-1.10264e-06
-0.00074625
-0.000666311
0.00101945
0.00294527
0.00265111
-0.000402088
0.00230698
0.000310443
0.00369471
0.00345695
0.00515895
0.00700787
0.00768705
0.0070334
0.00632766
0.005249
0.00802446
0.00915634
0.0123291
-5.83475e-07
-0.000729128
-0.000678662
0.00110101
0.0029247
0.00267997
-0.000319884
0.00230181
0.000339805
0.00369851
0.00345789
0.00517117
0.00700062
0.00770999
0.00708288
0.00630896
0.00530753
0.00789221
0.00912218
0.0119936
-2.05689e-06
-0.000712635
-0.000683262
0.00119009
0.00290277
0.00271502
-0.000215185
0.00229792
0.000379734
0.00370281
0.00345655
0.00517975
0.00699516
0.00773089
0.00713969
0.00629717
0.0053796
0.00776973
0.00906657
0.0116707
-6.25675e-06
-0.000694386
-0.000682508
0.00128391
0.00288483
0.00275379
-9.55876e-05
0.00229432
0.000424465
0.00370745
0.0034538
0.00518403
0.00699462
0.00774867
0.00720313
0.00629419
0.00546391
0.00762272
0.00899527
0.0113663
-1.27966e-05
-0.000671911
-0.000677924
0.00138323
0.00287077
0.0027936
3.27669e-05
0.00228852
0.000468201
0.00371108
0.00345018
0.00518337
0.00700091
0.00776164
0.00727055
0.00630046
0.00555895
0.00753951
0.00891375
0.011078
-2.04515e-05
-0.000643504
-0.00066906
0.00148881
0.00285659
0.00283232
0.00016609
0.00227858
0.000507542
0.00371165
0.00344626
0.00517732
0.00700987
0.00776704
0.00733817
0.00631503
0.00566234
0.00748025
0.00882416
0.0108014
-2.79484e-05
-0.000608816
-0.000653167
0.00160059
0.00283676
0.00286821
0.000303834
0.00226485
0.000543059
0.00370843
0.00344352
0.00516597
0.00701409
0.00776165
0.00740215
0.00633678
0.00576984
0.00744417
0.0087275
0.0105355
-3.44871e-05
-0.000568546
-0.000626859
0.00171709
0.00280685
0.00289965
0.000446031
0.00224922
0.00057927
0.00370279
0.00344502
0.0051506
0.00701156
0.00774276
0.0074592
0.00636476
0.005876
0.00742771
0.00862568
0.0102795
-3.98058e-05
-0.000523885
-0.000587935
0.00183565
0.0027646
0.00292552
0.000592546
0.00223403
0.000622484
0.00369803
0.0034554
0.00513438
0.0069992
0.00770848
0.00750708
0.00639837
0.00597587
0.00742576
0.00852016
0.01003
-4.3978e-05
-0.000476008
-0.000536182
0.00195319
0.0027101
0.00294525
0.000742575
0.00222075
0.000677641
0.00369693
0.00347956
0.00512133
0.00697598
0.0076583
0.00754483
0.00643725
0.00606599
0.00743285
0.00841217
0.00978378
-4.71755e-05
-0.000425646
-0.000473061
0.00206713
0.00264561
0.00295881
0.000895131
0.00221013
0.00074659
0.00370508
0.00352059
0.00511398
0.00694276
0.00759353
0.00757245
0.00648129
0.00614429
0.00744381
0.00830445
0.00954036
-4.95283e-05
-0.000373099
-0.00040084
0.00217612
0.00257458
0.00296643
0.00104937
0.00220256
0.000828312
0.00372039
0.00357853
0.0051124
0.00690187
0.00751738
0.00759018
0.00653055
0.0062105
0.00745378
0.00820041
0.00930068
-5.10659e-05
-0.000318448
-0.000321742
0.00228021
0.00250059
0.00296845
0.00120473
0.00219829
0.000919971
0.00374156
0.00365105
0.00511481
0.006856
0.00743388
0.00759863
0.00658485
0.00626528
0.00745891
0.00808114
0.00906577
-5.17468e-05
-0.000261666
-0.000237487
0.00238007
0.00242672
0.00296512
0.00136083
0.00219754
0.0010184
0.00376685
0.00373458
0.0051189
0.00680726
0.00734704
0.00759849
0.00664353
0.00630986
0.00745684
0.00799357
0.00883652
-5.14715e-05
-0.000202709
-0.000149259
0.00247619
0.00235542
0.00295668
0.00151726
0.00220053
0.00112096
0.0037949
0.00382554
0.00512262
0.00675701
0.0072603
0.00759021
0.00670563
0.00634609
0.00744558
0.00791397
0.00861398
-5.00816e-05
-0.000141585
-5.78559e-05
0.00256873
0.00228861
0.0029434
0.00167353
0.00220749
0.00122579
0.00382491
0.00392111
0.00512474
0.006706
0.00717642
0.00757415
0.00676976
0.00637574
0.00742359
0.00784166
0.00840009
-4.73848e-05
-7.83579e-05
3.62015e-05
0.00265764
0.00222774
0.00292556
0.00182917
0.00221861
0.00133167
0.00385656
0.00401938
0.00512495
0.00665435
0.00709714
0.00755083
0.00683449
0.00640026
0.00739011
0.00777535
0.00819715
-4.31599e-05
-1.31305e-05
0.000132592
0.00274272
0.00217382
0.00290335
0.00198368
0.00223415
0.00143781
0.00388986
0.00411911
0.00512353
0.00660178
0.00702326
0.00752082
0.00689827
0.00642135
0.00734514
0.00771295
0.00800771
-3.71614e-05
5.39647e-05
0.000231133
0.00282369
0.00212766
0.00287696
0.00213641
0.00225444
0.00154355
0.00392501
0.00421944
0.00512101
0.00654789
0.00695521
0.00748466
0.00695931
0.00644089
0.00728943
0.00765238
0.00783453
-2.91283e-05
0.000122745
0.000331751
0.00290018
0.00208983
0.00284672
0.00228657
0.0022798
0.00164826
0.00396229
0.00431976
0.00511795
0.00649228
0.00689315
0.00744308
0.00701579
0.00646018
0.00722419
0.00759213
0.00768027
-1.87645e-05
0.000192981
0.000434408
0.00297189
0.00206077
0.00281316
0.00243333
0.00231062
0.00175134
0.00400192
0.0044196
0.00511495
0.00643453
0.00683689
0.00739701
0.0070662
0.00648008
0.00715092
0.00753163
0.00754751
-5.73919e-06
0.00026446
0.000539041
0.00303856
0.00204076
0.00277683
0.00257587
0.00234733
0.00185224
0.00404406
0.00451861
0.00511256
0.00637454
0.00678595
0.00734724
0.0071093
0.00650172
0.00707114
0.00750662
0.00743917
1.02682e-05
0.00033697
0.000645622
0.00310009
0.00202996
0.00273838
0.00271336
0.00239034
0.00195043
0.00408881
0.00461642
0.00511097
0.00631241
0.00673988
0.00729481
0.0071439
0.00652601
0.00698596
0.00745359
0.00735603
2.95771e-05
0.000410232
0.000754158
0.00315648
0.00202844
0.0026987
0.002845
0.00244007
0.00204557
0.00413608
0.00471297
0.0051104
0.00624828
0.00669802
0.00724068
0.00716882
0.0065535
0.00689859
0.00738755
0.00729566
5.25621e-05
0.000483927
0.000864587
0.00320785
0.00203614
0.0026588
0.00297
0.00249684
0.00213741
0.00418561
0.00480841
0.00511099
0.0061825
0.00665989
0.0071857
0.00718326
0.00658391
0.00681302
0.00730458
0.00725229
7.96371e-05
0.000557795
0.000976784
0.00325443
0.0020529
0.00261972
0.00308767
0.00256097
0.00222579
0.00423695
0.00490293
0.00511263
0.00611541
0.00662546
0.00713101
0.00718688
0.00661593
0.00673279
0.00720749
0.00721769
0.000111209
0.000631604
0.00109058
0.0032965
0.00207844
0.00258256
0.0031973
0.00263263
0.00231087
0.0042894
0.0049969
0.00511545
0.00604672
0.00659467
0.007078
0.00717972
0.00664828
0.00666108
0.00710137
0.00718295
0.000147689
0.000705122
0.00120573
0.0033344
0.00211236
0.00254853
0.00329842
0.00271164
0.00239296
0.00434215
0.00509092
0.00511951
0.00597564
0.0065674
0.00702823
0.00716186
0.00667951
0.00660085
0.00699758
0.00714216
0.000189492
0.000778183
0.00132187
0.00336853
0.00215411
0.00251871
0.00339077
0.0027978
0.0024725
0.00439406
0.00518551
0.00512546
0.00590136
0.00654349
0.00698381
0.00713364
0.006707
0.00655398
0.00688373
0.00709226
0.000237034
0.000850646
0.00143855
0.00339934
0.00220314
0.00249403
0.00347398
0.00289087
0.00255035
0.00444374
0.00528092
0.00513427
0.00585389
0.00652229
0.00694763
0.00709668
0.00672738
0.00652165
0.00677189
0.00703077
0.000290734
0.000922428
0.00155513
0.00342734
0.00225896
0.00247553
0.00354787
0.00299024
0.00262738
0.00448993
0.0053773
0.00514666
0.00577095
0.0065015
0.00692236
0.00705362
0.00673755
0.00650377
0.00667089
0.00695634
0.000350948
0.000993614
0.00167091
0.00345313
0.00232096
0.00246392
0.00361258
0.00309529
0.00270452
0.00453104
0.00547439
0.0051649
0.00568268
0.00647805
0.00690994
0.0070089
0.00673488
0.00649642
0.00658905
0.00687487
0.00041799
0.00106433
0.00178512
0.00347747
0.00238869
0.00245968
0.00366802
0.00320527
0.00278343
0.00456597
0.00557081
0.00519169
0.0055897
0.00644727
0.00691091
0.00696913
0.00671864
0.00649277
0.00653096
0.00679639
0.000492185
0.00113484
0.0018969
0.00350085
0.00246205
0.00246394
0.00371433
0.00331849
0.00286573
0.0045947
0.00566472
0.00522907
0.00549354
0.00640495
0.00692379
0.00693957
0.00669055
0.00648707
0.00649591
0.0067308
0.000573737
0.00120547
0.00200567
0.00352384
0.00254021
0.00247749
0.0037527
0.00343335
0.00295216
0.00461741
0.00575466
0.005278
0.00539609
0.00634835
0.00694655
0.00692462
0.00665319
0.00647364
0.00648013
0.0066902
0.000662852
0.00127653
0.00211063
0.00354729
0.00262291
0.00250036
0.00378389
0.00354881
0.00304384
0.00463436
0.00583848
0.00533982
0.00530081
0.00627274
0.00697359
0.00693073
0.00661225
0.00644787
0.00647856
0.00667859
0.000759636
0.00134851
0.00221129
0.0035714
0.00270971
0.00253376
0.00380868
0.00366284
0.00314236
0.00464691
0.00591269
0.00541408
0.00521479
0.00617599
0.00699425
0.00696172
0.0065769
0.00640518
0.00648846
0.00669865
0.000864022
0.00142184
0.00230752
0.00359697
0.00279939
0.00257773
0.00382942
0.00377344
0.00324718
0.00465752
0.00597591
0.00549802
0.00514263
0.0060607
0.00699881
0.00701107
0.00656056
0.00635743
0.00649054
0.00672959
0.000975953
0.001497
0.00239893
0.00362455
0.00289167
0.00263199
0.00384754
0.00388025
0.00335787
0.00466661
0.00602798
0.00559096
0.00508829
0.00592846
0.00698093
0.00706858
0.00655695
0.0063106
0.00651844
0.00680128
0.00109527
0.0015747
0.00248565
0.00365411
0.00298576
0.00269672
0.00386455
0.00398213
0.00347501
0.00467634
0.00606668
0.00568905
0.00505809
0.00578817
0.00693506
0.00712891
0.00655876
0.00624866
0.00654038
0.00700954
0.00122156
0.00165555
0.00256738
0.00368714
0.00308107
0.00276989
0.00388332
0.00407863
0.0035967
0.0046893
0.00609244
0.00578933
0.00505211
0.00565426
0.006862
0.00719122
0.00663349
0.00622754
0.00650368
0.00706713
0.00135427
0.00174043
0.00264452
0.00372275
0.00317789
0.00285075
0.00390403
0.00417079
0.00372319
0.0047056
0.00610572
0.00588933
0.0050736
0.0055329
0.00678003
0.00727148
0.00674188
0.00617514
0.00634945
0.0070378
0.00149297
0.00183037
0.00271683
0.00376198
0.00327748
0.00293748
0.00392703
0.00425938
0.0038534
0.00472789
0.00610722
0.00598492
0.00512477
0.00543153
0.00668435
0.0073418
0.00687396
0.00618093
0.00620808
0.00671193
0.00163665
0.00192625
0.00278465
0.00380486
0.00338014
0.00302894
0.00395353
0.0043442
0.00398643
0.00475731
0.00609861
0.00607597
0.0052025
0.00535412
0.00655837
0.00734238
0.00695947
0.00619636
0.00614688
0.00702122
0.00178447
0.00202927
0.00284919
0.00384834
0.00348813
0.00312661
0.00398111
0.00442444
0.00412452
0.00479512
0.00608031
0.0061574
0.00530377
0.00530462
0.00643746
0.00734272
0.00708582
0.00626953
0.00600094
0.00645767
0.00193567
0.00214038
0.00291079
0.00389212
0.00360311
0.00322946
0.00400912
0.00450182
0.0042652
0.00484163
0.0060574
0.00622633
0.00541812
0.00528598
0.00631443
0.00729123
0.00716897
0.00634367
0.00592564
0.00634531
0.00208927
0.00226006
0.00297178
0.00393361
0.00372338
0.00334025
0.00403872
0.00457248
0.00440784
0.00490135
0.00603123
0.00627583
0.00554058
0.00530101
0.00618504
0.00719358
0.0072272
0.00645592
0.00595429
0.00624274
0.00224445
0.00238893
0.00303412
0.00396986
0.00384856
0.0034627
0.00406886
0.00463423
0.00455274
0.00497307
0.00600421
0.00630939
0.00566372
0.00534062
0.00606747
0.00707726
0.00726862
0.00658808
0.0060087
0.00617468
0.00240022
0.0025268
0.00310064
0.0040009
0.00397597
0.00359697
0.00410237
0.00468673
0.00469445
0.00505687
0.00598408
0.00632728
0.00577572
0.00540641
0.00598051
0.00694754
0.00727515
0.00671698
0.00609649
0.00615383
0.00255601
0.00267318
0.00317485
0.00402648
0.00410016
0.00374504
0.00414392
0.00472683
0.00482814
0.00515357
0.00597387
0.00633252
0.00587792
0.00549532
0.00592369
0.0068124
0.00724913
0.00684019
0.00621789
0.00616645
0.00271148
0.00282708
0.0032589
0.00404731
0.00421772
0.00390581
0.00419668
0.0047563
0.00494821
0.00525877
0.00597974
0.0063353
0.00596705
0.00559206
0.00589704
0.00669042
0.00719994
0.00694388
0.00636026
0.00621678
0.00286634
0.00298689
0.00335478
0.00406673
0.00432345
0.00407453
0.00426783
0.00477984
0.00504775
0.00536713
0.00600412
0.00634112
0.0060441
0.00569447
0.00590287
0.00658751
0.00713077
0.00702002
0.00651116
0.00630658
0.0030208
0.00315061
0.00346349
0.00408865
0.0044146
0.00424642
0.00436126
0.00480375
0.00512381
0.00546812
0.00604483
0.00636129
0.00611757
0.00579576
0.00593055
0.00650653
0.007055
0.00707324
0.00665712
0.00642564
0.0031753
0.00331593
0.00358479
0.0041188
0.0044911
0.00441294
0.00447553
0.0048392
0.00518053
0.005551
0.00609635
0.00640019
0.00619291
0.00589237
0.00597619
0.00645459
0.00698218
0.00710577
0.00678884
0.00655655
0.00332999
0.00348138
0.00371787
0.00416059
0.00455401
0.00456719
0.00460724
0.00489463
0.00522731
0.00561293
0.00614513
0.0064532
0.00627928
0.0059908
0.00603488
0.00642942
0.0069143
0.00711856
0.00690821
0.00669332
0.00348529
0.00364549
0.00386067
0.0042161
0.00460672
0.00470588
0.00475031
0.00497097
0.00527753
0.00565875
0.00618202
0.00651224
0.0063788
0.00609722
0.00610085
0.0064257
0.00686026
0.00711864
0.00701797
0.00683234
0.00364145
0.0038074
0.00400987
0.0042869
0.00465452
0.00482792
0.00489722
0.00506627
0.00533943
0.00569918
0.0062068
0.00656583
0.00648551
0.00621453
0.00617731
0.00644211
0.0068259
0.00710809
0.00710977
0.00697304
0.0037986
0.00396659
0.0041616
0.00437354
0.00470434
0.00493388
0.00504175
0.00517685
0.00541439
0.00574464
0.00622357
0.0066068
0.00659167
0.00634298
0.00626762
0.00647596
0.00681257
0.00709386
0.00717926
0.00711375
0.00395682
0.00412293
0.00431265
0.00447494
0.00476211
0.00502596
0.00517882
0.00529754
0.0055017
0.00580074
0.0062408
0.00663464
0.0066888
0.00647971
0.00637311
0.00652445
0.00681985
0.00708886
0.00722869
0.00724303
0.0041156
0.00427669
0.00446109
0.00458861
0.00483166
0.00510852
0.00530473
0.00542376
0.00560019
0.00586823
0.00626705
0.00665442
0.00676966
0.00661799
0.00649544
0.00658744
0.00684357
0.00710094
0.00726722
0.00735086
0.0042742
0.00442833
0.0046064
0.0047112
0.00491419
0.00518656
0.00541857
0.00555109
0.00570789
0.00594672
0.00630578
0.00667496
0.00683467
0.00674715
0.00663304
0.00666988
0.00687821
0.00712761
0.00730871
0.00744053
0.00443199
0.00457825
0.00474845
0.00483892
0.00500911
0.00526528
0.00552158
0.00567492
0.00582225
0.00603598
0.00635724
0.00670277
0.0068906
0.00685952
0.00677583
0.00677676
0.00692614
0.0071624
0.00735835
0.00752141
0.00458829
0.00472669
0.00488743
0.00496846
0.00511438
0.00534842
0.00561654
0.00579268
0.00593976
0.00613442
0.00642182
0.00673982
0.00694524
0.00695891
0.00691004
0.00690351
0.00699681
0.00720395
0.00741274
0.0075989
0.00474229
0.00487351
0.00502372
0.0050977
0.00522752
0.00543769
0.00570637
0.00590329
0.00605801
0.00624019
0.00649924
0.00678763
0.00700137
0.0070529
0.00703215
0.00703579
0.00709312
0.00725876
0.00747176
0.00767629
0.00489323
0.0050183
0.0051575
0.00522507
0.00534569
0.00553411
0.0057944
0.00600615
0.00617414
0.00635184
0.00658786
0.00684792
0.00706023
0.00714516
0.00714984
0.00716281
0.00720701
0.0073329
0.00753727
0.00775628
0.00504033
0.00516041
0.00528893
0.00534995
0.00546547
0.00563618
0.005884
0.00610326
0.00628528
0.00646648
0.00668644
0.00692212
0.00712567
0.00723273
0.00726592
0.00728875
0.00732968
0.00742747
0.00761282
0.0078411
0.00518282
0.0052988
0.00541784
0.00547211
0.00558468
0.00574176
0.0059754
0.00619729
0.00639187
0.00658
0.00679123
0.00700983
0.00720584
0.00732138
0.00737653
0.00741487
0.00745571
0.00753542
0.00769861
0.00793108
0.00531978
0.005433
0.00554339
0.00559048
0.00570158
0.00584972
0.00606852
0.00628795
0.00649499
0.00669285
0.0068975
0.00710315
0.00729871
0.00742331
0.00749085
0.00754718
0.00759284
0.00765798
0.00779642
0.00802074
0.00545033
0.00556184
0.00566515
0.00570461
0.00581384
0.00595719
0.00616366
0.00637572
0.00659196
0.00680613
0.00701121
0.00720252
0.00739484
0.00753017
0.00760405
0.00767725
0.0077438
0.00780656
0.00792467
0.00813199
0.00557333
0.00568456
0.00578212
0.00581382
0.00592042
0.00606041
0.00625826
0.00646268
0.00668101
0.00691053
0.00713114
0.00732104
0.00750896
0.00765569
0.00773083
0.00779854
0.00787769
0.00794467
0.0080486
0.00824141
0.00568753
0.00579945
0.00589388
0.00591804
0.00602101
0.00615724
0.0063477
0.00654738
0.00676596
0.00699915
0.00723571
0.00744353
0.00764135
0.00781494
0.00791718
0.0079872
0.00807513
0.00813846
0.00820892
0.00835597
0.0057916
0.00590379
0.00599781
0.00601645
0.00611567
0.00624871
0.00643171
0.00662577
0.00684938
0.00708514
0.00731991
0.00753504
0.00773647
0.00792567
0.00806236
0.00815307
0.00827037
0.00838661
0.00848731
0.00863394
0.00588702
0.00599691
0.00608892
0.00610451
0.00620153
0.00633073
0.00650802
0.00669448
0.00692625
0.00719504
0.00747603
0.00774762
0.00798132
0.00816978
0.00832486
0.00839736
0.00844433
0.00849952
0.00854915
0.00863068
0.00597196
0.00607864
0.00616416
0.00617596
0.00627342
0.00639822
0.00655749
0.00671062
0.00688488
0.007092
0.00734315
0.00768106
0.00805471
0.00836105
0.00863789
0.00888934
0.00912487
0.00938282
0.00964111
0.00987463
0.00604049
0.00615911
0.00626017
0.00627158
0.0063599
0.00648248
0.00664759
0.00683599
0.00708174
0.00738961
0.00772119
0.00802211
0.00831642
0.0085343
0.0086882
0.00879072
0.00883114
0.00885741
0.00888064
0.00893057
0.00605412
0.00614007
0.00626724
0.00631755
0.00641419
0.00653259
0.00669669
0.00689464
0.00712815
0.00738613
0.00769878
0.00799997
0.00830995
0.00861131
0.0088644
0.00914484
0.00944905
0.00974728
0.0100085
0.0101968
0.00618436
0.00629854
0.00638364
0.00636845
0.0064331
0.00654174
0.00669607
0.00691029
0.00721232
0.00756428
0.00795984
0.00831644
0.00859878
0.00885794
0.00909113
0.00931677
0.0095299
0.00972661
0.0099055
0.0100346
0.01604
0.0111017
0.00453026
-0.000383178
-0.00148797
2.02586e-05
0.00216679
0.00377712
0.0046769
0.00538227
0.0060057
0.00639086
0.0067348
0.00719224
0.00762771
0.00801267
0.00847371
0.00899078
0.0094367
0.00985697
0.010351
0.0108532
0.0113165
0.0118044
0.0122872
0.0127105
0.0130962
0.0135105
0.0140192
0.0145643
0.0150462
0.0155043
0.0160365
0.0166015
0.0171142
0.0176198
0.0181509
0.0186653
0.019168
0.0196973
0.0202574
0.0208167
0.0213764
0.0219796
0.0226032
0.0232069
0.0238188
0.0244386
0.0250539
0.0256674
0.0262777
0.0269188
0.0276093
0.0282968
0.0289488
0.0296504
0.0303908
0.0311302
0.0318929
0.0326901
0.033519
0.0342746
0.0349689
0.0357251
0.0365781
0.0374319
0.0383191
0.0392127
0.0400768
0.0409761
0.0419067
0.0428409
0.0437837
0.0447596
0.0457522
0.0467575
0.047763
0.0488032
0.0498817
0.0509778
0.0520732
0.0531945
0.0543456
0.0555487
0.056786
0.05802
0.0592301
0.0604792
0.061751
0.0630916
0.0644743
0.0658481
0.0671691
0.0685645
0.0699526
0.0713429
0.0727773
0.0740611
0.0751749
0.0762395
0.0154587
0.0109811
0.0046245
-0.000227395
-0.00139414
6.39572e-05
0.00219604
0.00380032
0.00469425
0.00539572
0.00601701
0.00639994
0.00674197
0.00719845
0.00763322
0.00801738
0.00847792
0.00899481
0.00944037
0.00986009
0.0103538
0.0108559
0.0113189
0.0118066
0.0122893
0.0127124
0.0130979
0.0135119
0.0140205
0.0145656
0.0150474
0.0155054
0.0160374
0.0166024
0.0171151
0.0176206
0.0181517
0.0186661
0.0191687
0.019698
0.0202581
0.0208174
0.021377
0.0219802
0.0226038
0.0232075
0.0238193
0.0244391
0.0250544
0.0256679
0.0262782
0.0269192
0.0276097
0.0282972
0.0289492
0.0296508
0.0303912
0.0311305
0.0318932
0.0326904
0.0335194
0.0342749
0.0349692
0.0357253
0.0365783
0.0374322
0.0383193
0.0392129
0.0400771
0.0409763
0.0419069
0.0428411
0.0437839
0.0447597
0.0457524
0.0467577
0.0477632
0.0488034
0.0498818
0.050978
0.0520734
0.0531946
0.0543458
0.0555488
0.0567861
0.0580201
0.0592303
0.0604793
0.0617511
0.0630917
0.0644744
0.0658482
0.0671692
0.0685646
0.0699527
0.071343
0.0727774
0.0740611
0.0751749
0.0762393
0.0148707
0.0108183
0.00479351
5.87489e-05
-0.00122617
0.00012375
0.00221796
0.00381541
0.00470899
0.00540975
0.00602954
0.00641055
0.0067507
0.0072056
0.00763881
0.00802169
0.00848168
0.00899844
0.00944365
0.0098629
0.0103565
0.0108583
0.011321
0.0118085
0.0122911
0.0127141
0.0130993
0.0135131
0.0140217
0.0145667
0.0150485
0.0155062
0.0160382
0.0166033
0.0171158
0.0176213
0.0181524
0.0186667
0.0191693
0.0196986
0.0202587
0.020818
0.0213775
0.0219807
0.0226043
0.0232079
0.0238198
0.0244395
0.0250548
0.0256683
0.0262786
0.0269196
0.02761
0.0282976
0.0289495
0.029651
0.0303915
0.0311308
0.0318935
0.0326906
0.0335196
0.0342752
0.0349695
0.0357255
0.0365785
0.0374324
0.0383195
0.0392131
0.0400772
0.0409765
0.041907
0.0428413
0.0437841
0.0447599
0.0457525
0.0467578
0.0477633
0.0488035
0.049882
0.0509781
0.0520735
0.0531948
0.0543459
0.0555489
0.0567862
0.0580202
0.0592304
0.0604794
0.0617512
0.0630918
0.0644745
0.0658483
0.0671693
0.0685647
0.0699528
0.071343
0.0727774
0.0740612
0.075175
0.0762393
0.0143004
0.0106565
0.00501554
0.000425686
-0.000989698
0.000212096
0.00224934
0.00383507
0.00472892
0.00542796
0.00604433
0.00642361
0.00676297
0.00721636
0.00764751
0.00802847
0.00848714
0.00900312
0.00944768
0.00986643
0.0103599
0.0108617
0.011324
0.0118111
0.0122933
0.012716
0.0131011
0.0135148
0.0140231
0.0145681
0.0150498
0.0155073
0.0160392
0.0166043
0.0171167
0.0176221
0.0181532
0.0186674
0.0191699
0.0196991
0.0202592
0.0208185
0.021378
0.0219812
0.0226048
0.0232084
0.0238203
0.02444
0.0250552
0.0256687
0.026279
0.0269199
0.0276104
0.028298
0.0289498
0.0296513
0.0303918
0.0311311
0.0318937
0.0326909
0.03352
0.0342756
0.0349697
0.0357256
0.0365787
0.0374326
0.0383197
0.0392133
0.0400774
0.0409766
0.0419072
0.0428414
0.0437842
0.04476
0.0457527
0.046758
0.0477634
0.0488036
0.0498821
0.0509782
0.0520736
0.0531949
0.054346
0.055549
0.0567864
0.0580203
0.0592305
0.0604795
0.0617513
0.0630919
0.0644746
0.0658484
0.0671693
0.0685647
0.0699529
0.0713431
0.0727776
0.0740614
0.0751751
0.0762392
0.0137455
0.0104987
0.00525294
0.000813768
-0.000728306
0.000314824
0.0022851
0.0038571
0.00475311
0.00545005
0.00606134
0.00643946
0.00677918
0.0072309
0.00765977
0.00803888
0.00849573
0.00901011
0.00945343
0.00987127
0.0103643
0.0108661
0.0113283
0.0118148
0.0122963
0.0127187
0.0131038
0.0135173
0.0140252
0.0145699
0.0150515
0.015509
0.0160407
0.0166056
0.0171179
0.0176232
0.0181541
0.0186682
0.0191706
0.0196997
0.0202599
0.0208192
0.0213786
0.0219817
0.0226054
0.023209
0.0238209
0.0244406
0.0250557
0.0256692
0.0262794
0.0269203
0.0276108
0.0282984
0.0289502
0.0296517
0.0303921
0.0311314
0.031894
0.0326912
0.0335204
0.034276
0.0349699
0.0357258
0.036579
0.0374328
0.0383199
0.0392136
0.0400776
0.0409768
0.0419074
0.0428416
0.0437844
0.0447602
0.0457529
0.0467581
0.0477636
0.0488038
0.0498822
0.0509784
0.0520738
0.053195
0.0543461
0.0555491
0.0567865
0.0580205
0.0592306
0.0604796
0.0617514
0.063092
0.0644747
0.0658485
0.0671694
0.0685648
0.069953
0.0713432
0.0727777
0.0740616
0.0751755
0.0762391
0.0132133
0.0103342
0.0054811
0.00120238
-0.00045438
0.00042584
0.00232213
0.00387969
0.00477974
0.00547445
0.00607947
0.00645679
0.00679768
0.00724766
0.00767452
0.00805256
0.00850771
0.00902012
0.00946188
0.00987821
0.01037
0.0108717
0.011334
0.0118198
0.0123002
0.0127223
0.0131079
0.0135212
0.0140281
0.014572
0.0150537
0.0155113
0.0160427
0.0166073
0.0171194
0.0176247
0.0181554
0.0186693
0.0191715
0.0197005
0.0202605
0.0208199
0.0213793
0.0219823
0.022606
0.0232097
0.0238216
0.0244413
0.0250563
0.0256697
0.0262799
0.0269208
0.0276112
0.0282988
0.0289506
0.0296521
0.0303925
0.0311317
0.0318943
0.0326915
0.0335208
0.0342764
0.0349702
0.0357259
0.0365793
0.0374331
0.0383202
0.0392139
0.0400779
0.040977
0.0419076
0.0428418
0.0437846
0.0447604
0.045753
0.0467583
0.0477637
0.0488039
0.0498824
0.0509785
0.0520739
0.0531951
0.0543462
0.0555492
0.0567866
0.0580206
0.0592307
0.0604797
0.0617515
0.0630921
0.0644749
0.0658487
0.0671695
0.0685649
0.0699532
0.0713433
0.0727779
0.0740619
0.075176
0.0762391
0.0127054
0.010153
0.0056911
0.00158968
-0.000166634
0.000546534
0.00236088
0.00390256
0.00480823
0.00550096
0.00609885
0.00647503
0.00681712
0.00726508
0.00769008
0.00806786
0.00852196
0.00903281
0.00947332
0.00988779
0.0103775
0.0108783
0.0113407
0.0118257
0.0123048
0.0127268
0.0131135
0.013527
0.0140322
0.0145746
0.0150564
0.0155145
0.0160454
0.0166093
0.0171214
0.0176267
0.0181572
0.0186707
0.0191727
0.0197014
0.0202613
0.0208207
0.02138
0.0219829
0.0226066
0.0232105
0.0238225
0.0244421
0.0250569
0.0256703
0.0262806
0.0269215
0.0276117
0.0282993
0.0289511
0.0296525
0.0303929
0.031132
0.0318947
0.0326919
0.0335213
0.0342769
0.0349705
0.0357261
0.0365796
0.0374334
0.0383205
0.0392142
0.0400781
0.0409773
0.0419079
0.0428421
0.0437848
0.0447606
0.0457532
0.0467585
0.0477639
0.048804
0.0498825
0.0509787
0.052074
0.0531952
0.0543463
0.0555493
0.0567868
0.0580208
0.0592308
0.0604798
0.0617516
0.0630922
0.064475
0.0658488
0.0671697
0.068565
0.0699533
0.0713435
0.0727782
0.0740624
0.0751768
0.0762392
0.0122195
0.00995467
0.00588515
0.00197963
0.000138206
0.000679383
0.00240207
0.0039252
0.00483816
0.00552989
0.00612004
0.0064944
0.00683741
0.00728302
0.0077059
0.0080836
0.00853717
0.00904713
0.00948705
0.00989979
0.0103867
0.0108861
0.0113482
0.0118319
0.0123095
0.012732
0.0131206
0.0135346
0.0140377
0.0145779
0.0150599
0.0155186
0.0160487
0.0166116
0.0171238
0.0176293
0.0181595
0.0186727
0.0191745
0.0197028
0.0202624
0.0208217
0.0213809
0.0219835
0.0226071
0.0232113
0.0238237
0.0244432
0.0250577
0.0256711
0.0262816
0.0269223
0.0276124
0.0282999
0.0289516
0.029653
0.0303933
0.0311324
0.0318951
0.0326923
0.0335218
0.0342775
0.0349708
0.0357264
0.0365799
0.0374338
0.0383208
0.0392146
0.0400784
0.0409776
0.0419082
0.0428424
0.0437851
0.0447608
0.0457535
0.0467588
0.0477641
0.0488042
0.0498827
0.0509789
0.0520742
0.0531954
0.0543465
0.0555495
0.056787
0.058021
0.059231
0.0604799
0.0617517
0.0630923
0.0644752
0.065849
0.0671698
0.0685652
0.0699535
0.0713437
0.0727785
0.0740632
0.075178
0.0762393
0.0117589
0.0097478
0.00606582
0.00237198
0.000460401
0.000825905
0.00244619
0.00394699
0.00486919
0.00556151
0.00614349
0.00651525
0.00685893
0.00730197
0.00772231
0.00809966
0.00855281
0.00906226
0.00950213
0.00991349
0.0103975
0.010895
0.0113564
0.0118384
0.0123142
0.0127373
0.0131285
0.0135437
0.0140445
0.014582
0.015064
0.0155234
0.0160524
0.016614
0.0171262
0.0176321
0.018162
0.0186752
0.019177
0.0197048
0.0202639
0.0208231
0.0213822
0.0219842
0.0226075
0.0232121
0.023825
0.0244444
0.0250586
0.025672
0.0262828
0.0269234
0.0276131
0.0283005
0.0289524
0.0296537
0.0303937
0.0311327
0.0318955
0.0326928
0.0335225
0.0342782
0.0349712
0.0357267
0.0365804
0.0374342
0.0383212
0.039215
0.0400788
0.0409779
0.0419085
0.0428428
0.0437854
0.0447611
0.0457538
0.0467591
0.0477643
0.0488044
0.049883
0.0509791
0.0520744
0.0531955
0.0543466
0.0555496
0.0567872
0.0580212
0.0592311
0.06048
0.0617518
0.0630924
0.0644754
0.0658492
0.0671699
0.0685653
0.0699538
0.0713439
0.0727789
0.0740642
0.0751795
0.0762396
0.0113307
0.00953905
0.00623021
0.00276228
0.000798967
0.000987872
0.00249424
0.00396758
0.00490077
0.00559576
0.00616942
0.00653782
0.00688189
0.00732235
0.00773992
0.00811651
0.00856897
0.00907792
0.00951796
0.00992824
0.0104094
0.0109049
0.0113652
0.0118451
0.0123188
0.0127426
0.0131368
0.0135536
0.0140522
0.0145868
0.0150688
0.015529
0.0160567
0.0166167
0.0171287
0.0176348
0.0181646
0.018678
0.01918
0.0197074
0.0202658
0.0208251
0.021384
0.0219852
0.0226079
0.0232127
0.0238262
0.0244457
0.0250596
0.025673
0.0262842
0.0269248
0.0276141
0.0283014
0.0289534
0.0296546
0.0303941
0.031133
0.0318959
0.0326931
0.033523
0.034279
0.0349718
0.0357271
0.0365809
0.0374346
0.0383216
0.0392155
0.0400792
0.0409783
0.0419089
0.0428432
0.0437859
0.0447615
0.0457541
0.0467594
0.0477647
0.0488047
0.0498832
0.0509794
0.0520746
0.0531957
0.0543468
0.0555498
0.0567874
0.0580214
0.0592312
0.0604801
0.0617519
0.0630925
0.0644756
0.0658494
0.0671701
0.0685654
0.0699541
0.0713442
0.0727794
0.0740655
0.0751816
0.07624
0.0109377
0.00933052
0.00637366
0.00314558
0.00115227
0.00116686
0.00254755
0.00398675
0.00493189
0.00563204
0.00619767
0.00656199
0.0069062
0.00734435
0.00775927
0.0081347
0.00858594
0.00909411
0.00953431
0.00994367
0.0104221
0.0109155
0.0113747
0.0118523
0.0123237
0.012748
0.0131453
0.0135639
0.0140604
0.0145922
0.0150741
0.015535
0.0160614
0.0166195
0.0171313
0.0176374
0.0181668
0.0186807
0.0191834
0.0197104
0.0202682
0.0208275
0.0213862
0.0219865
0.0226084
0.0232133
0.0238273
0.024447
0.0250605
0.0256742
0.026286
0.0269265
0.0276151
0.0283023
0.0289548
0.0296558
0.0303948
0.0311333
0.0318961
0.0326933
0.0335234
0.0342797
0.0349725
0.0357278
0.0365815
0.0374351
0.038322
0.039216
0.0400797
0.0409787
0.0419094
0.0428436
0.0437863
0.0447619
0.0457546
0.0467599
0.0477651
0.0488051
0.0498836
0.0509797
0.0520749
0.0531959
0.054347
0.05555
0.0567877
0.0580217
0.0592313
0.0604802
0.0617521
0.0630927
0.0644759
0.0658496
0.0671703
0.0685656
0.0699544
0.0713446
0.0727799
0.0740672
0.0751842
0.0762407
0.0105781
0.00912382
0.0064931
0.00351632
0.00151642
0.00136315
0.00260737
0.0040044
0.00496133
0.0056694
0.00622775
0.0065874
0.00693155
0.00736794
0.00778064
0.00815459
0.00860394
0.00911087
0.0095511
0.0099596
0.0104353
0.0109266
0.0113847
0.01186
0.0123291
0.0127538
0.0131541
0.0135744
0.0140689
0.0145978
0.0150798
0.0155415
0.0160664
0.0166226
0.017134
0.0176399
0.0181689
0.0186832
0.0191869
0.0197138
0.020271