/*--------------------------------*- C++ -*----------------------------------*\
| =========                 |                                                 |
| \\      /  F ield         | OpenFOAM: The Open Source CFD Toolbox           |
|  \\    /   O peration     | Version:  v1912                                 |
|   \\  /    A nd           | Website:  www.openfoam.com                      |
|    \\/     M anipulation  |                                                 |
\*---------------------------------------------------------------------------*/
FoamFile
{
    version     2.0;
    format      ascii;
    class       surfaceScalarField;
    location    "6.1";
    object      phi;
}
// * * * * * * * * * * * * * * * * * * * * * * * * * * * * * * * * * * * * * //

dimensions      [0 3 -1 0 0 0 0];
oriented        oriented;


internalField   nonuniform List<scalar> 
19000
(
1.15296e-06
-7.30424e-07
1.27783e-06
-6.96248e-07
1.24863e-06
5.23925e-08
1.17948e-06
2.65244e-06
1.16092e-06
-1.12114e-06
1.14982e-06
-2.45125e-06
1.2081e-06
-2.72101e-06
1.25367e-06
-7.68864e-07
1.24587e-06
-4.05766e-07
1.24998e-06
6.28927e-07
1.25486e-06
5.73416e-08
1.22451e-06
4.75785e-07
1.24601e-06
-2.25616e-07
1.26152e-06
-5.31573e-07
1.30008e-06
-7.30502e-07
1.29187e-06
-5.19949e-07
1.27394e-06
-3.69685e-07
1.2533e-06
-3.45863e-10
1.22836e-06
2.87098e-08
1.66363e-07
1.19581e-06
1.21036e-06
-7.16527e-07
1.33687e-06
-8.22753e-07
1.30164e-06
8.76205e-08
1.2865e-06
2.66758e-06
1.23448e-06
-1.06912e-06
1.18761e-06
-2.40439e-06
1.26004e-06
-2.79344e-06
1.31299e-06
-8.21808e-07
1.30965e-06
-4.0243e-07
1.32451e-06
6.14073e-07
1.32428e-06
5.75689e-08
1.31265e-06
4.87419e-07
1.30993e-06
-2.22903e-07
1.32228e-06
-5.43923e-07
1.35196e-06
-7.60181e-07
1.36145e-06
-5.29433e-07
1.33282e-06
-3.41054e-07
1.33363e-06
-1.16093e-09
1.28056e-06
8.17824e-08
1.62952e-07
1.28397e-06
1.26474e-06
-6.98488e-07
1.39051e-06
-9.48523e-07
1.36468e-06
1.13457e-07
1.37051e-06
2.66175e-06
1.2995e-06
-9.98109e-07
1.24031e-06
-2.34519e-06
1.30481e-06
-2.85794e-06
1.3679e-06
-8.84896e-07
1.37278e-06
-4.07311e-07
1.40094e-06
5.85908e-07
1.39865e-06
5.98564e-08
1.39611e-06
4.89962e-07
1.37038e-06
-1.97174e-07
1.37316e-06
-5.46705e-07
1.38952e-06
-7.76537e-07
1.41465e-06
-5.54567e-07
1.39202e-06
-3.18418e-07
1.39202e-06
-1.16297e-09
1.35589e-06
1.17913e-07
1.85847e-07
1.33299e-06
1.31621e-06
-6.70598e-07
1.43835e-06
-1.07066e-06
1.43489e-06
1.16916e-07
1.45506e-06
2.64157e-06
1.3715e-06
-9.14542e-07
1.29898e-06
-2.27267e-06
1.3428e-06
-2.90176e-06
1.41436e-06
-9.56462e-07
1.43461e-06
-4.27562e-07
1.4728e-06
5.47723e-07
1.47451e-06
5.81479e-08
1.47248e-06
4.91993e-07
1.43387e-06
-1.58568e-07
1.42263e-06
-5.35461e-07
1.42653e-06
-7.80438e-07
1.45537e-06
-5.83407e-07
1.44867e-06
-3.11719e-07
1.44707e-06
4.33978e-10
1.42672e-06
1.38262e-07
2.1187e-07
1.4007e-06
1.36847e-06
-6.30719e-07
1.48161e-06
-1.1838e-06
1.51209e-06
8.64355e-08
1.53742e-06
2.61624e-06
1.44648e-06
-8.23609e-07
1.36408e-06
-2.19026e-06
1.38209e-06
-2.91977e-06
1.45686e-06
-1.03124e-06
1.49663e-06
-4.67332e-07
1.54359e-06
5.00764e-07
1.55138e-06
5.03533e-08
1.548e-06
4.95379e-07
1.50382e-06
-1.14388e-07
1.47878e-06
-5.10418e-07
1.46961e-06
-7.71276e-07
1.49567e-06
-6.09459e-07
1.50121e-06
-3.17264e-07
1.50398e-06
-2.33237e-09
1.49207e-06
1.5017e-07
2.32599e-07
1.47134e-06
1.42656e-06
-5.81602e-07
1.52477e-06
-1.28201e-06
1.59245e-06
1.87602e-08
1.62144e-06
2.58725e-06
1.52706e-06
-7.29225e-07
1.4367e-06
-2.09991e-06
1.43064e-06
-2.9137e-06
1.50385e-06
-1.10445e-06
1.56141e-06
-5.24886e-07
1.61757e-06
4.44599e-07
1.63047e-06
3.74585e-08
1.62667e-06
4.99173e-07
1.57952e-06
-6.72347e-08
1.54295e-06
-4.73846e-07
1.52e-06
-7.48331e-07
1.53944e-06
-6.28894e-07
1.55161e-06
-3.29435e-07
1.56089e-06
-1.16119e-08
1.55599e-06
1.55072e-07
2.47728e-07
1.54086e-06
1.49426e-06
-5.2965e-07
1.57234e-06
-1.36008e-06
1.67068e-06
-7.95854e-08
1.70546e-06
2.55247e-06
1.61008e-06
-6.33847e-07
1.51554e-06
-2.00537e-06
1.49174e-06
-2.8899e-06
1.56137e-06
-1.17407e-06
1.63154e-06
-5.9506e-07
1.69665e-06
3.79488e-07
1.71277e-06
2.13428e-08
1.70892e-06
5.03018e-07
1.65863e-06
-1.69435e-08
1.61293e-06
-4.28141e-07
1.57698e-06
-7.12387e-07
1.58726e-06
-6.39174e-07
1.60175e-06
-3.43922e-07
1.61698e-06
-2.68403e-08
1.61969e-06
1.5236e-07
2.57024e-07
1.61039e-06
1.57241e-06
-4.81934e-07
1.62657e-06
-1.41423e-06
1.74224e-06
-1.95256e-07
1.78659e-06
2.50812e-06
1.69338e-06
-5.40628e-07
1.59905e-06
-1.91104e-06
1.56425e-06
-2.85511e-06
1.63019e-06
-1.24001e-06
1.70774e-06
-6.72614e-07
1.78013e-06
3.07105e-07
1.79743e-06
4.03817e-09
1.79305e-06
5.074e-07
1.73889e-06
3.72119e-08
1.68636e-06
-3.75608e-07
1.63979e-06
-6.65816e-07
1.63982e-06
-6.39207e-07
1.65329e-06
-3.57392e-07
1.67256e-06
-4.61088e-08
1.68312e-06
1.41802e-07
2.59661e-07
1.68048e-06
1.65896e-06
-4.4332e-07
1.68768e-06
-1.44295e-06
1.80558e-06
-3.13157e-07
1.86221e-06
2.45148e-06
1.77578e-06
-4.54196e-07
1.68588e-06
-1.82114e-06
1.64485e-06
-2.81407e-06
1.70667e-06
-1.30183e-06
1.78713e-06
-7.53076e-07
1.86428e-06
2.29955e-07
1.88096e-06
-1.26432e-08
1.87592e-06
5.12441e-07
1.8183e-06
9.48323e-08
1.7616e-06
-3.18915e-07
1.70789e-06
-6.12101e-07
1.69816e-06
-6.29483e-07
1.70836e-06
-3.67588e-07
1.72914e-06
-6.68886e-08
1.74665e-06
1.24288e-07
2.55058e-07
1.75126e-06
1.7507e-06
-4.15294e-07
1.75551e-06
-1.44776e-06
1.86316e-06
-4.20803e-07
1.93181e-06
2.38282e-06
1.85727e-06
-3.79653e-07
1.77552e-06
-1.73939e-06
1.73036e-06
-2.76892e-06
1.78559e-06
-1.35706e-06
1.86421e-06
-8.31698e-07
1.94312e-06
1.51051e-07
1.95816e-06
-2.76864e-08
1.95377e-06
5.16836e-07
1.89519e-06
1.53407e-07
1.83785e-06
-2.61576e-07
1.78108e-06
-5.55327e-07
1.76331e-06
-6.11717e-07
1.76929e-06
-3.73563e-07
1.78932e-06
-8.69158e-08
1.81194e-06
1.01666e-07
2.43341e-07
1.82365e-06
1.84507e-06
-3.96613e-07
1.83057e-06
-1.43327e-06
1.92032e-06
-5.10553e-07
1.99769e-06
2.30546e-06
1.93872e-06
-3.20691e-07
1.86795e-06
-1.66862e-06
1.81897e-06
-2.71993e-06
1.86369e-06
-1.40178e-06
1.93479e-06
-9.02791e-07
2.01174e-06
7.40998e-08
2.02502e-06
-4.09712e-08
2.02394e-06
5.17924e-07
1.96886e-06
2.08483e-07
1.91519e-06
-2.07907e-07
1.85953e-06
-4.99663e-07
1.83604e-06
-5.88231e-07
1.83798e-06
-3.75503e-07
1.85578e-06
-1.04714e-07
1.88124e-06
7.62074e-08
2.25394e-07
1.89919e-06
1.94099e-06
-3.84761e-07
1.91355e-06
-1.40583e-06
1.98279e-06
-5.79786e-07
2.06402e-06
2.22422e-06
2.02165e-06
-2.78317e-07
1.96321e-06
-1.61018e-06
1.91018e-06
-2.66691e-06
1.9413e-06
-1.4329e-06
1.9992e-06
-9.60691e-07
2.06998e-06
3.323e-09
2.0817e-06
-5.26906e-08
2.0867e-06
5.12926e-07
2.04017e-06
2.55006e-07
1.99444e-06
-1.62176e-07
1.94353e-06
-4.48753e-07
1.91672e-06
-5.61417e-07
1.91532e-06
-3.74103e-07
1.93001e-06
-1.19411e-07
1.95588e-06
5.03436e-08
2.02866e-07
1.97841e-06
2.03861e-06
-3.77184e-07
2.00444e-06
-1.37166e-06
2.05435e-06
-6.29693e-07
2.13515e-06
2.14342e-06
2.1078e-06
-2.50964e-07
2.06127e-06
-1.56366e-06
2.00431e-06
-2.60995e-06
2.02132e-06
-1.44991e-06
2.06224e-06
-1.00162e-06
2.12317e-06
-5.76003e-08
2.13324e-06
-6.27601e-08
2.14584e-06
5.00321e-07
2.1117e-06
2.89146e-07
2.0769e-06
-1.27376e-07
2.03325e-06
-4.05101e-07
2.00518e-06
-5.33348e-07
2.00107e-06
-3.69993e-07
2.01197e-06
-1.30313e-07
2.0357e-06
2.66151e-08
1.78182e-07
2.06038e-06
2.13877e-06
-3.71955e-07
2.10238e-06
-1.33527e-06
2.13622e-06
-6.6353e-07
2.21412e-06
2.06552e-06
2.1987e-06
-2.35549e-07
2.16228e-06
-1.52724e-06
2.10196e-06
-2.54963e-06
2.1069e-06
-1.45485e-06
2.13016e-06
-1.02488e-06
2.17936e-06
-1.06801e-07
2.18741e-06
-7.08011e-08
2.20738e-06
4.80351e-07
2.18699e-06
3.09531e-07
2.16399e-06
-1.04375e-07
2.12856e-06
-3.69676e-07
2.10074e-06
-5.0552e-07
2.09435e-06
-3.63605e-07
2.10093e-06
-1.36895e-07
2.12026e-06
7.28363e-09
1.54148e-07
2.14429e-06
2.24242e-06
-3.67883e-07
2.20625e-06
-1.29911e-06
2.22779e-06
-6.85067e-07
2.30229e-06
1.99102e-06
2.2954e-06
-2.2866e-07
2.26662e-06
-1.49846e-06
2.20374e-06
-2.48675e-06
2.19989e-06
-1.451e-06
2.20767e-06
-1.03265e-06
2.24559e-06
-1.44722e-07
2.25135e-06
-7.65612e-08
2.27717e-06
4.54531e-07
2.2694e-06
3.17302e-07
2.25695e-06
-9.1925e-08
2.22924e-06
-3.41971e-07
2.20242e-06
-4.78692e-07
2.19416e-06
-3.55347e-07
2.19643e-06
-1.39165e-07
2.21007e-06
-6.35853e-09
1.3304e-07
2.23118e-06
2.35034e-06
-3.64343e-07
2.31524e-06
-1.26401e-06
2.32783e-06
-6.97654e-07
2.39972e-06
1.91913e-06
2.39839e-06
-2.27335e-07
2.37486e-06
-1.47492e-06
2.31012e-06
-2.42201e-06
2.30068e-06
-1.44156e-06
2.29669e-06
-1.02866e-06
2.32552e-06
-1.73554e-07
2.32922e-06
-8.02658e-08
2.35898e-06
4.2477e-07
2.36111e-06
3.15173e-07
2.35662e-06
-8.7434e-08
2.33516e-06
-3.20505e-07
2.30943e-06
-4.52969e-07
2.29974e-06
-3.45658e-07
2.29845e-06
-1.37869e-07
2.30645e-06
-1.43575e-08
1.15816e-07
2.32367e-06
2.46308e-06
-3.61025e-07
2.42907e-06
-1.23e-06
2.43529e-06
-7.03876e-07
2.50581e-06
1.84861e-06
2.50784e-06
-2.2936e-07
2.48759e-06
-1.45467e-06
2.42148e-06
-2.3559e-06
2.40879e-06
-1.42887e-06
2.39688e-06
-1.01676e-06
2.41944e-06
-1.96113e-07
2.42179e-06
-8.26079e-08
2.45385e-06
3.92702e-07
2.4628e-06
3.06221e-07
2.46336e-06
-8.79935e-08
2.44639e-06
-3.03528e-07
2.42146e-06
-4.28045e-07
2.41072e-06
-3.34914e-07
2.40706e-06
-1.34206e-07
2.41053e-06
-1.7829e-08
1.02153e-07
2.42419e-06
2.58103e-06
-3.57758e-07
2.54788e-06
-1.19686e-06
2.54957e-06
-7.05561e-07
2.6198e-06
1.77837e-06
2.6237e-06
-2.33258e-07
2.60537e-06
-1.43634e-06
2.53816e-06
-2.28869e-06
2.52362e-06
-1.41433e-06
2.50687e-06
-1.00001e-06
2.52562e-06
-2.1486e-07
2.5275e-06
-8.44827e-08
2.56074e-06
3.59458e-07
2.57396e-06
2.93e-07
2.57711e-06
-9.1146e-08
2.56313e-06
-2.89547e-07
2.53863e-06
-4.03541e-07
2.52704e-06
-3.23325e-07
2.52217e-06
-1.29336e-07
2.52259e-06
-1.82527e-08
9.11099e-08
2.53364e-06
2.7045e-06
-3.54425e-07
2.67204e-06
-1.1644e-06
2.6704e-06
-7.03925e-07
2.74106e-06
1.70772e-06
2.74593e-06
-2.38136e-07
2.72867e-06
-1.41908e-06
2.66044e-06
-2.22046e-06
2.64475e-06
-1.39865e-06
2.62524e-06
-9.80493e-07
2.64182e-06
-2.3144e-07
2.64403e-06
-8.66996e-08
2.67778e-06
3.2571e-07
2.69357e-06
2.77209e-07
2.69763e-06
-9.51977e-08
2.68559e-06
-2.77512e-07
2.66129e-06
-3.79236e-07
2.64891e-06
-3.1095e-07
2.64365e-06
-1.24077e-07
2.6423e-06
-1.69019e-08
8.18157e-08
2.6516e-06
2.83378e-06
-3.50933e-07
2.80194e-06
-1.13257e-06
2.79774e-06
-6.9972e-07
2.86916e-06
1.6363e-06
2.87453e-06
-2.435e-07
2.85785e-06
-1.4024e-06
2.78863e-06
-2.15124e-06
2.77203e-06
-1.38206e-06
2.75103e-06
-9.59493e-07
2.76629e-06
-2.4669e-07
2.76941e-06
-8.98258e-08
2.80329e-06
2.9183e-07
2.82073e-06
2.59773e-07
2.82467e-06
-9.91424e-08
2.81392e-06
-2.66764e-07
2.78981e-06
-3.55124e-07
2.77665e-06
-2.97787e-07
2.77144e-06
-1.18868e-07
2.76917e-06
-1.46344e-08
7.37695e-08
2.77722e-06
2.96916e-06
-3.472e-07
2.938e-06
-1.10141e-06
2.93166e-06
-6.9338e-07
3.00395e-06
1.56401e-06
3.00954e-06
-2.49089e-07
2.99322e-06
-1.38609e-06
2.92305e-06
-2.08106e-06
2.90554e-06
-1.36455e-06
2.88385e-06
-9.37804e-07
2.89807e-06
-2.60907e-07
2.90241e-06
-9.41632e-08
2.9362e-06
2.58036e-07
2.95487e-06
2.41106e-07
2.95817e-06
-1.02448e-07
2.94828e-06
-2.56872e-07
2.92451e-06
-3.3135e-07
2.91057e-06
-2.83848e-07
2.9056e-06
-1.13899e-07
2.90291e-06
-1.19459e-08
6.6793e-08
2.90989e-06
3.11096e-06
-3.43153e-07
3.08059e-06
-1.07104e-06
3.07235e-06
-6.85142e-07
3.14542e-06
1.49094e-06
3.15107e-06
-2.54739e-07
3.13505e-06
-1.37007e-06
3.06404e-06
-2.01005e-06
3.0455e-06
-1.34601e-06
3.02369e-06
-9.15989e-07
3.0369e-06
-2.74118e-07
3.04252e-06
-9.97842e-08
3.07605e-06
2.24502e-07
3.09579e-06
2.21367e-07
3.09821e-06
-1.04869e-07
3.08887e-06
-2.47525e-07
3.06565e-06
-3.08138e-07
3.05098e-06
-2.69178e-07
3.04633e-06
-1.09243e-07
3.04349e-06
-9.10849e-09
6.08646e-08
3.04942e-06
3.25947e-06
-3.38709e-07
3.23004e-06
-1.04161e-06
3.22004e-06
-6.75145e-07
3.29376e-06
1.41722e-06
3.29932e-06
-2.60298e-07
3.28356e-06
-1.35431e-06
3.21196e-06
-1.93845e-06
3.19221e-06
-1.32626e-06
3.17072e-06
-8.945e-07
3.18289e-06
-2.8628e-07
3.18969e-06
-1.06586e-07
3.22277e-06
1.91419e-07
3.24349e-06
2.00646e-07
3.24496e-06
-1.06342e-07
3.23593e-06
-2.3849e-07
3.21353e-06
-2.85736e-07
3.19821e-06
-2.53864e-07
3.19388e-06
-1.04914e-07
3.19108e-06
-6.30921e-09
5.59964e-08
3.19595e-06
3.41499e-06
-3.3377e-07
3.38667e-06
-1.01329e-06
3.37504e-06
-6.63511e-07
3.44925e-06
1.34301e-06
3.45454e-06
-2.65591e-07
3.43902e-06
-1.33879e-06
3.36718e-06
-1.86661e-06
3.34602e-06
-1.3051e-06
3.32523e-06
-8.7371e-07
3.33632e-06
-2.97372e-07
3.34407e-06
-1.14341e-07
3.37648e-06
1.59008e-07
3.39807e-06
1.79064e-07
3.39867e-06
-1.06944e-07
3.38979e-06
-2.29607e-07
3.36845e-06
-2.64399e-07
3.35261e-06
-2.3802e-07
3.34859e-06
-1.00897e-07
3.34601e-06
-3.73339e-09
5.21815e-08
3.34983e-06
3.57786e-06
-3.28224e-07
3.55076e-06
-9.86189e-07
3.53765e-06
-6.50403e-07
3.61226e-06
1.26841e-06
3.61708e-06
-2.7041e-07
3.60168e-06
-1.32339e-06
3.53006e-06
-1.79499e-06
3.50729e-06
-1.28233e-06
3.48747e-06
-8.53891e-07
3.49752e-06
-3.07425e-07
3.50594e-06
-1.2276e-07
3.53744e-06
1.27508e-07
3.55972e-06
1.56784e-07
3.55962e-06
-1.06848e-07
3.55082e-06
-2.20802e-07
3.53077e-06
-2.44349e-07
3.51457e-06
-2.21818e-07
3.51079e-06
-9.71184e-08
3.50867e-06
-1.61232e-09
4.93631e-08
3.51149e-06
3.74844e-06
-3.21963e-07
3.72258e-06
-9.60319e-07
3.70822e-06
-6.36053e-07
3.78324e-06
1.1934e-06
3.78737e-06
-2.74548e-07
3.77185e-06
-1.30786e-06
3.70096e-06
-1.72411e-06
3.67642e-06
-1.25779e-06
3.65773e-06
-8.35197e-07
3.66684e-06
-3.16536e-07
3.67562e-06
-1.31545e-07
3.70599e-06
9.7141e-08
3.72875e-06
1.34027e-07
3.72817e-06
-1.0627e-07
3.71944e-06
-2.12077e-07
3.70086e-06
-2.25767e-07
3.68452e-06
-2.05478e-07
3.68087e-06
-9.34662e-08
3.67941e-06
-1.53936e-10
4.73919e-08
3.68138e-06
3.92714e-06
-3.14915e-07
3.90238e-06
-9.35561e-07
3.88708e-06
-6.20751e-07
3.96261e-06
1.11787e-06
3.9659e-06
-2.77843e-07
3.94988e-06
-1.29184e-06
3.88026e-06
-1.65449e-06
3.85385e-06
-1.23138e-06
3.83632e-06
-8.17673e-07
3.84462e-06
-3.24828e-07
3.8535e-06
-1.40425e-07
3.88257e-06
6.80663e-08
3.90555e-06
1.11053e-07
3.90469e-06
-1.0541e-07
3.89611e-06
-2.03496e-07
3.8791e-06
-2.08763e-07
3.86289e-06
-1.8927e-07
3.85923e-06
-8.98059e-08
3.85858e-06
5.0057e-10
4.60259e-08
3.85994e-06
4.11441e-06
-3.0707e-07
4.09051e-06
-9.11668e-07
4.07456e-06
-6.04799e-07
4.15076e-06
1.04167e-06
4.15316e-06
-2.8024e-07
4.1362e-06
-1.27489e-06
4.06831e-06
-1.5866e-06
4.04e-06
-1.20307e-06
4.0236e-06
-8.01267e-07
4.03121e-06
-3.32447e-07
4.03995e-06
-1.49165e-07
4.06766e-06
4.03571e-08
4.09056e-06
8.81536e-08
4.08957e-06
-1.04412e-07
4.08121e-06
-1.95142e-07
4.06584e-06
-1.93389e-07
4.05006e-06
-1.73493e-07
4.04627e-06
-8.60128e-08
4.04644e-06
3.2247e-10
4.49416e-08
4.04753e-06
4.31072e-06
-2.98491e-07
4.28737e-06
-8.88319e-07
4.27102e-06
-5.88441e-07
4.348e-06
9.64687e-07
4.3496e-06
-2.81839e-07
4.33125e-06
-1.25654e-06
4.26546e-06
-1.52081e-06
4.23532e-06
-1.17293e-06
4.21989e-06
-7.85843e-07
4.22699e-06
-3.39539e-07
4.2354e-06
-1.57577e-07
4.26173e-06
1.4028e-08
4.28428e-06
6.55991e-08
4.28322e-06
-1.03353e-07
4.27516e-06
-1.8708e-07
4.26143e-06
-1.79659e-07
4.24637e-06
-1.5843e-07
4.24234e-06
-8.19901e-08
4.24327e-06
-6.06094e-10
4.37782e-08
4.24444e-06
4.51658e-06
-2.89298e-07
4.49347e-06
-8.65203e-07
4.47686e-06
-5.71838e-07
4.55459e-06
8.86961e-07
4.55565e-06
-2.82896e-07
4.53552e-06
-1.23642e-06
4.47208e-06
-1.45736e-06
4.44023e-06
-1.14107e-06
4.4256e-06
-7.71219e-07
4.4323e-06
-3.46238e-07
4.44023e-06
-1.65509e-07
4.4652e-06
-1.09427e-08
4.4872e-06
4.36069e-08
4.4861e-06
-1.02262e-07
4.47835e-06
-1.79327e-07
4.46623e-06
-1.6754e-07
4.45213e-06
-1.44331e-07
4.44785e-06
-7.77075e-08
4.44937e-06
-2.12653e-09
4.22413e-08
4.45091e-06
4.73245e-06
-2.79636e-07
4.70935e-06
-8.42095e-07
4.69258e-06
-5.55076e-07
4.77078e-06
8.08761e-07
4.77167e-06
-2.83781e-07
4.74953e-06
-1.21428e-06
4.68853e-06
-1.39636e-06
4.65517e-06
-1.10772e-06
4.64113e-06
-7.57176e-07
4.64756e-06
-3.52664e-07
4.6549e-06
-1.72851e-07
4.67852e-06
-3.45679e-08
4.69982e-06
2.23126e-08
4.69871e-06
-1.01155e-07
4.69121e-06
-1.71827e-07
4.68066e-06
-1.5699e-07
4.6677e-06
-1.31374e-07
4.66319e-06
-7.31884e-08
4.66509e-06
-4.02955e-09
4.01381e-08
4.66719e-06
4.95879e-06
-2.69631e-07
4.9356e-06
-8.189e-07
4.91874e-06
-5.38219e-07
4.99691e-06
7.30596e-07
4.99802e-06
-2.84892e-07
4.97377e-06
-1.19003e-06
4.91525e-06
-1.33784e-06
4.88063e-06
-1.0731e-06
4.86694e-06
-7.43488e-07
4.87319e-06
-3.58914e-07
4.8799e-06
-1.7956e-07
4.90213e-06
-5.67952e-08
4.92272e-06
1.71808e-09
4.92161e-06
-1.00042e-07
4.91422e-06
-1.64439e-07
4.90517e-06
-1.47938e-07
4.89349e-06
-1.19697e-07
4.88875e-06
-6.84488e-08
4.89077e-06
-6.04765e-09
3.73142e-08
4.89359e-06
5.19605e-06
-2.59366e-07
5.1728e-06
-7.95645e-07
5.15595e-06
-5.21377e-07
5.23339e-06
6.53155e-07
5.23507e-06
-2.86566e-07
5.20876e-06
-1.16372e-06
5.1527e-06
-1.28178e-06
5.1171e-06
-1.03749e-06
5.10354e-06
-7.29937e-07
5.10969e-06
-3.65058e-07
5.11578e-06
-1.85654e-07
5.13648e-06
-7.74963e-08
5.15648e-06
-1.82824e-08
5.1554e-06
-9.89543e-08
5.14794e-06
-1.56982e-07
5.14027e-06
-1.40265e-07
5.12997e-06
-1.09401e-07
5.12506e-06
-6.35413e-08
5.12689e-06
-7.87539e-09
3.37433e-08
5.13046e-06
5.4447e-06
-2.48876e-07
5.42149e-06
-7.72431e-07
5.40484e-06
-5.04734e-07
5.4808e-06
5.77197e-07
5.48324e-06
-2.89009e-07
5.45503e-06
-1.13551e-06
5.4014e-06
-1.22815e-06
5.36511e-06
-1.0012e-06
5.35149e-06
-7.16318e-07
5.35757e-06
-3.71133e-07
5.36313e-06
-1.91212e-07
5.38214e-06
-9.65135e-08
5.40162e-06
-3.7758e-08
5.40069e-06
-9.80279e-08
5.39302e-06
-1.49309e-07
5.38645e-06
-1.33698e-07
5.37764e-06
-1.00587e-07
5.37271e-06
-5.86107e-08
5.37403e-06
-9.1965e-09
2.95932e-08
5.37818e-06
5.70525e-06
-2.38164e-07
5.68219e-06
-7.49373e-07
5.666e-06
-4.88543e-07
5.73977e-06
5.03428e-07
5.74303e-06
-2.92268e-07
5.71313e-06
-1.10562e-06
5.66189e-06
-1.17691e-06
5.62525e-06
-9.64557e-07
5.61138e-06
-7.02448e-07
5.61739e-06
-3.77142e-07
5.62254e-06
-1.96362e-07
5.63968e-06
-1.13661e-07
5.65863e-06
-5.67092e-08
5.65811e-06
-9.75058e-08
5.65012e-06
-1.41317e-07
5.64432e-06
-1.27898e-07
5.63701e-06
-9.32805e-08
5.63229e-06
-5.38909e-08
5.63285e-06
-9.75624e-09
2.51693e-08
5.63728e-06
5.97826e-06
-2.27226e-07
5.95543e-06
-7.26543e-07
5.93997e-06
-4.73089e-07
6.01099e-06
4.32404e-07
6.01498e-06
-2.96255e-07
5.98362e-06
-1.07425e-06
5.93476e-06
-1.12805e-06
5.89807e-06
-9.27868e-07
5.8838e-06
-6.88175e-07
5.88971e-06
-3.83059e-07
5.89463e-06
-2.01277e-07
5.90974e-06
-1.28769e-07
5.92807e-06
-7.5039e-08
5.92823e-06
-9.76725e-08
5.91993e-06
-1.33016e-07
5.9145e-06
-1.22467e-07
5.90866e-06
-8.74385e-08
5.90437e-06
-4.95983e-08
5.90416e-06
-9.54631e-09
2.0904e-08
5.90842e-06
6.26434e-06
-2.16078e-07
6.24174e-06
-7.03944e-07
6.22728e-06
-4.5863e-07
6.29519e-06
3.64497e-07
6.29973e-06
-3.00797e-07
6.26711e-06
-1.04163e-06
6.22059e-06
-1.08153e-06
6.18416e-06
-8.91446e-07
6.16936e-06
-6.73371e-07
6.17513e-06
-3.88825e-07
6.17999e-06
-2.06144e-07
6.19299e-06
-1.41765e-07
6.21046e-06
-9.25108e-08
6.21164e-06
-9.88473e-08
6.20311e-06
-1.24485e-07
6.19771e-06
-1.17068e-07
6.19314e-06
-8.28684e-08
6.18944e-06
-4.59008e-08
6.18866e-06
-8.76302e-09
1.71515e-08
6.19241e-06
6.56415e-06
-2.04763e-07
6.54173e-06
-6.81516e-07
6.52846e-06
-4.45365e-07
6.59306e-06
2.99901e-07
6.59796e-06
-3.05696e-07
6.56426e-06
-1.00793e-06
6.52001e-06
-1.03727e-06
6.48415e-06
-8.55588e-07
6.46872e-06
-6.57941e-07
6.47423e-06
-3.94334e-07
6.47925e-06
-2.11162e-07
6.49015e-06
-1.52668e-07
6.50641e-06
-1.08777e-07
6.50888e-06
-1.01308e-07
6.50029e-06
-1.159e-07
6.49462e-06
-1.11399e-07
6.49109e-06
-7.93347e-08
6.48811e-06
-4.29257e-08
6.48698e-06
-7.63237e-09
1.4132e-08
6.49e-06
6.87839e-06
-1.93367e-07
6.85602e-06
-6.59145e-07
6.84406e-06
-4.33402e-07
6.9053e-06
2.38663e-07
6.9104e-06
-3.10798e-07
6.87576e-06
-9.73298e-07
6.83366e-06
-9.95172e-07
6.79864e-06
-8.20566e-07
6.78254e-06
-6.41838e-07
6.78763e-06
-3.99427e-07
6.79296e-06
-2.1649e-07
6.80193e-06
-1.61642e-07
6.81662e-06
-1.23466e-07
6.82048e-06
-1.05169e-07
6.81216e-06
-1.0758e-07
6.80598e-06
-1.05221e-07
6.80306e-06
-7.64116e-08
6.80102e-06
-4.08845e-08
6.79978e-06
-6.39098e-09
1.19234e-08
6.80199e-06
7.20777e-06
-1.82004e-07
7.18533e-06
-6.36702e-07
7.17472e-06
-4.22789e-07
7.23253e-06
1.80849e-07
7.23777e-06
-3.16033e-07
7.20237e-06
-9.37899e-07
7.16223e-06
-9.55036e-07
7.1283e-06
-7.8664e-07
7.11152e-06
-6.25056e-07
7.11602e-06
-4.03925e-07
7.1217e-06
-2.22172e-07
7.12901e-06
-1.68949e-07
7.14182e-06
-1.36279e-07
7.14705e-06
-1.10396e-07
7.13956e-06
-1.00091e-07
7.13259e-06
-9.82508e-08
7.12961e-06
-7.34292e-08
7.1285e-06
-3.97731e-08
7.12765e-06
-5.54878e-09
1.05233e-08
7.12905e-06
7.55304e-06
-1.70818e-07
7.53037e-06
-6.14034e-07
7.52112e-06
-4.13538e-07
7.57543e-06
1.26543e-07
7.58082e-06
-3.21427e-07
7.54483e-06
-9.01912e-07
7.50644e-06
-9.16644e-07
7.47381e-06
-7.54007e-07
7.4564e-06
-6.07642e-07
7.46012e-06
-4.0765e-07
7.46616e-06
-2.28209e-07
7.47209e-06
-1.74881e-07
7.48282e-06
-1.47003e-07
7.48921e-06
-1.16795e-07
7.4833e-06
-9.41792e-08
7.47547e-06
-9.04149e-08
7.47172e-06
-6.96811e-08
7.47086e-06
-3.89172e-08
7.47054e-06
-5.22431e-09
9.36563e-09
7.4717e-06
7.91495e-06
-1.59962e-07
7.89193e-06
-5.91008e-07
7.88405e-06
-4.05664e-07
7.93463e-06
7.59723e-08
7.94031e-06
-3.27109e-07
7.904e-06
-8.656e-07
7.86706e-06
-8.79704e-07
7.8359e-06
-7.22852e-07
7.81795e-06
-5.8969e-07
7.82066e-06
-4.10361e-07
7.82696e-06
-2.34509e-07
7.83186e-06
-1.79785e-07
7.84048e-06
-1.55624e-07
7.8476e-06
-1.23912e-07
7.84433e-06
-9.09073e-08
7.83618e-06
-8.22648e-08
7.83035e-06
-6.38552e-08
7.82789e-06
-3.64577e-08
7.8278e-06
-5.12738e-09
6.67488e-09
7.83049e-06
8.29432e-06
-1.49598e-07
8.27075e-06
-5.67446e-07
8.26434e-06
-3.99252e-07
8.31098e-06
2.93362e-08
8.31697e-06
-3.33103e-07
8.28065e-06
-8.29275e-07
8.24489e-06
-8.43943e-07
8.21526e-06
-6.93225e-07
8.19697e-06
-5.714e-07
8.19853e-06
-4.11927e-07
8.20491e-06
-2.40882e-07
8.209e-06
-1.83877e-07
8.21566e-06
-1.6228e-07
8.22282e-06
-1.31077e-07
8.22207e-06
-9.01586e-08
8.21746e-06
-7.76549e-08
8.21911e-06
-6.55075e-08
8.22674e-06
-4.40873e-08
8.23113e-06
-9.51541e-09
8.64809e-09
8.22916e-06
8.69195e-06
-1.39883e-07
8.66771e-06
-5.43206e-07
8.66282e-06
-3.94361e-07
8.70528e-06
-1.31237e-08
8.7116e-06
-3.39428e-07
8.67565e-06
-7.93321e-07
8.64083e-06
-8.09129e-07
8.61273e-06
-6.65125e-07
8.59421e-06
-5.52877e-07
8.59449e-06
-4.12209e-07
8.60087e-06
-2.47257e-07
8.6043e-06
-1.87313e-07
8.60925e-06
-1.67226e-07
8.61741e-06
-1.39234e-07
8.62091e-06
-9.36629e-08
8.6198e-06
-7.65424e-08
8.61862e-06
-6.43321e-08
8.62135e-06
-4.6813e-08
8.62513e-06
-1.32993e-08
9.1629e-09
8.62462e-06
9.1087e-06
-1.30965e-07
9.08364e-06
-5.1814e-07
9.08029e-06
-3.91017e-07
9.11864e-06
-5.14677e-08
9.12487e-06
-3.45666e-07
9.08981e-06
-7.58255e-07
9.05576e-06
-7.7508e-07
9.02907e-06
-6.38439e-07
9.01058e-06
-5.34381e-07
9.00952e-06
-4.11153e-07
9.01565e-06
-2.53389e-07
9.01874e-06
-1.90397e-07
9.02224e-06
-1.70733e-07
9.03004e-06
-1.47034e-07
9.03434e-06
-9.7958e-08
9.0342e-06
-7.64004e-08
9.03375e-06
-6.38858e-08
9.03679e-06
-4.98504e-08
9.04116e-06
-1.76704e-08
1.00131e-08
9.04031e-06
9.54546e-06
-1.22966e-07
9.51957e-06
-4.92246e-07
9.51765e-06
-3.89104e-07
9.55198e-06
-8.57945e-08
9.55761e-06
-3.51297e-07
9.52396e-06
-7.24604e-07
9.49068e-06
-7.41803e-07
9.46527e-06
-6.13028e-07
9.44677e-06
-5.15881e-07
9.44442e-06
-4.08797e-07
9.45031e-06
-2.5928e-07
9.45354e-06
-1.9363e-07
9.45554e-06
-1.72731e-07
9.46006e-06
-1.5156e-07
9.46191e-06
-9.98081e-08
9.45632e-06
-7.08087e-08
9.44746e-06
-5.50234e-08
9.4418e-06
-4.41913e-08
9.44398e-06
-1.98502e-08
1.9582e-09
9.45203e-06
1.00032e-05
-1.15993e-07
9.9765e-06
-4.65588e-07
9.97577e-06
-3.88366e-07
1.00064e-05
-1.16442e-07
1.00109e-05
-3.55746e-07
9.97892e-06
-6.92661e-07
9.94655e-06
-7.09429e-07
9.92225e-06
-5.88728e-07
9.90385e-06
-4.97481e-07
9.90024e-06
-4.05195e-07
9.90525e-06
-2.64284e-07
9.90795e-06
-1.96331e-07
9.90862e-06
-1.73403e-07
9.91474e-06
-1.57682e-07
9.92192e-06
-1.0698e-07
9.92634e-06
-7.52305e-08
9.92773e-06
-5.64145e-08
9.93009e-06
-4.65535e-08
9.93232e-06
-2.20781e-08
3.24491e-09
9.93103e-06
1.04828e-05
-1.10106e-07
1.04555e-05
-4.38383e-07
1.04555e-05
-3.88303e-07
1.0483e-05
-1.43992e-07
1.04857e-05
-3.5841e-07
1.04556e-05
-6.62599e-07
1.04244e-05
-6.78201e-07
1.0401e-05
-5.65305e-07
1.03826e-05
-4.79054e-07
1.03778e-05
-4.00423e-07
1.0382e-05
-2.68543e-07
1.03848e-05
-1.9913e-07
1.03836e-05
-1.72149e-07
1.03849e-05
-1.58966e-07
1.03876e-05
-1.09728e-07
1.03858e-05
-7.34478e-08
1.03795e-05
-5.00894e-08
1.03749e-05
-4.19586e-08
1.03758e-05
-2.30028e-08
-2.94911e-09
1.0382e-05
1.09852e-05
-1.05316e-07
1.09577e-05
-4.10871e-07
1.09578e-05
-3.8843e-07
1.09829e-05
-1.69043e-07
1.09835e-05
-3.59051e-07
1.09549e-05
-6.33966e-07
1.09251e-05
-6.48365e-07
1.09026e-05
-5.42814e-07
1.08843e-05
-4.6075e-07
1.0878e-05
-3.94118e-07
1.08808e-05
-2.71375e-07
1.0883e-05
-2.01313e-07
1.08806e-05
-1.69804e-07
1.08802e-05
-1.58576e-07
1.08832e-05
-1.12697e-07
1.0883e-05
-7.3268e-08
1.08796e-05
-4.66168e-08
1.0877e-05
-3.93627e-08
1.08774e-05
-2.34091e-08
-6.9677e-09
1.08814e-05
1.15116e-05
-1.01602e-07
1.14841e-05
-3.83283e-07
1.14839e-05
-3.88246e-07
1.1507e-05
-1.9217e-07
1.15057e-05
-3.57776e-07
1.14779e-05
-6.06116e-07
1.14497e-05
-6.20216e-07
1.14282e-05
-5.21328e-07
1.14097e-05
-4.42162e-07
1.14018e-05
-3.86227e-07
1.14034e-05
-2.72976e-07
1.14052e-05
-2.03128e-07
1.14023e-05
-1.66958e-07
1.14004e-05
-1.56689e-07
1.14027e-05
-1.14943e-07
1.14043e-05
-7.48588e-08
1.14025e-05
-4.48016e-08
1.14001e-05
-3.69752e-08
1.14005e-05
-2.37814e-08
-1.00309e-08
1.14035e-05
1.20631e-05
-9.88543e-08
1.20358e-05
-3.56029e-07
1.20348e-05
-3.87196e-07
1.20564e-05
-2.13819e-07
1.20534e-05
-3.54711e-07
1.20258e-05
-5.78611e-07
1.19993e-05
-5.93676e-07
1.19789e-05
-5.00954e-07
1.19604e-05
-4.23615e-07
1.1951e-05
-3.76814e-07
1.19509e-05
-2.7293e-07
1.19523e-05
-2.04468e-07
1.19496e-05
-1.64266e-07
1.19467e-05
-1.53771e-07
1.1948e-05
-1.16265e-07
1.19506e-05
-7.74322e-08
1.19499e-05
-4.41175e-08
1.19481e-05
-3.51756e-08
1.19482e-05
-2.39048e-08
-1.22305e-08
1.19504e-05
1.26407e-05
-9.69295e-08
1.26142e-05
-3.29591e-07
1.26116e-05
-3.84597e-07
1.26321e-05
-2.34337e-07
1.26278e-05
-3.50354e-07
1.26001e-05
-5.50946e-07
1.25748e-05
-5.68382e-07
1.2556e-05
-4.82085e-07
1.25376e-05
-4.05214e-07
1.25265e-05
-3.65787e-07
1.2525e-05
-2.71347e-07
1.25259e-05
-2.05442e-07
1.25234e-05
-1.61738e-07
1.25197e-05
-1.50039e-07
1.25198e-05
-1.16373e-07
1.25227e-05
-8.03388e-08
1.25233e-05
-4.47383e-08
1.25221e-05
-3.39258e-08
1.2522e-05
-2.38393e-08
-1.42602e-08
1.2524e-05
1.32456e-05
-9.56161e-08
1.32205e-05
-3.04466e-07
1.32159e-05
-3.79959e-07
1.32351e-05
-2.53556e-07
1.32302e-05
-3.45487e-07
1.32023e-05
-5.22989e-07
1.31776e-05
-5.43726e-07
1.31604e-05
-4.64911e-07
1.31426e-05
-3.87374e-07
1.31301e-05
-3.53278e-07
1.31266e-05
-2.67881e-07
1.3127e-05
-2.05797e-07
1.31247e-05
-1.5949e-07
1.31209e-05
-1.4618e-07
1.31199e-05
-1.15444e-07
1.31226e-05
-8.30192e-08
1.31243e-05
-4.64057e-08
1.31237e-05
-3.3339e-08
1.31234e-05
-2.35616e-08
-1.59424e-08
1.31251e-05
1.38792e-05
-9.46749e-08
1.38558e-05
-2.81088e-07
1.38488e-05
-3.72915e-07
1.38663e-05
-2.7104e-07
1.38618e-05
-3.41001e-07
1.38337e-05
-4.94937e-07
1.3809e-05
-5.19009e-07
1.37934e-05
-4.49315e-07
1.37767e-05
-3.70623e-07
1.3763e-05
-3.39571e-07
1.37575e-05
-2.6239e-07
1.37571e-05
-2.05366e-07
1.37552e-05
-1.57661e-07
1.37515e-05
-1.42478e-07
1.37495e-05
-1.13417e-07
1.37515e-05
-8.50378e-08
1.37538e-05
-4.87357e-08
1.37541e-05
-3.35551e-08
1.37538e-05
-2.33358e-08
-1.72565e-08
1.37551e-05
1.45428e-05
-9.3844e-08
1.45216e-05
-2.59841e-07
1.45119e-05
-3.63263e-07
1.45273e-05
-2.86399e-07
1.45237e-05
-3.37378e-07
1.44959e-05
-4.67119e-07
1.44705e-05
-4.93667e-07
1.44561e-05
-4.34946e-07
1.4441e-05
-3.55506e-07
1.44267e-05
-3.25294e-07
1.44194e-05
-2.55075e-07
1.44178e-05
-2.03712e-07
1.4416e-05
-1.55845e-07
1.44126e-05
-1.39095e-07
1.441e-05
-1.10824e-07
1.44112e-05
-8.62999e-08
1.44138e-05
-5.1314e-08
1.44148e-05
-3.45164e-08
1.44148e-05
-2.33866e-08
-1.81125e-08
1.44157e-05
1.52379e-05
-9.28769e-08
1.5219e-05
-2.40976e-07
1.5207e-05
-3.51203e-07
1.52195e-05
-2.98931e-07
1.52168e-05
-3.34646e-07
1.51898e-05
-4.40159e-07
1.51638e-05
-4.67619e-07
1.51497e-05
-4.20861e-07
1.51365e-05
-3.4235e-07
1.51225e-05
-3.11303e-07
1.51137e-05
-2.46262e-07
1.51106e-05
-2.00574e-07
1.51085e-05
-1.53788e-07
1.51056e-05
-1.36167e-07
1.51028e-05
-1.07987e-07
1.51031e-05
-8.66429e-08
1.51056e-05
-5.3796e-08
1.5107e-05
-3.59004e-08
1.51074e-05
-2.37639e-08
-1.88766e-08
1.51081e-05
1.5966e-05
-9.15917e-08
1.59495e-05
-2.24466e-07
1.59357e-05
-3.37359e-07
1.59445e-05
-3.07741e-07
1.59425e-05
-3.32615e-07
1.59169e-05
-4.14633e-07
1.58902e-05
-4.40912e-07
1.58755e-05
-4.06101e-07
1.58641e-05
-3.31003e-07
1.58514e-05
-2.98554e-07
1.58417e-05
-2.366e-07
1.58372e-05
-1.96085e-07
1.58346e-05
-1.51115e-07
1.58319e-05
-1.33463e-07
1.5829e-05
-1.05167e-07
1.58286e-05
-8.61707e-08
1.58307e-05
-5.59513e-08
1.58325e-05
-3.77027e-08
1.58331e-05
-2.4381e-08
-1.97924e-08
1.58341e-05
1.67289e-05
-8.9849e-08
1.67145e-05
-2.1011e-07
1.66995e-05
-3.22363e-07
1.67039e-05
-3.12092e-07
1.67019e-05
-3.30705e-07
1.66786e-05
-3.91311e-07
1.66516e-05
-4.13887e-07
1.66355e-05
-3.90013e-07
1.6625e-05
-3.20513e-07
1.66142e-05
-2.87707e-07
1.66049e-05
-2.27282e-07
1.65992e-05
-1.90407e-07
1.65957e-05
-1.47607e-07
1.65929e-05
-1.3068e-07
1.65903e-05
-1.02592e-07
1.65893e-05
-8.5138e-08
1.65909e-05
-5.75639e-08
1.65929e-05
-3.97125e-08
1.65936e-05
-2.50502e-08
-2.07812e-08
1.65946e-05
1.75281e-05
-8.75821e-08
1.75157e-05
-1.97681e-07
1.74999e-05
-3.06616e-07
1.74996e-05
-3.11744e-07
1.74973e-05
-3.28436e-07
1.74768e-05
-3.7082e-07
1.74503e-05
-3.8737e-07
1.74327e-05
-3.72418e-07
1.74216e-05
-3.09438e-07
1.74123e-05
-2.78397e-07
1.74042e-05
-2.19158e-07
1.7398e-05
-1.84254e-07
1.73936e-05
-1.43185e-07
1.73905e-05
-1.27588e-07
1.73881e-05
-1.00185e-07
1.73868e-05
-8.38298e-08
1.73876e-05
-5.83776e-08
1.73897e-05
-4.18173e-08
1.73906e-05
-2.58872e-08
-2.16792e-08
1.73915e-05
1.83656e-05
-8.47964e-08
1.83546e-05
-1.86701e-07
1.83386e-05