/*--------------------------------*- C++ -*----------------------------------*\
| =========                 |                                                 |
| \\      /  F ield         | OpenFOAM: The Open Source CFD Toolbox           |
|  \\    /   O peration     | Version:  v1912                                 |
|   \\  /    A nd           | Website:  www.openfoam.com                      |
|    \\/     M anipulation  |                                                 |
\*---------------------------------------------------------------------------*/
FoamFile
{
    version     2.0;
    format      ascii;
    class       volVectorField;
    location    "3.5";
    object      U;
}
// * * * * * * * * * * * * * * * * * * * * * * * * * * * * * * * * * * * * * //

dimensions      [0 1 -1 0 0 0 0];


internalField   nonuniform List<vector> 
9600
(
(0.974742 0.0115764 0)
(1.0785 -0.019183 0)
(0.845837 0.00755203 0)
(1.14145 0.0127808 0)
(0.870212 -0.0133225 0)
(1.00258 -0.0123403 0)
(0.947667 0.012834 0)
(1.12667 -0.00812959 0)
(0.789667 0.0273719 0)
(1.23343 0.0161188 0)
(0.694798 0.00466025 0)
(1.24926 0.0240642 0)
(0.786763 -0.00547526 0)
(1.12769 0.0184822 0)
(0.883341 -0.0139674 0)
(1.09426 -0.00311398 0)
(0.908498 -0.0183178 0)
(1.10586 -0.0196302 0)
(0.914991 -0.0137372 0)
(1.14587 -0.0231704 0)
(0.976657 0.0111959 0)
(1.07158 -0.0179849 0)
(0.85155 0.00702345 0)
(1.12924 0.0127536 0)
(0.887146 -0.0119745 0)
(1.0005 -0.0131666 0)
(0.951864 0.0111556 0)
(1.12023 -0.00572673 0)
(0.798228 0.0261443 0)
(1.21303 0.0180456 0)
(0.733436 0.0040364 0)
(1.2083 0.0229161 0)
(0.867175 -0.00310495 0)
(1.08048 0.0170394 0)
(0.956998 -0.0128467 0)
(1.03793 -0.0037555 0)
(0.986303 -0.0180404 0)
(1.0179 -0.0205849 0)
(1.01106 -0.0141624 0)
(1.02659 -0.0249711 0)
(0.980387 0.0108504 0)
(1.06176 -0.0170715 0)
(0.865625 0.00635546 0)
(1.10563 0.0126316 0)
(0.910316 -0.011084 0)
(0.992777 -0.0136976 0)
(0.961005 0.00981696 0)
(1.10616 -0.00388759 0)
(0.824505 0.0244443 0)
(1.17157 0.0191432 0)
(0.807465 0.00371611 0)
(1.1366 0.0211846 0)
(0.940173 -0.0011809 0)
(1.03258 0.0153823 0)
(0.977311 -0.0120602 0)
(1.00068 -0.00474695 0)
(0.985013 -0.0174808 0)
(0.985018 -0.0210982 0)
(1.00096 -0.0152702 0)
(1.00664 -0.0221066 0)
(0.985658 0.0105732 0)
(1.04927 -0.0162257 0)
(0.887249 0.00589555 0)
(1.075 0.012362 0)
(0.935942 -0.0102206 0)
(0.980755 -0.0140905 0)
(0.971854 0.00864018 0)
(1.08527 -0.00230983 0)
(0.867183 0.0233774 0)
(1.12161 0.0193083 0)
(0.888298 0.00423983 0)
(1.06748 0.0192868 0)
(0.980122 0.000235376 0)
(1.00229 0.0149013 0)
(0.97896 -0.0113774 0)
(0.982089 -0.00507566 0)
(0.977102 -0.0168848 0)
(0.973055 -0.0217784 0)
(0.986979 -0.0155482 0)
(0.994433 -0.0221051 0)
(0.991907 0.010344 0)
(1.03506 -0.0155046 0)
(0.912977 0.00565 0)
(1.0437 0.0120447 0)
(0.958306 -0.00945489 0)
(0.969067 -0.0143709 0)
(0.979617 0.00751714 0)
(1.06165 -0.00120207 0)
(0.915449 0.0229045 0)
(1.0786 0.0190293 0)
(0.951781 0.0050962 0)
(1.02413 0.0180149 0)
(0.995027 0.0012244 0)
(0.989224 0.0149897 0)
(0.980332 -0.0106558 0)
(0.974511 -0.0053056 0)
(0.974645 -0.0164218 0)
(0.969905 -0.022128 0)
(0.978943 -0.0160789 0)
(0.987263 -0.0222008 0)
(0.998457 0.0101658 0)
(1.02044 -0.0149181 0)
(0.938195 0.00555976 0)
(1.01809 0.0117276 0)
(0.973797 -0.00882431 0)
(0.962079 -0.0145305 0)
(0.982156 0.00650639 0)
(1.04073 -0.000617404 0)
(0.957015 0.022706 0)
(1.05132 0.0185506 0)
(0.991745 0.00592376 0)
(1.00723 0.0175026 0)
(0.999494 0.00189507 0)
(0.986871 0.0151005 0)
(0.984868 -0.00990831 0)
(0.974671 -0.00552776 0)
(0.975479 -0.0159767 0)
(0.97153 -0.0223394 0)
(0.975057 -0.0165732 0)
(0.982692 -0.0222606 0)
(1.00476 0.0100455 0)
(1.00662 -0.0144577 0)
(0.959211 0.00554963 0)
(1.00179 0.0114755 0)
(0.982465 -0.00832977 0)
(0.961167 -0.0145715 0)
(0.981359 0.00564576 0)
(1.0259 -0.000532395 0)
(0.985222 0.0225331 0)
(1.03881 0.0180626 0)
(1.01345 0.00664063 0)
(1.00543 0.0174782 0)
(1.00235 0.00245661 0)
(0.990013 0.0151023 0)
(0.991022 -0.00918655 0)
(0.979482 -0.00568682 0)
(0.978778 -0.0154975 0)
(0.974382 -0.0224441 0)
(0.974056 -0.0168928 0)
(0.979303 -0.0221874 0)
(1.01047 0.00998193 0)
(0.994469 -0.0140941 0)
(0.974662 0.00554452 0)
(0.99465 0.0113248 0)
(0.986691 -0.0079425 0)
(0.96498 -0.0145298 0)
(0.980862 0.00491078 0)
(1.01694 -0.000785491 0)
(1.00007 0.0222917 0)
(1.03479 0.017634 0)
(1.02388 0.00726157 0)
(1.00852 0.0176745 0)
(1.00612 0.00301175 0)
(0.995495 0.0149998 0)
(0.997967 -0.00847931 0)
(0.9865 -0.00578953 0)
(0.984239 -0.0149126 0)
(0.977959 -0.0223931 0)
(0.9746 -0.0170209 0)
(0.977173 -0.0219529 0)
(1.01536 0.00996812 0)
(0.984641 -0.0137926 0)
(0.985379 0.00547598 0)
(0.994113 0.0112715 0)
(0.98901 -0.00762854 0)
(0.971318 -0.0144611 0)
(0.983137 0.00429546 0)
(1.01125 -0.00118128 0)
(1.00516 0.0219684 0)
(1.033 0.0172304 0)
(1.02761 0.00781152 0)
(1.01155 0.0179265 0)
(1.01028 0.00354491 0)
(1.00159 0.0147992 0)
(1.00525 -0.00777906 0)
(0.994402 -0.00584988 0)
(0.990995 -0.0142263 0)
(0.982688 -0.0221184 0)
(0.976278 -0.0169484 0)
(0.976258 -0.0215382 0)
(1.01911 0.00999364 0)
(0.977736 -0.0135295 0)
(0.993082 0.00529899 0)
(0.997202 0.0112966 0)
(0.990913 -0.00736342 0)
(0.978326 -0.0144174 0)
(0.988449 0.00382163 0)
(1.00614 -0.00155128 0)
(1.00469 0.0215788 0)
(1.02988 0.0168133 0)
(1.02708 0.00828829 0)
(1.01339 0.0181372 0)
(1.01376 0.00400906 0)
(1.00735 0.0145002 0)
(1.012 -0.0070961 0)
(1.0021 -0.00591003 0)
(0.998021 -0.0134406 0)
(0.988396 -0.0215816 0)
(0.979168 -0.0166602 0)
(0.97651 -0.0209511 0)
(1.0213 0.0100444 0)
(0.974298 -0.013296 0)
(0.998969 0.00500777 0)
(1.00163 0.0113758 0)
(0.992954 -0.00713119 0)
(0.984586 -0.0144346 0)
(0.995457 0.00351777 0)
(1.0004 -0.00179369 0)
(1.00211 0.0211381 0)
(1.02481 0.0163864 0)
(1.0241 0.00865676 0)
(1.01453 0.0182416 0)
(1.01596 0.00439021 0)
(1.01212 0.0141095 0)
(1.01722 -0.00645656 0)
(1.00832 -0.00597244 0)
(1.00423 -0.0125794 0)
(0.99432 -0.0208453 0)
(0.983071 -0.016191 0)
(0.977985 -0.0201618 0)
(1.02158 0.0101029 0)
(0.974514 -0.0130897 0)
(1.00315 0.00462392 0)
(1.00589 0.0114984 0)
(0.995317 -0.00690581 0)
(0.98904 -0.0145245 0)
(1.00213 0.00339603 0)
(0.99445 -0.00187973 0)
(0.999691 0.0206526 0)
(1.01911 0.0159749 0)
(1.02036 0.0088744 0)
(1.01567 0.0182211 0)
(1.01702 0.00470037 0)
(1.01542 0.013625 0)
(1.02036 -0.00584874 0)
(1.0121 -0.00603718 0)
(1.00859 -0.0117217 0)
(0.999462 -0.020012 0)
(0.987326 -0.0155862 0)
(0.980551 -0.0190987 0)
(1.02001 0.0101509 0)
(0.977887 -0.0129066 0)
(1.00512 0.00419087 0)
(1.00897 0.0116418 0)
(0.998104 -0.00666142 0)
(0.991262 -0.014666 0)
(1.00657 0.00342725 0)
(0.989611 -0.00182973 0)
(0.998281 0.0201227 0)
(1.01443 0.0156064 0)
(1.01706 0.0089125 0)
(1.01694 0.0181024 0)
(1.01747 0.00497745 0)
(1.0171 0.0130834 0)
(1.02153 -0.0052317 0)
(1.01334 -0.00612079 0)
(1.01058 -0.0109437 0)
(1.00301 -0.019148 0)
(0.991077 -0.0148889 0)
(0.983674 -0.0178322 0)
(1.01711 0.0101731 0)
(0.983246 -0.0127368 0)
(1.00467 0.00376043 0)
(1.01038 0.0117628 0)
(1.00127 -0.00638617 0)
(0.991633 -0.0148068 0)
(1.00776 0.00354977 0)
(0.98702 -0.00169864 0)
(0.997537 0.0195487 0)
(1.01157 0.0152879 0)
(1.01463 0.00879578 0)
(1.01778 0.0179152 0)
(1.01777 0.00526469 0)
(1.01738 0.0125382 0)
(1.02129 -0.00459379 0)
(1.01286 -0.00620433 0)
(1.01052 -0.0102702 0)
(1.0047 -0.0183056 0)
(0.993731 -0.0141993 0)
(0.986588 -0.0165101 0)
(1.01367 0.010161 0)
(0.989186 -0.012566 0)
(1.00234 0.00337034 0)
(1.0102 0.0118249 0)
(1.00455 -0.00608239 0)
(0.99106 -0.0148831 0)
(1.00602 0.00369427 0)
(0.986798 -0.00154826 0)
(0.996754 0.0189454 0)
(1.01014 0.0150049 0)
(1.01283 0.00859298 0)
(1.01751 0.0176726 0)
(1.018 0.00556607 0)
(1.01677 0.012027 0)
(1.02033 -0.00393895 0)
(1.01179 -0.00624802 0)
(1.00935 -0.0096821 0)
(1.00495 -0.0175296 0)
(0.995257 -0.0135985 0)
(0.988757 -0.0152339 0)
(1.01038 0.0101132 0)
(0.994607 -0.0123828 0)
(0.999199 0.00304163 0)
(1.00892 0.0118031 0)
(1.00762 -0.0057649 0)
(0.990418 -0.0148515 0)
(1.00267 0.00380031 0)
(0.988036 -0.00141099 0)
(0.995642 0.0183346 0)
(1.00924 0.0147448 0)
(1.01122 0.00836122 0)
(1.01593 0.017383 0)
(1.01795 0.0058618 0)
(1.01581 0.0115652 0)
(1.01916 -0.00326841 0)
(1.01092 -0.00624744 0)
(1.00812 -0.00912704 0)
(1.00449 -0.0168254 0)
(0.99606 -0.0130979 0)
(0.990152 -0.0140519 0)
(1.00763 0.0100337 0)
(0.998987 -0.0121794 0)
(0.996253 0.00277825 0)
(1.00714 0.0116922 0)
(1.01021 -0.00545264 0)
(0.990181 -0.014696 0)
(0.999154 0.00384491 0)
(0.98954 -0.00129576 0)
(0.994333 0.0177306 0)
(1.00812 0.0145049 0)
(1.00947 0.00813518 0)
(1.01344 0.0170526 0)
(1.01741 0.00612865 0)
(1.0148 0.0111376 0)
(1.01807 -0.00260137 0)
(1.01048 -0.00622332 0)
(1.00736 -0.00856517 0)
(1.00399 -0.0161483 0)
(0.996617 -0.0126855 0)
(0.991102 -0.012951 0)
(1.00547 0.00992791 0)
(1.00228 -0.011954 0)
(0.994013 0.00257613 0)
(1.00529 0.0114998 0)
(1.01222 -0.00516095 0)
(0.990414 -0.0144219 0)
(0.996284 0.00384095 0)
(0.990587 -0.00119653 0)
(0.992977 0.0171437 0)
(1.00656 0.0142917 0)
(1.00754 0.00792142 0)
(1.0107 0.0166911 0)
(1.0164 0.00633378 0)
(1.01383 0.0107162 0)
(1.01714 -0.00195457 0)
(1.0103 -0.00619251 0)
(1.00708 -0.00799825 0)
(1.00374 -0.0154379 0)
(0.997202 -0.0123498 0)
(0.991929 -0.0119179 0)
(1.00383 0.00980093 0)
(1.00466 -0.0117086 0)
(0.992543 0.00242678 0)
(1.00355 0.0112413 0)
(1.01365 -0.00490064 0)
(0.990956 -0.0140451 0)
(0.994188 0.00381436 0)
(0.991091 -0.00109655 0)
(0.991583 0.0165725 0)
(1.00468 0.014113 0)
(1.00558 0.00770778 0)
(1.00815 0.0162936 0)
(1.01511 0.00647192 0)
(1.0129 0.0102765 0)
(1.01632 -0.00133706 0)
(1.0102 -0.00615841 0)
(1.00704 -0.00744137 0)
(1.00371 -0.0146766 0)
(0.997868 -0.0120924 0)
(0.992752 -0.0109497 0)
(1.0026 0.00965697 0)
(1.00631 -0.0114471 0)
(0.991697 0.00232094 0)
(1.00199 0.010934 0)
(1.01459 -0.00467762 0)
(0.991617 -0.0135816 0)
(0.992692 0.00378249 0)
(0.991301 -0.000977023 0)
(0.990171 0.0160118 0)
(1.00275 0.013962 0)
(1.00383 0.00748195 0)
(1.00603 0.0158614 0)
(1.01378 0.00655144 0)
(1.01203 0.00979631 0)
(1.01556 -0.000742011 0)
(1.0101 -0.00612831 0)
(1.00706 -0.00691905 0)
(1.00378 -0.0138647 0)
(0.998564 -0.0119045 0)
(0.993552 -0.0100374 0)
(1.00171 0.00949934 0)
(1.00739 -0.0111727 0)
(0.991312 0.00225064 0)
(1.00065 0.0105921 0)
(1.01511 -0.00449267 0)
(0.992262 -0.0130446 0)
(0.991641 0.00375044 0)
(0.991461 -0.000827621 0)
(0.988868 0.0154589 0)
(1.00106 0.0138257 0)
(1.00244 0.00723561 0)
(1.00435 0.0153997 0)
(1.01255 0.00659602 0)
(1.01128 0.00926638 0)
(1.01485 -0.000163723 0)
(1.01 -0.00610287 0)
(1.00707 -0.00644963 0)
(1.00385 -0.0129907 0)
(0.99924 -0.0117608 0)
(0.994286 -0.00920408 0)
(1.00108 0.00933058 0)
(1.00801 -0.0108875 0)
(0.991261 0.00220659 0)
(0.999534 0.0102282 0)
(1.01532 -0.00434372 0)
(0.992833 -0.0124461 0)
(0.990953 0.00371745 0)
(0.991689 -0.000644799 0)
(0.987825 0.0149068 0)
(0.999782 0.0136973 0)
(1.00145 0.00696948 0)
(1.00307 0.0149111 0)
(1.01145 0.00661661 0)
(1.01066 0.0087003 0)
(1.01419 0.000389419 0)
(1.00992 -0.00605313 0)
(1.00708 -0.00604878 0)
(1.00393 -0.0120529 0)
(0.999877 -0.0116352 0)
(0.994944 -0.00848465 0)
(1.00065 0.00915325 0)
(1.0083 -0.0105939 0)
(0.991446 0.0021817 0)
(0.998651 0.00985122 0)
(1.01527 -0.00422528 0)
(0.993323 -0.0118002 0)
(0.990563 0.00368147 0)
(0.992019 -0.000424179 0)
(0.987099 0.0143498 0)
(0.99897 0.0135692 0)
(1.0008 0.00669816 0)
(1.00206 0.0143933 0)
(1.01046 0.00662725 0)
(1.01011 0.00809125 0)
(1.01353 0.000916328 0)
(1.00987 -0.00596241 0)
(1.00709 -0.00573646 0)
(1.004 -0.0110459 0)
(1.00047 -0.0114961 0)
(0.995544 -0.00790078 0)
(1.00039 0.00896892 0)
(1.00836 -0.0102923 0)
(0.991783 0.00216777 0)
(0.997979 0.00947261 0)
(1.01499 -0.00413681 0)
(0.993747 -0.0111156 0)
(0.990387 0.00363951 0)
(0.992452 -0.000170241 0)
(0.986662 0.0137881 0)
(0.998534 0.0134397 0)
(1.00042 0.00642912 0)
(1.00119 0.0138529 0)
(1.00953 0.00663663 0)
(1.00958 0.00743028 0)
(1.01282 0.00140234 0)
(1.00983 -0.00582102 0)
(1.0071 -0.00551603 0)
(1.00405 -0.00999191 0)
(1.00102 -0.0112931 0)
(0.996106 -0.00746709 0)
(1.00024 0.00877827 0)
(1.00824 -0.00998247 0)
(0.992205 0.00215892 0)
(0.997503 0.00909884 0)
(1.01452 -0.00407193 0)
(0.994118 -0.0104052 0)
(0.990347 0.00359034 0)
(0.992982 0.000112229 0)
(0.98647 0.0132184 0)
(0.998328 0.013303 0)
(1.00027 0.00618496 0)
(1.00039 0.0132924 0)
(1.00861 0.0066461 0)
(1.00904 0.00673904 0)
(1.012 0.00182289 0)
(1.00975 -0.00560305 0)
(1.00708 -0.00539493 0)
(1.00404 -0.00893384 0)
(1.00149 -0.0109782 0)
(0.996646 -0.00717978 0)
(1.00019 0.00858179 0)
(1.00801 -0.0096638 0)
(0.992663 0.00214855 0)
(0.997218 0.008737 0)
(1.01385 -0.00402661 0)
(0.994439 -0.00967592 0)
(0.990393 0.00352768 0)
(0.993582 0.000419958 0)
(0.986507 0.0126424 0)
(0.998215 0.0131506 0)
(1.00031 0.00598564 0)
(0.999676 0.0127057 0)
(1.0077 0.00666924 0)
(1.00851 0.00603234 0)
(1.01108 0.0021709 0)
(1.00957 -0.00531036 0)
(1.00701 -0.00535954 0)
(1.00394 -0.00790537 0)
(1.00185 -0.0105159 0)
(0.99717 -0.00704066 0)
(1.00021 0.00837996 0)
(1.0077 -0.00933573 0)
(0.993123 0.00213055 0)
(0.99712 0.00839294 0)
(1.01302 -0.00399551 0)
(0.994703 -0.00893741 0)
(0.990505 0.00345297 0)
(0.994208 0.000741361 0)
(0.986785 0.0120693 0)
(0.998111 0.012975 0)
(1.00054 0.00582955 0)
(0.9991 0.0121122 0)
(1.00683 0.0066994 0)
(1.00802 0.00531518 0)
(1.01008 0.00243619 0)
(1.00926 -0.00494828 0)
(1.00687 -0.00538657 0)
(1.00374 -0.00696128 0)
(1.00203 -0.00989169 0)
(0.997663 -0.00698797 0)
(1.00028 0.0081729 0)
(1.00734 -0.00899691 0)
(0.993568 0.00210005 0)
(0.997198 0.00807152 0)
(1.01205 -0.00397146 0)
(0.994901 -0.00820167 0)
(0.990682 0.00337224 0)
(0.994807 0.00106077 0)
(0.987312 0.0115116 0)
(0.997989 0.0127733 0)
(1.00092 0.00572008 0)
(0.998729 0.0115218 0)
(1.00603 0.00673649 0)
(1.00762 0.00461788 0)
(1.00906 0.0026121 0)
(1.00883 -0.00452016 0)
(1.00666 -0.00544698 0)
(1.00346 -0.00613934 0)
(1.00203 -0.00912305 0)
(0.998099 -0.0069549 0)
(1.00038 0.00796054 0)
(1.00695 -0.00864584 0)
(0.993989 0.00204987 0)
(0.997421 0.00777965 0)
(1.01102 -0.00394651 0)
(0.995029 -0.00747635 0)
(0.99092 0.00328375 0)
(0.995334 0.0013681 0)
(0.988068 0.0109739 0)
(0.997864 0.0125442 0)
(1.00142 0.00564829 0)
(0.998606 0.0109373 0)
(1.00536 0.006782 0)
(1.00734 0.00396679 0)
(1.0081 0.00270501 0)
(1.00828 -0.00403048 0)
(1.00637 -0.00549541 0)
(1.00314 -0.00546014 0)
(1.00184 -0.00823975 0)
(0.998453 -0.00688704 0)
(1.00049 0.00774224 0)
(1.00657 -0.00827979 0)
(0.994384 0.00197397 0)
(0.997738 0.00751979 0)
(1.00999 -0.00391342 0)
(0.995095 -0.00677077 0)
(0.991211 0.00319305 0)
(0.995765 0.00164921 0)
(0.988998 0.0104623 0)
(0.997768 0.0122852 0)
(1.00197 0.00560223 0)
(0.998733 0.0103615 0)
(1.00483 0.00683055 0)
(1.00718 0.00337561 0)
(1.00723 0.00271406 0)
(1.00766 -0.00348649 0)
(1.00604 -0.00550845 0)
(1.00282 -0.00493816 0)
(1.0015 -0.00729398 0)
(0.998695 -0.00670166 0)
(1.00058 0.00751871 0)
(1.0062 -0.0078993 0)
(0.994758 0.00187194 0)
(0.998088 0.00728917 0)
(1.00903 -0.0038652 0)
(0.995121 -0.00609271 0)
(0.991538 0.00310696 0)
(0.996099 0.00188877 0)
(0.99002 0.00997942 0)
(0.997722 0.0119976 0)
(1.00253 0.00557244 0)
(0.999068 0.0097996 0)
(1.00443 0.00688218 0)
(1.00712 0.00286357 0)
(1.00652 0.00264645 0)
(1.00702 -0.00289945 0)
(1.00568 -0.00545539 0)
(1.00254 -0.00456204 0)
(1.00108 -0.00636271 0)
(0.998817 -0.00635981 0)
(1.00065 0.00728827 0)
(1.00587 -0.00750331 0)
(0.995118 0.00174288 0)
(0.998409 0.0070863 0)
(1.00817 -0.00379536 0)
(0.995136 -0.00545147 0)
(0.991879 0.00303219 0)
(0.996357 0.00208776 0)
(0.99105 0.00951157 0)
(0.997727 0.0116894 0)
(1.00304 0.00554204 0)
(0.999543 0.00926342 0)
(1.00413 0.00693094 0)
(1.00713 0.00244698 0)
(1.00597 0.00251764 0)
(1.00638 -0.00228245 0)
(1.00533 -0.00530602 0)
(1.00235 -0.00431352 0)
(1.00065 -0.00550381 0)
(0.998829 -0.0058469 0)
(1.00069 0.00705172 0)
(1.00558 -0.00709318 0)
(0.995473 0.00158718 0)
(0.998658 0.00691176 0)
(1.00743 -0.00370408 0)
(0.995174 -0.00484968 0)
(0.992221 0.00297514 0)
(0.996569 0.00223515 0)
(0.992022 0.00906655 0)
(0.997766 0.0113675 0)
(1.00346 0.00551103 0)
(1.00008 0.00874515 0)
(1.00389 0.00697966 0)
(1.00716 0.00212774 0)
(1.00559 0.0023346 0)
(1.00578 -0.00165589 0)
(1.00499 -0.00503077 0)
(1.00227 -0.0041611 0)
(1.0003 -0.00476974 0)
(0.998762 -0.00519663 0)
(1.0007 0.00680755 0)
(1.00534 -0.00666691 0)
(0.995833 0.00140647 0)
(0.99881 0.00675853 0)
(1.00681 -0.00358843 0)
(0.995258 -0.00428692 0)
(0.992556 0.00294077 0)
(0.996767 0.00233224 0)
(0.992898 0.00863444 0)
(0.997812 0.0110381 0)
(1.00377 0.00546875 0)
(1.00061 0.00823678 0)
(1.00367 0.0070259 0)
(1.00716 0.00190792 0)
(1.00536 0.00211792 0)
(1.00523 -0.00105048 0)
(1.00466 -0.00462231 0)
(1.00228 -0.00405132 0)
(1.00007 -0.00416879 0)
(0.998664 -0.00448505 0)
(1.00069 0.00655481 0)
(1.00513 -0.00622665 0)
(0.996207 0.00120732 0)
(0.998867 0.00662415 0)
(1.00629 -0.003452 0)
(0.995406 -0.00376448 0)
(0.992882 0.00293827 0)
(0.996971 0.00238579 0)
(0.993673 0.00820541 0)
(0.997846 0.0107078 0)
(1.00396 0.00541556 0)
(1.0011 0.00774086 0)
(1.00344 0.00705613 0)
(1.0071 0.0017793 0)
(1.00524 0.00187587 0)
(1.00474 -0.000490458 0)
(1.00434 -0.00410713 0)
(1.00236 -0.00394004 0)
(0.999991 -0.00368414 0)
(0.99858 -0.00379056 0)
(1.00067 0.00629476 0)
(1.00493 -0.00577614 0)
(0.996598 0.000993315 0)
(0.998843 0.00650268 0)
(1.00584 -0.00328395 0)
(0.99562 -0.00329365 0)
(0.993203 0.00296268 0)
(0.997195 0.00240765 0)
(0.99436 0.00777296 0)
(0.99786 0.0103767 0)
(1.00403 0.00535437 0)
(1.00153 0.0072413 0)
(1.0032 0.00708306 0)
(1.00694 0.00174892 0)
(1.00521 0.00160466 0)
(1.00432 -5.16213e-06 0)
(1.00401 -0.00349523 0)
(1.00249 -0.00378325 0)
(1.00006 -0.00332451 0)
(0.998553 -0.00317183 0)
(1.00063 0.00602608 0)
(1.00474 -0.00531341 0)
(0.997006 0.000770566 0)
(0.998764 0.00638596 0)
(1.00544 -0.00309242 0)
(0.995892 -0.0028706 0)
(0.993521 0.00301441 0)
(0.997441 0.00241489 0)
(0.994984 0.00733086 0)
(0.997854 0.0100532 0)
(1.00402 0.00529099 0)
(1.00191 0.00673031 0)
(1.00294 0.0070844 0)
(1.00669 0.00181624 0)
(1.00522 0.00132604 0)
(1.00399 0.000398417 0)
(1.00367 -0.00279886 0)
(1.00261 -0.00354345 0)
(1.00024 -0.00304719 0)
(0.998613 -0.00263774 0)
(1.00059 0.00574908 0)
(1.00454 -0.00484318 0)
(0.997427 0.000542165 0)
(0.998654 0.00627983 0)
(1.00506 -0.00287575 0)
(0.996213 -0.00250167 0)
(0.993838 0.00309884 0)
(0.997702 0.00241366 0)
(0.99557 0.00688269 0)
(0.997841 0.00973822 0)
(1.00395 0.00524071 0)
(1.00224 0.0062258 0)
(1.00268 0.00704324 0)
(1.00636 0.0019618 0)
(1.00526 0.00106466 0)
(1.00374 0.000719734 0)
(1.00332 -0.00206535 0)
(1.00269 -0.00322576 0)
(1.00051 -0.00279971 0)
(0.998755 -0.0021807 0)
(1.00055 0.00546415 0)
(1.00434 -0.00436181 0)
(0.997857 0.000304714 0)
(0.998534 0.00616581 0)
(1.00469 -0.00262262 0)
(0.996569 -0.00218593 0)
(0.994157 0.00320634 0)
(0.99797 0.0024185 0)
(0.996139 0.00641477 0)
(0.997832 0.00942333 0)
(1.00382 0.00519934 0)
(1.00254 0.00571749 0)
(1.00245 0.00695401 0)
(1.00595 0.00218824 0)
(1.0053 0.000835043 0)
(1.00358 0.000925705 0)
(1.00297 -0.00132632 0)
(1.00271 -0.00281307 0)
(1.00081 -0.00257847 0)
(0.998968 -0.00179383 0)
(1.00052 0.00517198 0)
(1.00413 -0.00388129 0)
(0.998289 7.52221e-05 0)
(0.99842 0.0060515 0)
(1.00433 -0.00234456 0)
(0.99695 -0.00193151 0)
(0.994478 0.00332339 0)
(0.998233 0.00244262 0)
(0.996704 0.00592714 0)
(0.997841 0.00910746 0)
(1.00365 0.00519927 0)
(1.00283 0.00520317 0)
(1.00226 0.00679943 0)
(1.00547 0.00248342 0)
(1.00532 0.000678912 0)
(1.00353 0.000999776 0)
(1.00264 -0.000633054 0)
(1.00265 -0.00228875 0)
(1.00112 -0.00236286 0)
(0.999246 -0.00147745 0)
(1.00049 0.00487431 0)
(1.00391 -0.00339394 0)
(0.998722 -0.000156649 0)
(0.998321 0.00591691 0)
(1.00397 -0.00201071 0)
(0.997347 -0.00173462 0)
(0.994806 0.00343893 0)
(0.998479 0.00249197 0)
(0.99727 0.00542499 0)
(0.997885 0.00876402 0)
(1.00345 0.00522046 0)
(1.00311 0.00472494 0)
(1.00214 0.00655966 0)
(1.00496 0.00282495 0)
(1.0053 0.000625944 0)
(1.00357 0.000989378 0)
(1.00237 -4.12736e-05 0)
(1.00252 -0.00168305 0)
(1.0014 -0.00210063 0)
(0.999569 -0.00121627 0)
(1.00047 0.00456783 0)
(1.00369 -0.00290655 0)
(0.999146 -0.000369123 0)
(0.998248 0.00576404 0)
(1.00362 -0.00164475 0)
(0.997753 -0.00157858 0)
(0.995144 0.00353978 0)
(0.998699 0.00257789 0)
(0.997836 0.00492068 0)
(0.99797 0.00839648 0)
(1.00323 0.00527367 0)
(1.00337 0.00427717 0)
(1.00209 0.0062463 0)
(1.00445 0.00315645 0)
(1.00522 0.000686464 0)
(1.00368 0.000923439 0)
(1.00218 0.000501475 0)
(1.00234 -0.000976185 0)
(1.00161 -0.00173574 0)
(0.999897 -0.000972688 0)
(1.00045 0.00425945 0)
(1.00345 -0.00242782 0)
(0.999563 -0.000569336 0)
(0.998201 0.00558709 0)
(1.00326 -0.00122896 0)
(0.998164 -0.00145459 0)
(0.995498 0.00360713 0)
(0.998889 0.00271057 0)
(0.998396 0.00442915 0)
(0.998111 0.00797767 0)
(1.00298 0.00536016 0)
(1.0036 0.00389739 0)
(1.00212 0.00584934 0)
(1.00395 0.00346034 0)
(1.00507 0.000839844 0)
(1.00385 0.000809514 0)
(1.00211 0.00090702 0)
(1.00212 -0.00025643 0)
(1.00174 -0.00124405 0)
(1.00022 -0.000757951 0)
(1.00043 0.00394911 0)
(1.00321 -0.00195918 0)
(0.999964 -0.000747735 0)
(0.998193 0.00536535 0)
(1.00291 -0.000774329 0)
(0.998569 -0.00135113 0)
(0.995874 0.00362691 0)
(0.999045 0.00288146 0)
(0.998934 0.00397961 0)
(0.998311 0.00751088 0)
(1.00272 0.00543969 0)
(1.00378 0.00360448 0)
(1.00223 0.00538491 0)
(1.0035 0.00370134 0)
(1.00485 0.00105406 0)
(1.00404 0.000590783 0)
(1.00215 0.000954471 0)
(1.00194 0.000211933 0)
(1.00177 -0.000874111 0)
(1.00049 -0.000539057 0)
(1.00042 0.0036349 0)
(1.00295 -0.00150435 0)
(1.00035 -0.000900616 0)
(0.998216 0.0051108 0)
(1.00255 -0.000296507 0)
(0.998964 -0.00124827 0)
(0.996275 0.00358497 0)
(0.999174 0.00308849 0)
(0.999445 0.00357552 0)
(0.998569 0.00698952 0)
(1.00246 0.00551414 0)
(1.0039 0.00340127 0)
(1.0024 0.00489378 0)
(1.00312 0.00385038 0)
(1.00453 0.00131902 0)
(1.00416 0.000406346 0)
(1.00229 0.000774155 0)
(1.00179 0.000461323 0)
(1.00179 -0.000542913 0)
(1.00088 -0.00025758 0)
(1.00042 0.00332606 0)
(1.00269 -0.00106373 0)
(1.00071 -0.00102607 0)
(0.998285 0.00480356 0)
(1.00221 0.000202053 0)
(0.999334 -0.00113075 0)
(0.996704 0.00347835 0)
(0.999275 0.00330708 0)
(0.999902 0.00324828 0)
(0.998884 0.00641812 0)
(1.00222 0.00554392 0)
(1.00395 0.00329376 0)
(1.0026 0.00439579 0)
(1.00281 0.00388489 0)
(1.00415 0.00166568 0)
(1.00421 0.000454319 0)
(1.00248 0.000835095 0)
(1.00175 0.000908763 0)
(1.00181 0.000137556 0)
(1.0013 9.87064e-05 0)
(1.00042 0.00301504 0)
(1.00243 -0.000641231 0)
(1.00104 -0.00110875 0)
(0.99839 0.00445521 0)
(1.00186 0.000690817 0)
(0.999671 -0.000981543 0)
(0.99716 0.00330732 0)
(0.999364 0.00351228 0)
(1.0003 0.00301167 0)
(0.999241 0.00582804 0)
(1.00201 0.00550792 0)
(1.00392 0.00326653 0)
(1.00282 0.00394508 0)
(1.00261 0.00380753 0)
(1.00377 0.00205734 0)
(1.00423 0.000701537 0)
(1.00277 0.00092305 0)
(1.00182 0.00129129 0)
(1.00175 0.000690333 0)
(1.00146 0.000381087 0)
(1.00043 0.00271133 0)
(1.00216 -0.000243813 0)
(1.00133 -0.00115543 0)
(0.998539 0.00405058 0)
(1.00154 0.00117504 0)
(0.999962 -0.000775707 0)
(0.997634 0.003076 0)
(0.999445 0.00369201 0)
(1.00063 0.00286771 0)
(0.999627 0.00523582 0)
(1.00186 0.00539359 0)
(1.00384 0.00329699 0)
(1.00302 0.00355807 0)
(1.00251 0.00368309 0)
(1.00343 0.00241659 0)
(1.00414 0.00103641 0)
(1.00301 0.000904224 0)
(1.00196 0.00135549 0)
(1.0017 0.00105127 0)
(1.00164 0.000754993 0)
(1.00044 0.00241946 0)
(1.00188 0.000108524 0)
(1.00157 -0.00114539 0)
(0.998724 0.00362147 0)
(1.00124 0.00160264 0)
(1.0002 -0.000524944 0)
(0.99812 0.00282004 0)
(0.999538 0.00381821 0)
(1.00088 0.00282956 0)
(1.00002 0.00468294 0)
(1.00176 0.00520823 0)
(1.00371 0.00335649 0)
(1.00319 0.00326601 0)
(1.0025 0.00353021 0)
(1.00314 0.00270931 0)
(1.00399 0.00137311 0)
(1.0032 0.0010358 0)
(1.00218 0.00143959 0)
(1.00176 0.00146317 0)
(1.00175 0.00123128 0)
(1.00046 0.00213993 0)
(1.00161 0.000423958 0)
(1.00177 -0.0010881 0)
(0.998942 0.00317763 0)
(1.00097 0.00196861 0)
(1.00038 -0.000210667 0)
(0.998605 0.00256295 0)
(0.999645 0.00386862 0)
(1.00106 0.00285873 0)
(1.00039 0.00420023 0)
(1.00173 0.00495402 0)
(1.00356 0.0034368 0)
(1.00332 0.00307961 0)
(1.00257 0.00335614 0)
(1.00291 0.00290118 0)
(1.00379 0.00173176 0)
(1.00333 0.0012552 0)
(1.00244 0.00155802 0)
(1.00186 0.00170229 0)
(1.00179 0.00159918 0)
(1.00048 0.00187903 0)
(1.00134 0.000692073 0)
(1.00192 -0.000970055 0)
(0.999184 0.00273908 0)
(1.00074 0.00224009 0)
(1.00049 0.000149173 0)
(0.999071 0.00231332 0)
(0.999782 0.00385472 0)
(1.00119 0.00293592 0)
(1.00073 0.00382024 0)
(1.00175 0.00465975 0)
(1.0034 0.0035076 0)
(1.0034 0.00299061 0)
(1.00267 0.00317815 0)
(1.00275 0.00299585 0)
(1.00359 0.00204938 0)
(1.0034 0.00150892 0)
(1.00267 0.00167079 0)
(1.00204 0.00182831 0)
(1.00186 0.00189926 0)
(1.00049 0.00163811 0)
(1.00108 0.000911608 0)
(1.00201 -0.000804965 0)
(0.999439 0.00231477 0)
(1.00057 0.00240734 0)
(1.00056 0.000539808 0)
(0.999509 0.00211373 0)
(0.999946 0.00377618 0)
(1.00126 0.00301553 0)
(1.00102 0.00354041 0)
(1.00181 0.00435781 0)
(1.00326 0.00353799 0)
(1.00343 0.00297532 0)
(1.00279 0.00303383 0)
(1.00267 0.00301797 0)
(1.0034 0.00230308 0)
(1.00341 0.0017521 0)
(1.00287 0.0018271 0)
(1.00224 0.00196584 0)
(1.002 0.00209259 0)
(1.00051 0.00142051 0)
(1.00084 0.0010751 0)
(1.00206 -0.000597189 0)
(0.999696 0.00192031 0)
(1.00044 0.00247325 0)
(1.00059 0.000928758 0)
(0.999899 0.00196687 0)
(1.00013 0.00363451 0)
(1.00132 0.00309991 0)
(1.00126 0.0033583 0)
(1.0019 0.00406817 0)
(1.00314 0.00352632 0)
(1.00342 0.00298681 0)
(1.00289 0.00293579 0)
(1.00264 0.00300793 0)
(1.00324 0.00250558 0)
(1.0034 0.00198537 0)
(1.00303 0.00197398 0)
(1.00243 0.00212334 0)
(1.00217 0.00222603 0)
(1.00053 0.00122752 0)
(1.00061 0.00118685 0)
(1.00206 -0.000368432 0)
(0.999943 0.00157404 0)
(1.00038 0.0024511 0)
(1.00058 0.00129029 0)
(1.00024 0.00188752 0)
(1.00034 0.00346325 0)
(1.00136 0.0031634 0)
(1.00144 0.00323738 0)
(1.002 0.0038018 0)
(1.00305 0.00347469 0)
(1.00339 0.0030097 0)
(1.00298 0.00288899 0)
(1.00266 0.00298722 0)
(1.00312 0.00265113 0)
(1.00335 0.00219624 0)
(1.00317 0.00209969 0)
(1.00261 0.00227866 0)
(1.00234 0.00239555 0)
(1.00055 0.00106022 0)
(1.00041 0.00124677 0)
(1.00202 -0.000130934 0)
(1.00017 0.00128568 0)
(1.00037 0.00237058 0)
(1.00057 0.00160164 0)
(1.00052 0.00186653 0)
(1.00056 0.00326977 0)
(1.0014 0.00318693 0)
(1.00158 0.00317629 0)
(1.0021 0.00358493 0)
(1.00299 0.00339037 0)
(1.00334 0.00302797 0)
(1.00305 0.00286802 0)
(1.00269 0.00295843 0)
(1.00304 0.00275526 0)
(1.00329 0.00240589 0)
(1.0033 0.00224418 0)
(1.00282 0.00238494 0)
(1.00248 0.00258378 0)
(1.00057 0.000917464 0)
(1.00023 0.00126487 0)
(1.00194 0.000100765 0)
(1.00037 0.00106624 0)
(1.0004 0.00224179 0)
(1.00055 0.00184776 0)
(1.00074 0.00188357 0)
(1.00079 0.00308109 0)
(1.00145 0.00318012 0)
(1.00168 0.00314432 0)
(1.00218 0.00340867 0)
(1.00296 0.00328729 0)
(1.0033 0.0030183 0)
(1.00309 0.00286741 0)
(1.00274 0.00295055 0)
(1.003 0.0028379 0)
(1.00323 0.00259242 0)
(1.00336 0.00240911 0)
(1.00303 0.00242336 0)
(1.00261 0.0027287 0)
(1.00059 0.000797975 0)
(1.00008 0.00124729 0)
(1.00184 0.000317332 0)
(1.00054 0.000927707 0)
(1.00048 0.00208395 0)
(1.00054 0.00202613 0)
(1.00092 0.00192604 0)
(1.001 0.00290398 0)
(1.00152 0.00313063 0)
(1.00175 0.00312531 0)
(1.00224 0.00327059 0)
(1.00293 0.0031909 0)
(1.00326 0.00299119 0)
(1.00314 0.00287231 0)
(1.00279 0.0029549 0)
(1.00298 0.00289232 0)
(1.00318 0.00271698 0)
(1.00336 0.00259566 0)
(1.00322 0.00247522 0)
(1.00281 0.00280284 0)
(1.0006 0.000700065 0)
(0.999948 0.00120209 0)
(1.00172 0.000507985 0)
(1.00067 0.00085596 0)
(1.00059 0.00192091 0)
(1.00054 0.00213846 0)
(1.00105 0.00198085 0)
(1.0012 0.00274852 0)
(1.0016 0.00305015 0)
(1.0018 0.0031069 0)
(1.00227 0.0031692 0)
(1.00292 0.00309726 0)
(1.00324 0.00295501 0)
(1.00318 0.00285948 0)
(1.00285 0.00295389 0)
(1.00299 0.00294556 0)
(1.00318 0.002801 0)
(1.00335 0.0027724 0)
(1.00335 0.00258729 0)
(1.00304 0.00280307 0)
(1.00061 0.000620108 0)
(0.999843 0.0011409 0)
(1.0016 0.000665083 0)
(1.00077 0.000836443 0)
(1.00071 0.00176764 0)
(1.00056 0.00219703 0)
(1.00114 0.00203942 0)
(1.00137 0.00261329 0)
(1.0017 0.00293912 0)
(1.00184 0.00307138 0)
(1.00228 0.003098 0)
(1.0029 0.00301133 0)
(1.00322 0.00291265 0)
(1.00322 0.00284828 0)
(1.00292 0.00293736 0)
(1.003 0.00300092 0)
(1.00319 0.00286333 0)
(1.00335 0.00288419 0)
(1.0034 0.00273974 0)
(1.00326 0.00280032 0)
(1.00062 0.000556452 0)
(0.99976 0.00106826 0)
(1.00148 0.0007899 0)
(1.00084 0.000856757 0)
(1.00083 0.00163478 0)
(1.00061 0.00221174 0)
(1.0012 0.00209308 0)
(1.00152 0.00250254 0)
(1.0018 0.00280003 0)
(1.00189 0.00301281 0)
(1.00228 0.00304693 0)
(1.00287 0.00295014 0)
(1.0032 0.00285862 0)
(1.00326 0.00283332 0)
(1.003 0.00290351 0)
(1.00303 0.00303023 0)
(1.0032 0.00292694 0)
(1.00338 0.00294025 0)
(1.00342 0.00288642 0)
(1.00342 0.00285542 0)
(1.00063 0.000506708 0)
(0.999697 0.00098986 0)
(1.00136 0.000883631 0)
(1.00087 0.000900451 0)
(1.00096 0.00152559 0)
(1.00067 0.00218904 0)
(1.00124 0.00212769 0)
(1.00163 0.0024191 0)
(1.00191 0.00265261 0)
(1.00195 0.00292629 0)
(1.00227 0.00299571 0)
(1.00283 0.00291234 0)
(1.00318 0.00280853 0)
(1.0033 0.00280909 0)
(1.00309 0.00287093 0)
(1.00309 0.00302275 0)
(1.00321 0.00299106 0)
(1.00342 0.00297849 0)
(1.00344 0.00297535 0)
(1.0035 0.00295356 0)
(1.00063 0.000468285 0)
(0.999652 0.000911185 0)
(1.00126 0.000947074 0)
(1.00088 0.00095685 0)
(1.00107 0.00143863 0)
(1.00074 0.0021367 0)
(1.00127 0.00214089 0)
(1.0017 0.00235663 0)
(1.002 0.00251463 0)
(1.00203 0.00281454 0)
(1.00227 0.00293824 0)
(1.00278 0.00288355 0)
(1.00315 0.00277681 0)
(1.00333 0.00277748 0)
(1.00318 0.00284099 0)
(1.00317 0.00298875 0)
(1.00324 0.00302186 0)
(1.00346 0.00302183 0)
(1.0035 0.0030012 0)
(1.00355 0.00305156 0)
(1.00063 0.000437615 0)
(0.999621 0.000837425 0)
(1.00116 0.000982461 0)
(1.00087 0.00101616 0)
(1.00117 0.00137306 0)
(1.00083 0.00206091 0)
(1.0013 0.00213287 0)
(1.00174 0.00230901 0)
(1.00208 0.00239679 0)