/*--------------------------------*- C++ -*----------------------------------*\
| =========                 |                                                 |
| \\      /  F ield         | OpenFOAM: The Open Source CFD Toolbox           |
|  \\    /   O peration     | Version:  v1912                                 |
|   \\  /    A nd           | Website:  www.openfoam.com                      |
|    \\/     M anipulation  |                                                 |
\*---------------------------------------------------------------------------*/
FoamFile
{
    version     2.0;
    format      ascii;
    class       volVectorField;
    location    "8.05";
    object      U;
}
// * * * * * * * * * * * * * * * * * * * * * * * * * * * * * * * * * * * * * //

dimensions      [0 1 -1 0 0 0 0];


internalField   nonuniform List<vector> 
9600
(
(0.84911 -0.007639 0)
(1.09448 0.0194045 0)
(0.893858 -0.0210855 0)
(1.10965 -0.0165767 0)
(1.01113 -0.0169601 0)
(1.12339 0.0292281 0)
(1.06444 0.0210026 0)
(1.12222 0.0256221 0)
(1.04888 -0.0109118 0)
(1.04808 -0.0324546 0)
(0.963868 -0.0439684 0)
(1.00953 -0.0424873 0)
(0.973999 -0.0193923 0)
(1.06235 -0.0385394 0)
(0.945788 0.00945069 0)
(1.17915 -0.0215623 0)
(0.880424 0.00361724 0)
(1.2303 0.00694255 0)
(0.897621 0.00933015 0)
(1.19829 0.0160714 0)
(0.8666 -0.00732139 0)
(1.08922 0.0193197 0)
(0.909309 -0.0213105 0)
(1.08659 -0.0176858 0)
(1.01847 -0.0172692 0)
(1.11815 0.0289794 0)
(1.0789 0.0209828 0)
(1.10872 0.0258034 0)
(1.07497 -0.00961972 0)
(1.02959 -0.0307845 0)
(0.988908 -0.0430623 0)
(0.979176 -0.0425604 0)
(0.987453 -0.0207699 0)
(1.02665 -0.0376187 0)
(0.972968 0.00614524 0)
(1.12967 -0.0195268 0)
(0.942886 0.00190757 0)
(1.14847 0.00623748 0)
(1.00936 0.0117723 0)
(1.07032 0.0137269 0)
(0.894118 -0.00709625 0)
(1.07742 0.0190494 0)
(0.923088 -0.0212375 0)
(1.04804 -0.0185389 0)
(1.02625 -0.0175909 0)
(1.1069 0.0284089 0)
(1.09392 0.0211299 0)
(1.10255 0.0259136 0)
(1.07621 -0.00869623 0)
(1.03091 -0.0299322 0)
(0.996336 -0.0423071 0)
(0.971357 -0.0424705 0)
(0.991508 -0.0215457 0)
(1.00708 -0.037417 0)
(0.997266 0.00373867 0)
(1.09217 -0.0190841 0)
(1.00666 0.00113115 0)
(1.09286 0.00476534 0)
(1.07026 0.0128371 0)
(1.05582 0.0134222 0)
(0.924986 -0.00697877 0)
(1.05985 0.0188889 0)
(0.93727 -0.020942 0)
(1.00661 -0.019412 0)
(1.02827 -0.0181855 0)
(1.09376 0.0276402 0)
(1.10281 0.021171 0)
(1.1003 0.0260589 0)
(1.0802 -0.00767168 0)
(1.03371 -0.0287644 0)
(0.999384 -0.0413401 0)
(0.971729 -0.0422978 0)
(0.989734 -0.0222288 0)
(0.997781 -0.0375511 0)
(1.00949 0.00213197 0)
(1.06668 -0.0196949 0)
(1.04004 0.00119737 0)
(1.07522 0.0032506 0)
(1.08766 0.0128934 0)
(1.0762 0.01466 0)
(0.952484 -0.00691762 0)
(1.0416 0.0188562 0)
(0.949635 -0.0204172 0)
(0.974384 -0.0202106 0)
(1.02194 -0.0190746 0)
(1.08308 0.0267384 0)
(1.10674 0.021089 0)
(1.10146 0.0262825 0)
(1.0816 -0.00668161 0)
(1.03566 -0.027648 0)
(1.00138 -0.0403494 0)
(0.974361 -0.0420389 0)
(0.988534 -0.0228418 0)
(0.995094 -0.0377019 0)
(1.01319 0.000403886 0)
(1.05355 -0.0202624 0)
(1.05188 0.000739577 0)
(1.07258 0.00214589 0)
(1.09 0.0126246 0)
(1.08969 0.0156009 0)
(0.972046 -0.00689519 0)
(1.02778 0.0189078 0)
(0.961106 -0.0197783 0)
(0.957191 -0.0208799 0)
(1.00997 -0.0201914 0)
(1.07626 0.0256918 0)
(1.10817 0.0208958 0)
(1.10356 0.0265344 0)
(1.08273 -0.00562612 0)
(1.03722 -0.026479 0)
(1.00322 -0.0393277 0)
(0.976864 -0.0417786 0)
(0.988877 -0.0233783 0)
(0.9949 -0.0380361 0)
(1.01406 -0.00116511 0)
(1.04785 -0.0210191 0)
(1.05471 -0.000240796 0)
(1.07257 0.00141838 0)
(1.08875 0.011667 0)
(1.09437 0.015816 0)
(0.982624 -0.0068999 0)
(1.02067 0.0189828 0)
(0.972543 -0.0190793 0)
(0.953289 -0.0213532 0)
(0.996694 -0.0214133 0)
(1.07207 0.0244515 0)
(1.10743 0.0206106 0)
(1.10482 0.0267742 0)
(1.08258 -0.00451176 0)
(1.038 -0.0252803 0)
(1.00498 -0.0382618 0)
(0.979082 -0.0414681 0)
(0.990143 -0.0239222 0)
(0.994199 -0.038343 0)
(1.01448 -0.00272033 0)
(1.04455 -0.0218596 0)
(1.05466 -0.00130275 0)
(1.07219 0.000757742 0)
(1.08714 0.0103579 0)
(1.09495 0.0159776 0)
(0.986213 -0.00692214 0)
(1.01911 0.0190132 0)
(0.984013 -0.0183644 0)
(0.957621 -0.0216009 0)
(0.984593 -0.0226473 0)
(1.06847 0.0229976 0)
(1.10377 0.0202558 0)
(1.10378 0.0269989 0)
(1.08083 -0.00334124 0)
(1.03815 -0.0240854 0)
(1.00675 -0.0371788 0)
(0.980985 -0.0411524 0)
(0.991708 -0.0244191 0)
(0.991425 -0.0386341 0)
(1.01434 -0.00436601 0)
(1.04015 -0.0226664 0)
(1.05288 -0.00254462 0)
(1.07073 6.73476e-05 0)
(1.08553 0.00906324 0)
(1.0942 0.0161465 0)
(0.986127 -0.00695338 0)
(1.02019 0.018943 0)
(0.994586 -0.0176624 0)
(0.965548 -0.0216143 0)
(0.974105 -0.0238107 0)
(1.0635 0.0213736 0)
(1.09658 0.0198642 0)
(1.09947 0.0271817 0)
(1.07714 -0.00214472 0)
(1.03749 -0.0229083 0)
(1.00841 -0.0360631 0)
(0.982626 -0.0408028 0)
(0.993037 -0.0248044 0)
(0.986604 -0.0388708 0)
(1.01276 -0.00606256 0)
(1.03283 -0.0234078 0)
(1.04842 -0.00404633 0)
(1.06716 -0.000607045 0)
(1.08279 0.00769989 0)
(1.09233 0.0160985 0)
(0.985273 -0.00698697 0)
(1.0212 0.0187534 0)
(1.0031 -0.0170022 0)
(0.974041 -0.0214027 0)
(0.965563 -0.0248321 0)
(1.05552 0.0196636 0)
(1.08559 0.0194523 0)
(1.09141 0.027295 0)
(1.07147 -0.000968447 0)
(1.03594 -0.0218006 0)
(1.00972 -0.0349417 0)
(0.984084 -0.0404238 0)
(0.993684 -0.0250332 0)
(0.98096 -0.0389928 0)
(1.00908 -0.00776898 0)
(1.02248 -0.0240323 0)
(1.0402 -0.00577405 0)
(1.06013 -0.00135921 0)
(1.077 0.00615784 0)
(1.08787 0.0158405 0)
(0.985253 -0.00701601 0)
(1.0207 0.0184589 0)
(1.00894 -0.0164023 0)
(0.981423 -0.0210077 0)
(0.960003 -0.025649 0)
(1.04385 0.0179554 0)
(1.07129 0.0190291 0)
(1.07986 0.0273003 0)
(1.06416 0.000139031 0)
(1.0336 -0.0207882 0)
(1.01045 -0.0338229 0)
(0.985418 -0.0399906 0)
(0.993409 -0.0250867 0)
(0.976107 -0.0389528 0)
(1.0033 -0.00940423 0)
(1.01042 -0.0244532 0)
(1.02822 -0.0077027 0)
(1.04887 -0.00224564 0)
(1.06654 0.00446668 0)
(1.07892 0.0153916 0)
(0.986405 -0.00703459 0)
(1.01858 0.0180924 0)
(1.01224 -0.015868 0)
(0.986977 -0.0204987 0)
(0.9582 -0.0262204 0)
(1.02949 0.01633 0)
(1.05516 0.0185933 0)
(1.06604 0.0271636 0)
(1.05595 0.00111118 0)
(1.03076 -0.0198987 0)
(1.01049 -0.0327375 0)
(0.986615 -0.0394948 0)
(0.992267 -0.0249988 0)
(0.973156 -0.0387095 0)
(0.996167 -0.0108797 0)
(0.99867 -0.0246129 0)
(1.01386 -0.0096939 0)
(1.03386 -0.00320378 0)
(1.05116 0.00270528 0)
(1.0645 0.0147137 0)
(0.988354 -0.0070383 0)
(1.01541 0.0176881 0)
(1.01367 -0.0153928 0)
(0.990698 -0.019948 0)
(0.959696 -0.0265387 0)
(1.01469 0.0148506 0)
(1.03928 0.018139 0)
(1.05176 0.0268648 0)
(1.04772 0.0019095 0)
(1.02779 -0.0191368 0)
(1.00992 -0.0316944 0)
(0.987619 -0.0389335 0)
(0.990552 -0.0248275 0)
(0.972266 -0.0382437 0)
(0.988813 -0.0121506 0)
(0.988903 -0.0244606 0)
(0.999304 -0.0115819 0)
(1.01681 -0.00412027 0)
(1.03231 0.00100272 0)
(1.04535 0.0138181 0)
(0.99055 -0.00702426 0)
(1.0119 0.0172703 0)
(1.01401 -0.0149662 0)
(0.993014 -0.0194072 0)
(0.96304 -0.0266151 0)
(1.00162 0.0135586 0)
(1.02535 0.0176714 0)
(1.03864 0.0264072 0)
(1.04023 0.00252857 0)
(1.02501 -0.0185008 0)
(1.00895 -0.0307034 0)
(0.988375 -0.0383167 0)
(0.988647 -0.024636 0)
(0.972834 -0.0375822 0)
(0.982316 -0.0132068 0)
(0.981854 -0.0240206 0)
(0.986628 -0.0131999 0)
(1 -0.00486672 0)
(1.01265 -0.000475582 0)
(1.02385 0.0127821 0)
(0.992565 -0.00699141 0)
(1.00861 0.0168518 0)
(1.01383 -0.014577 0)
(0.994452 -0.0189 0)
(0.96674 -0.0264732 0)
(0.991322 0.0124647 0)
(1.0141 0.0172005 0)
(1.02769 0.0258035 0)
(1.03395 0.002973 0)
(1.02261 -0.0179695 0)
(1.0078 -0.0297596 0)
(0.988874 -0.037646 0)
(0.986863 -0.0244674 0)
(0.973997 -0.0367596 0)
(0.977314 -0.0140829 0)
(0.977327 -0.0233642 0)
(0.97709 -0.0144108 0)
(0.985446 -0.00535663 0)
(0.994899 -0.00160706 0)
(1.00315 0.011713 0)
(0.994166 -0.00693855 0)
(1.00587 0.0164329 0)
(1.01344 -0.0142148 0)
(0.995416 -0.0184297 0)
(0.969916 -0.0261459 0)
(0.98377 0.0115449 0)
(1.0055 0.0167319 0)
(1.01918 0.0250699 0)
(1.02898 0.00326766 0)
(1.02069 -0.0175184 0)
(1.00665 -0.0288538 0)
(0.989155 -0.0369275 0)
(0.98538 -0.0243339 0)
(0.975079 -0.0358146 0)
(0.973923 -0.0148322 0)
(0.97462 -0.0225507 0)
(0.970887 -0.0152136 0)
(0.974353 -0.00556022 0)
(0.980967 -0.0023316 0)
(0.985949 0.0106903 0)
(0.995293 -0.00686607 0)
(1.00381 0.016009 0)
(1.01295 -0.0138719 0)
(0.996129 -0.0179906 0)
(0.972329 -0.0256666 0)
(0.97849 0.0107589 0)
(0.999195 0.016268 0)
(1.01299 0.0242266 0)
(1.02522 0.00344438 0)
(1.01922 -0.0171237 0)
(1.00562 -0.0279711 0)
(0.989282 -0.0361621 0)
(0.984256 -0.0242301 0)
(0.97578 -0.0347753 0)
(0.971892 -0.0154998 0)
(0.972997 -0.0216491 0)
(0.967431 -0.0156581 0)
(0.966963 -0.00549057 0)
(0.971474 -0.00264582 0)
(0.973672 0.00975334 0)
(0.995998 -0.00677684 0)
(1.00242 0.0155781 0)
(1.01239 -0.0135398 0)
(0.996685 -0.0175771 0)
(0.974087 -0.0250661 0)
(0.975015 0.0100656 0)
(0.994849 0.0158044 0)
(1.00876 0.0232917 0)
(1.02243 0.00353162 0)
(1.01812 -0.0167624 0)
(1.00473 -0.0271023 0)
(0.989324 -0.0353448 0)
(0.983462 -0.0241426 0)
(0.976114 -0.033677 0)
(0.970848 -0.0161009 0)
(0.97196 -0.0207115 0)
(0.965846 -0.0158218 0)
(0.962762 -0.00527031 0)
(0.965955 -0.00263139 0)
(0.966299 0.00892219 0)
(0.996376 -0.00667288 0)
(1.0016 0.0151373 0)
(1.01173 -0.0132102 0)
(0.997121 -0.0171851 0)
(0.97539 -0.0243685 0)
(0.97296 0.0094299 0)
(0.992111 0.015336 0)
(1.00606 0.0222845 0)
(1.02035 0.00355459 0)
(1.01729 -0.016413 0)
(1.00396 -0.0262402 0)
(0.989335 -0.0344764 0)
(0.982936 -0.0240592 0)
(0.976243 -0.0325377 0)
(0.97046 -0.0166438 0)
(0.971283 -0.0197765 0)
(0.96537 -0.0157989 0)
(0.960899 -0.00500858 0)
(0.963407 -0.00238956 0)
(0.962848 0.00819073 0)
(0.996525 -0.00655624 0)
(1.00119 0.0146833 0)
(1.011 -0.0128764 0)
(0.99746 -0.0168106 0)
(0.976421 -0.0235944 0)
(0.971979 0.00882394 0)
(0.990611 0.0148622 0)
(1.00446 0.0212248 0)
(1.01875 0.00353294 0)
(1.01663 -0.0160617 0)
(1.00332 -0.0253823 0)
(0.989357 -0.033561 0)
(0.982615 -0.0239659 0)
(0.97633 -0.0313777 0)
(0.970499 -0.0171294 0)
(0.970906 -0.018877 0)
(0.965524 -0.0156447 0)
(0.960553 -0.0047502 0)
(0.962784 -0.00202373 0)
(0.962038 0.00753545 0)
(0.996524 -0.00642913 0)
(1.00105 0.0142154 0)
(1.0102 -0.0125323 0)
(0.997717 -0.0164525 0)
(0.977321 -0.0227617 0)
(0.971767 0.00822854 0)
(0.98999 0.0143786 0)
(1.0036 0.0201339 0)
(1.01745 0.00347719 0)
(1.01606 -0.015698 0)
(1.0028 -0.0245328 0)
(0.98942 -0.0325935 0)
(0.98246 -0.0238628 0)
(0.976482 -0.0302215 0)
(0.970826 -0.0175418 0)
(0.970823 -0.0180383 0)
(0.966052 -0.0153872 0)
(0.961104 -0.00454656 0)
(0.963272 -0.00162206 0)
(0.962766 0.00694408 0)
(0.996439 -0.00629256 0)
(1.00106 0.013734 0)
(1.00937 -0.0121726 0)
(0.997903 -0.0161115 0)
(0.97819 -0.0218855 0)
(0.972087 0.00763084 0)
(0.989939 0.0138817 0)
(1.00319 0.0190259 0)
(1.01634 0.00340442 0)
(1.01553 -0.0153149 0)
(1.0024 -0.0236937 0)
(0.989545 -0.0315772 0)
(0.982455 -0.0237449 0)
(0.976745 -0.0290783 0)
(0.971344 -0.0178852 0)
(0.971009 -0.0172679 0)
(0.966816 -0.0150588 0)
(0.96214 -0.00443037 0)
(0.96433 -0.00123629 0)
(0.964264 0.00640978 0)
(0.99633 -0.00614686 0)
(1.00113 0.0132392 0)
(1.00851 -0.011796 0)
(0.998013 -0.0157907 0)
(0.979082 -0.0209752 0)
(0.972766 0.00702067 0)
(0.990209 0.0133756 0)
(1.00301 0.0179134 0)
(1.01536 0.00331854 0)
(1.01499 -0.0149087 0)
(1.00214 -0.0228708 0)
(0.989748 -0.0305153 0)
(0.982599 -0.0236029 0)
(0.97713 -0.0279624 0)
(0.971987 -0.0181549 0)
(0.971401 -0.0165743 0)
(0.967715 -0.0146732 0)
(0.963401 -0.00441157 0)
(0.965628 -0.000882656 0)
(0.966053 0.00592827 0)
(0.996253 -0.00599214 0)
(1.00118 0.0127319 0)
(1.00767 -0.0114006 0)
(0.998037 -0.0154931 0)
(0.979999 -0.0200422 0)
(0.973683 0.00639892 0)
(0.990612 0.012863 0)
(1.00291 0.0168073 0)
(1.01445 0.00321061 0)
(1.01441 -0.0144757 0)
(1.00201 -0.02207 0)
(0.990041 -0.0294125 0)
(0.982899 -0.0234324 0)
(0.977631 -0.0268812 0)
(0.972703 -0.0183419 0)
(0.971918 -0.0159683 0)
(0.968658 -0.0142347 0)
(0.964719 -0.00446471 0)
(0.966965 -0.00059143 0)
(0.967845 0.00548574 0)
(0.996247 -0.00582852 0)
(1.00118 0.0122135 0)
(1.00685 -0.0109852 0)
(0.997967 -0.0152192 0)
(0.980905 -0.0190956 0)
(0.974748 0.00577344 0)
(0.991015 0.0123392 0)
(1.00281 0.0157151 0)
(1.0136 0.00308299 0)
(1.0138 -0.0140176 0)
(1.00199 -0.0212928 0)
(0.990422 -0.0282805 0)
(0.983353 -0.0232208 0)
(0.978235 -0.0258447 0)
(0.973462 -0.0184328 0)
(0.972488 -0.0154403 0)
(0.969577 -0.0137592 0)
(0.965987 -0.00456204 0)
(0.968225 -0.000394058 0)
(0.969487 0.00507682 0)
(0.996324 -0.00565579 0)
(1.00112 0.0116854 0)
(1.0061 -0.0105498 0)
(0.997808 -0.0149671 0)
(0.98174 -0.0181419 0)
(0.9759 0.00514715 0)
(0.991346 0.0118045 0)
(1.00266 0.0146412 0)
(1.0128 0.00292994 0)
(1.01315 -0.0135396 0)
(1.00208 -0.0205424 0)
(0.990879 -0.0271269 0)
(0.98395 -0.0229562 0)
(0.978924 -0.0248556 0)
(0.974249 -0.0184178 0)
(0.973062 -0.0149828 0)
(0.970434 -0.0132622 0)
(0.967146 -0.00467853 0)
(0.969354 -0.000271466 0)
(0.970907 0.00469088 0)
(0.996469 -0.00547426 0)
(1.00102 0.0111483 0)
(1.00545 -0.0100923 0)
(0.997584 -0.0147345 0)
(0.982445 -0.0171914 0)
(0.977094 0.00452404 0)
(0.99158 0.0112616 0)
(1.00245 0.0135906 0)
(1.01203 0.00274403 0)
(1.01246 -0.0130416 0)
(1.00223 -0.0198208 0)
(0.991385 -0.0259637 0)
(0.984663 -0.0226302 0)
(0.979677 -0.0239034 0)
(0.975064 -0.0183028 0)
(0.973622 -0.0145852 0)
(0.97122 -0.0127535 0)
(0.968181 -0.00480955 0)
(0.970331 -0.000218682 0)
(0.972084 0.00431052 0)
(0.996646 -0.00528528 0)
(1.0009 0.0106035 0)
(1.00494 -0.00961354 0)
(0.997342 -0.0145126 0)
(0.982987 -0.0162537 0)
(0.978287 0.00391026 0)
(0.991722 0.0107053 0)
(1.00219 0.0125703 0)
(1.01128 0.00253324 0)
(1.01176 -0.0125317 0)
(1.00239 -0.0191273 0)
(0.991906 -0.0248084 0)
(0.985447 -0.0222312 0)
(0.980469 -0.0229894 0)
(0.975903 -0.0180842 0)
(0.974173 -0.0142264 0)
(0.971943 -0.0122474 0)
(0.969096 -0.00494503 0)
(0.971163 -0.000242372 0)
(0.973025 0.00393951 0)
(0.996817 -0.00508785 0)
(1.0008 0.010048 0)
(1.0046 -0.00911641 0)
(0.997129 -0.0142914 0)
(0.98337 -0.0153304 0)
(0.979439 0.00331025 0)
(0.991785 0.0101353 0)
(1.00188 0.0115784 0)
(1.01051 0.00228801 0)
(1.01103 -0.0120209 0)
(1.00253 -0.0184526 0)
(0.992402 -0.0236718 0)
(0.986251 -0.0217597 0)
(0.981276 -0.0221095 0)
(0.976766 -0.0177642 0)
(0.974729 -0.0138886 0)
(0.972628 -0.0117472 0)
(0.969919 -0.00505951 0)
(0.971871 -0.000324793 0)
(0.973765 0.00358378 0)
(0.996951 -0.00488341 0)
(1.00071 0.00948047 0)
(1.00441 -0.00860032 0)
(0.996987 -0.0140627 0)
(0.983638 -0.0144254 0)
(0.980512 0.00272676 0)
(0.991786 0.00954772 0)
(1.00151 0.0106189 0)
(1.00972 0.00201226 0)
(1.01027 -0.0115128 0)
(1.0026 -0.0177899 0)
(0.992838 -0.0225613 0)
(0.987027 -0.0212222 0)
(0.982073 -0.0212474 0)
(0.977647 -0.0173632 0)
(0.975312 -0.0135497 0)
(0.973306 -0.0112489 0)
(0.970695 -0.00514465 0)
(0.972495 -0.000450315 0)
(0.974356 0.00323989 0)
(0.997041 -0.00467035 0)
(1.00062 0.00889478 0)
(1.00435 -0.00806802 0)
(0.996934 -0.0138142 0)
(0.983855 -0.0135453 0)
(0.98149 0.00217167 0)
(0.991747 0.00893457 0)
(1.00108 0.00969217 0)
(1.00889 0.00170415 0)
(1.00948 -0.0110153 0)
(1.00257 -0.0171417 0)
(0.99319 -0.0214848 0)
(0.987736 -0.0206169 0)
(0.98284 -0.0204078 0)
(0.978537 -0.0168887 0)
(0.975939 -0.0131939 0)
(0.974006 -0.0107714 0)
(0.971473 -0.00519572 0)
(0.973088 -0.00060576 0)
(0.97487 0.00289732 0)
(0.997095 -0.00444894 0)
(1.00054 0.00828916 0)
(1.00435 -0.00752645 0)
(0.996966 -0.0135368 0)
(0.984088 -0.0126885 0)
(0.98238 0.0016495 0)
(0.991697 0.00829429 0)
(1.00061 0.00879701 0)
(1.00802 0.00136574 0)
(1.00866 -0.0105383 0)
(1.00244 -0.0165015 0)
(0.993449 -0.0204442 0)
(0.988356 -0.0199574 0)
(0.983565 -0.0195878 0)
(0.979428 -0.0163526 0)
(0.976616 -0.0128209 0)
(0.974751 -0.0103093 0)
(0.9723 -0.00521243 0)
(0.973708 -0.000778602 0)
(0.975384 0.00256209 0)
(0.997134 -0.0042179 0)
(1.00045 0.00766465 0)
(1.00434 -0.00698314 0)
(0.997059 -0.0132286 0)
(0.984391 -0.0118542 0)
(0.983207 0.00116425 0)
(0.991672 0.00763038 0)
(1.00012 0.00793667 0)
(1.00712 0.0010234 0)
(1.00783 -0.0100903 0)
(1.00222 -0.0158595 0)
(0.993617 -0.0194414 0)
(0.98888 -0.0192587 0)
(0.984242 -0.0187786 0)
(0.980309 -0.0157703 0)
(0.977345 -0.0124189 0)
(0.975552 -0.00985914 0)
(0.973202 -0.00520005 0)
(0.974402 -0.000958398 0)
(0.975955 0.00224582 0)
(0.997179 -0.00397784 0)
(1.00036 0.00702462 0)
(1.00427 -0.00644315 0)
(0.997185 -0.0128855 0)
(0.984791 -0.0110503 0)
(0.984004 0.000731964 0)
(0.991706 0.00693981 0)
(0.999642 0.00710166 0)
(1.00621 0.000671679 0)
(1.00698 -0.00967324 0)
(1.00193 -0.015223 0)
(0.993707 -0.0184706 0)
(0.989315 -0.018523 0)
(0.984875 -0.0179888 0)
(0.981172 -0.0151561 0)
(0.978118 -0.0119835 0)
(0.976405 -0.00942519 0)
(0.974185 -0.00515926 0)
(0.975196 -0.00114044 0)
(0.976616 0.00193802 0)
(0.997244 -0.00373048 0)
(1.00027 0.00637164 0)
(1.00411 -0.00591086 0)
(0.997315 -0.0125053 0)
(0.985294 -0.0102841 0)
(0.984798 0.000350814 0)
(0.991821 0.00622882 0)
(0.999205 0.0062946 0)
(1.00533 0.000321266 0)
(1.00614 -0.00928282 0)
(1.00158 -0.014603 0)
(0.993741 -0.0175276 0)
(0.989674 -0.0177594 0)
(0.98547 -0.0172141 0)
(0.982014 -0.0145229 0)
(0.978923 -0.0115325 0)
(0.9773 -0.00901008 0)
(0.97523 -0.00509728 0)
(0.976085 -0.00132029 0)
(0.977372 0.00164398 0)
(0.997333 -0.00347507 0)
(1.0002 0.00571231 0)
(1.00384 -0.005399 0)
(0.99743 -0.0120933 0)
(0.985883 -0.00955213 0)
(0.9856 1.82055e-05 0)
(0.992028 0.00551075 0)
(0.998827 0.00551585 0)
(1.00449 -2.00273e-05 0)
(1.00531 -0.0089143 0)
(1.00121 -0.0139921 0)
(0.993739 -0.0166201 0)
(0.989972 -0.0169838 0)
(0.986036 -0.0164641 0)
(0.982831 -0.0138754 0)
(0.979745 -0.0110492 0)
(0.978219 -0.00861171 0)
(0.976317 -0.00502227 0)
(0.977055 -0.00149995 0)
(0.978207 0.00135302 0)
(0.997445 -0.00321784 0)
(1.00016 0.00505924 0)
(1.0035 -0.00490329 0)
(0.99752 -0.0116516 0)
(0.986536 -0.00887175 0)
(0.986409 -0.000260532 0)
(0.992317 0.00480012 0)
(0.998516 0.00476277 0)
(1.00371 -0.000349164 0)
(1.00452 -0.00856783 0)
(1.00084 -0.0133933 0)
(0.993721 -0.0157385 0)
(0.990223 -0.0161867 0)
(0.986582 -0.0157482 0)
(0.983632 -0.0132512 0)
(0.98057 -0.0105393 0)
(0.979143 -0.00821319 0)
(0.977414 -0.00493405 0)
(0.978075 -0.00165804 0)
(0.979107 0.00103592 0)
(0.997572 -0.00295752 0)
(1.00014 0.00441441 0)
(1.00311 -0.00443832 0)
(0.997584 -0.0111674 0)
(0.987228 -0.00824225 0)
(0.987216 -0.000503031 0)
(0.992669 0.00410438 0)
(0.998272 0.00403716 0)
(1.00298 -0.000656716 0)
(1.00377 -0.00824093 0)
(1.00048 -0.0128138 0)
(0.993703 -0.0149075 0)
(0.99044 -0.0153663 0)
(0.987108 -0.0150258 0)
(0.984423 -0.012647 0)
(0.981399 -0.010035 0)
(0.980059 -0.00782024 0)
(0.978505 -0.00485733 0)
(0.979115 -0.00180346 0)
(0.98003 0.000732668 0)
(0.997707 -0.00269965 0)
(1.00015 0.00379543 0)
(1.0027 -0.00401578 0)
(0.997633 -0.010664 0)
(0.987936 -0.00765211 0)
(0.988007 -0.000702295 0)
(0.993059 0.00342526 0)
(0.998088 0.00333189 0)
(1.00232 -0.000935746 0)
(1.00307 -0.00792375 0)
(1.00013 -0.012245 0)
(0.993701 -0.0141098 0)
(0.990643 -0.0145703 0)
(0.987621 -0.0143209 0)
(0.985201 -0.0120436 0)
(0.982223 -0.00952371 0)
(0.980951 -0.00742138 0)
(0.979569 -0.00476416 0)
(0.980165 -0.00197086 0)
(0.980972 0.000391333 0)
(0.997842 -0.00244666 0)
(1.00017 0.00319494 0)
(1.00229 -0.00362072 0)
(0.997675 -0.0101186 0)
(0.98865 -0.00713499 0)
(0.988771 -0.000866633 0)
(0.993462 0.00278741 0)
(0.997953 0.00264743 0)
(1.00172 -0.00120128 0)
(1.00241 -0.00760959 0)
(0.999819 -0.011699 0)
(0.993716 -0.0133411 0)
(0.990833 -0.0137411 0)
(0.988129 -0.0136552 0)
(0.985982 -0.0114813 0)
(0.983047 -0.00901073 0)
(0.981819 -0.00702767 0)
(0.980585 -0.00466405 0)
(0.981178 -0.0020826 0)
(0.981907 8.11588e-05 0)
(0.997974 -0.0021994 0)
(1.00021 0.00263387 0)
(1.00191 -0.00329154 0)
(0.997715 -0.00954479 0)
(0.989355 -0.0066439 0)
(0.989506 -0.00101135 0)
(0.993861 0.00217934 0)
(0.997853 0.00199896 0)
(1.00118 -0.0014504 0)
(1.00179 -0.00730888 0)
(0.99953 -0.0111571 0)
(0.993766 -0.0126526 0)
(0.991019 -0.012929 0)
(0.988615 -0.0129394 0)
(0.986769 -0.0109975 0)
(0.983875 -0.00851445 0)
(0.982652 -0.00654373 0)
(0.98157 -0.0045343 0)
(0.98218 -0.00227715 0)
(0.982787 -0.000232627 0)
(0.998102 -0.00196156 0)
(1.00025 0.00210145 0)
(1.00156 -0.00298824 0)
(0.997768 -0.00895245 0)
(0.990051 -0.00621198 0)
(0.990204 -0.00113323 0)
(0.994245 0.00162111 0)
(0.997781 0.00135635 0)
(1.00068 -0.00166774 0)
(1.00122 -0.00702257 0)
(0.999264 -0.0106092 0)
(0.993835 -0.0119872 0)
(0.991226 -0.0121766 0)
(0.989085 -0.0122517 0)
(0.987554 -0.010511 0)
(0.984755 -0.00812076 0)
(0.983464 -0.00611322 0)
(0.982434 -0.00426391 0)
(0.983113 -0.00228425 0)
(0.983666 -0.00053139 0)
(0.998223 -0.0017342 0)
(1.0003 0.00161692 0)
(1.00125 -0.00274144 0)
(0.997821 -0.00833976 0)
(0.990732 -0.00581101 0)
(0.990875 -0.00124463 0)
(0.994605 0.00110502 0)
(0.99773 0.000769911 0)
(1.00023 -0.00189662 0)
(1.00069 -0.00673824 0)
(0.999026 -0.0101177 0)
(0.993929 -0.0113282 0)
(0.99143 -0.0114298 0)
(0.989545 -0.0115904 0)
(0.988328 -0.0100571 0)
(0.985632 -0.00785288 0)
(0.984317 -0.00579017 0)
(0.983341 -0.00410307 0)
(0.983972 -0.00246262 0)
(0.984383 -0.00083983 0)
(0.998341 -0.00152363 0)
(1.00035 0.00118449 0)
(1.00097 -0.00253436 0)
(0.99789 -0.0077308 0)
(0.991398 -0.00543637 0)
(0.991509 -0.00134854 0)
(0.994946 0.000647505 0)
(0.997697 0.000189031 0)
(0.999827 -0.00209904 0)
(1.00019 -0.00644008 0)
(0.998812 -0.00960838 0)
(0.994054 -0.0107676 0)
(0.991649 -0.0107308 0)
(0.989973 -0.0108697 0)
(0.989068 -0.00969577 0)
(0.986544 -0.0076122 0)
(0.985153 -0.00567848 0)
(0.98409 -0.00419574 0)
(0.984793 -0.00261835 0)
(0.985251 -0.000946999 0)
(0.998451 -0.00132102 0)
(1.00041 0.000789681 0)
(1.00074 -0.00235381 0)
(0.997954 -0.00713566 0)
(0.992043 -0.00509612 0)
(0.992123 -0.0014383 0)
(0.995257 0.00022563 0)
(0.997684 -0.000327432 0)
(0.999485 -0.00230369 0)
(0.999728 -0.00619461 0)
(0.998602 -0.00910556 0)
(0.994191 -0.0101881 0)
(0.991899 -0.0100843 0)
(0.990367 -0.010242 0)
(0.989765 -0.00926785 0)
(0.987403 -0.00744698 0)
(0.985951 -0.0055917 0)
(0.984967 -0.00416103 0)
(0.985717 -0.00280787 0)
(0.986074 -0.00113363 0)
(0.998557 -0.00114268 0)
(1.00046 0.000472202 0)
(1.00053 -0.00222906 0)
(0.99803 -0.00656392 0)
(0.992671 -0.00475044 0)
(0.9927 -0.0015337 0)
(0.995555 -0.000138793 0)
(0.997686 -0.000807403 0)
(0.999175 -0.00250051 0)
(0.999311 -0.00592696 0)
(0.998432 -0.00861509 0)
(0.994352 -0.00970909 0)
(0.992137 -0.00946059 0)
(0.990756 -0.00960427 0)
(0.990417 -0.00882729 0)
(0.98827 -0.00728234 0)
(0.986798 -0.0053738 0)
(0.985652 -0.00384866 0)
(0.986513 -0.00265607 0)
(0.987138 -0.00133258 0)
(0.998656 -0.000978694 0)
(1.0005 0.000203996 0)
(1.00036 -0.00212204 0)
(0.998105 -0.00601404 0)
(0.993271 -0.00444643 0)
(0.993257 -0.00161779 0)
(0.995826 -0.000449688 0)
(0.9977 -0.00124607 0)
(0.998939 -0.00267587 0)
(0.998938 -0.00568515 0)
(0.998236 -0.00816926 0)
(0.994523 -0.0091759 0)
(0.992439 -0.00890301 0)
(0.991114 -0.00900322 0)
(0.99101 -0.00839656 0)
(0.989116 -0.00708316 0)
(0.987711 -0.0052266 0)
(0.986565 -0.00369118 0)
(0.987271 -0.00261834 0)
(0.98766 -0.00147126 0)
(0.99875 -0.000832792 0)
(1.00054 3.2069e-06 0)
(1.00022 -0.00205035 0)
(0.998188 -0.00552639 0)
(0.993849 -0.0041305 0)
(0.993783 -0.00169031 0)
(0.996081 -0.000739642 0)
(0.997725 -0.00161271 0)
(0.998728 -0.00284524 0)
(0.998604 -0.00548382 0)
(0.998103 -0.00769656 0)
(0.994709 -0.00869228 0)
(0.992701 -0.00842654 0)
(0.991478 -0.00839066 0)
(0.991572 -0.0079006 0)
(0.989947 -0.00688317 0)
(0.988605 -0.00512389 0)
(0.987245 -0.00364749 0)
(0.987984 -0.00273358 0)
(0.98871 -0.00155655 0)
(0.998837 -0.000710919 0)
(1.00058 -0.000143509 0)
(1.0001 -0.00199288 0)
(0.998276 -0.00506788 0)
(0.994397 -0.00383411 0)
(0.99428 -0.00177741 0)
(0.996311 -0.000971821 0)
(0.997759 -0.001948 0)
(0.998584 -0.00297573 0)
(0.998334 -0.00526558 0)
(0.997937 -0.007251 0)
(0.994874 -0.00829064 0)
(0.993053 -0.0078838 0)
(0.991851 -0.00781376 0)
(0.992053 -0.00742629 0)
(0.990701 -0.00657264 0)
(0.989509 -0.00504603 0)
(0.988112 -0.00346502 0)
(0.988732 -0.00237163 0)
(0.989385 -0.0016699 0)
(0.99892 -0.000598197 0)
(1.0006 -0.000258678 0)
(0.999998 -0.00193673 0)
(0.998374 -0.004657 0)
(0.994918 -0.00357038 0)
(0.994749 -0.00182632 0)
(0.99653 -0.00116979 0)
(0.997796 -0.00221232 0)
(0.998465 -0.00311531 0)
(0.998091 -0.00508734 0)
(0.997821 -0.0068333 0)
(0.995085 -0.0078041 0)
(0.993366 -0.00744384 0)
(0.992198 -0.00731251 0)
(0.992549 -0.0069007 0)
(0.991431 -0.00621532 0)
(0.990424 -0.00489142 0)
(0.988977 -0.00337467 0)
(0.989325 -0.00230741 0)
(0.989987 -0.00181599 0)
(0.998996 -0.000508589 0)
(1.00061 -0.000335705 0)
(0.999917 -0.0018674 0)
(0.998473 -0.00429805 0)
(0.995413 -0.00331567 0)
(0.99519 -0.0018657 0)
(0.996722 -0.00134427 0)
(0.997833 -0.00245308 0)
(0.998397 -0.00320762 0)
(0.997921 -0.0048919 0)
(0.997706 -0.00639208 0)
(0.995247 -0.00741305 0)
(0.993728 -0.00702247 0)
(0.992609 -0.00675455 0)
(0.992993 -0.00641156 0)
(0.992076 -0.00589163 0)
(0.991274 -0.00473745 0)
(0.98986 -0.00343769 0)
(0.989994 -0.00229846 0)
(0.990529 -0.00175191 0)
(0.999068 -0.000427474 0)
(1.00061 -0.000392125 0)
(0.999847 -0.00179589 0)
(0.998581 -0.0039626 0)
(0.995883 -0.003087 0)
(0.995601 -0.00191381 0)
(0.996901 -0.001467 0)
(0.997876 -0.00260756 0)
(0.998356 -0.00328316 0)
(0.997778 -0.00473704 0)
(0.997613 -0.00601404 0)
(0.995453 -0.00694666 0)
(0.994103 -0.00657267 0)
(0.99298 -0.00634809 0)
(0.993411 -0.00598274 0)
(0.992702 -0.00553824 0)
(0.992066 -0.00456443 0)
(0.990714 -0.00345241 0)
(0.990694 -0.00235037 0)
(0.991032 -0.00171562 0)
(0.999133 -0.000360921 0)
(1.00061 -0.000434469 0)
(0.999793 -0.00169089 0)
(0.998687 -0.00366575 0)
(0.996323 -0.00290083 0)
(0.995994 -0.00194457 0)
(0.997066 -0.00154906 0)
(0.997909 -0.00274182 0)
(0.998343 -0.00334556 0)
(0.997697 -0.00456956 0)
(0.997557 -0.00559574 0)
(0.995629 -0.00650252 0)
(0.994452 -0.00622014 0)
(0.993392 -0.00596104 0)
(0.993843 -0.0055255 0)
(0.993259 -0.00520631 0)
(0.992784 -0.00441889 0)
(0.991537 -0.00342517 0)
(0.991437 -0.00243428 0)
(0.991545 -0.00176403 0)
(0.999193 -0.000303888 0)
(1.0006 -0.000456411 0)
(0.999745 -0.00158783 0)
(0.998793 -0.00339865 0)
(0.996744 -0.00272538 0)
(0.996366 -0.0019745 0)
(0.997216 -0.00161762 0)
(0.997941 -0.00281518 0)
(0.998357 -0.00336114 0)
(0.997657 -0.00441638 0)
(0.997516 -0.00522587 0)
(0.995803 -0.00607941 0)
(0.994817 -0.00582582 0)
(0.993812 -0.00559486 0)
(0.994243 -0.00518351 0)
(0.993761 -0.00491255 0)
(0.993463 -0.00424338 0)
(0.992313 -0.00339259 0)
(0.992135 -0.00251331 0)
(0.992079 -0.00188276 0)
(0.999246 -0.000255958 0)
(1.00059 -0.000471961 0)
(0.999708 -0.00146904 0)
(0.998896 -0.00313168 0)
(0.997134 -0.00258554 0)
(0.996719 -0.00201972 0)
(0.997364 -0.00164646 0)
(0.99797 -0.00283541 0)
(0.998383 -0.00336267 0)
(0.997662 -0.00428682 0)
(0.997516 -0.0048698 0)
(0.995975 -0.00563611 0)
(0.995149 -0.00545484 0)
(0.99421 -0.00530222 0)
(0.99465 -0.00488441 0)
(0.994252 -0.00460897 0)
(0.994075 -0.00403965 0)
(0.99303 -0.00336769 0)
(0.992824 -0.00256117 0)
(0.992656 -0.00197046 0)
(0.999295 -0.000214392 0)
(1.00057 -0.00047625 0)
(0.999678 -0.00135055 0)
(0.99899 -0.00288011 0)
(0.997498 -0.00245993 0)
(0.997065 -0.0020599 0)
(0.997511 -0.00165731 0)
(0.99799 -0.00281862 0)
(0.99842 -0.00333092 0)
(0.997706 -0.00416169 0)
(0.99755 -0.00455765 0)
(0.996138 -0.00522839 0)
(0.995454 -0.00508484 0)
(0.994607 -0.00499959 0)
(0.995061 -0.00460227 0)
(0.994715 -0.00436564 0)
(0.994623 -0.00386137 0)
(0.993691 -0.00330918 0)
(0.993482 -0.00259515 0)
(0.993213 -0.00205916 0)
(0.999338 -0.00017838 0)
(1.00055 -0.000474107 0)
(0.999659 -0.00123539 0)
(0.99908 -0.00263221 0)
(0.997831 -0.00233042 0)
(0.997396 -0.00211289 0)
(0.997663 -0.00167181 0)
(0.998011 -0.00276035 0)
(0.998459 -0.00326144 0)
(0.997778 -0.00405713 0)
(0.997622 -0.00428932 0)
(0.996313 -0.00484951 0)
(0.995737 -0.00470074 0)
(0.994967 -0.00470019 0)
(0.995443 -0.00436386 0)
(0.99516 -0.00416516 0)
(0.995147 -0.00369114 0)
(0.994304 -0.00321834 0)
(0.9941 -0.00261186 0)
(0.99376 -0.00213416 0)
(0.999377 -0.000147311 0)
(1.00053 -0.000465179 0)
(0.999648 -0.00112018 0)
(0.999163 -0.00239266 0)
(0.998132 -0.00220084 0)
(0.997717 -0.00215916 0)
(0.99783 -0.0016817 0)
(0.998034 -0.00268246 0)
(0.998491 -0.0031596 0)
(0.997871 -0.00394832 0)
(0.997732 -0.00406703 0)
(0.996504 -0.0045183 0)
(0.995999 -0.00434418 0)
(0.995291 -0.00439509 0)
(0.995805 -0.00412051 0)
(0.995592 -0.00396927 0)
(0.995643 -0.00354265 0)
(0.994865 -0.00314446 0)
(0.994665 -0.00261766 0)
(0.994279 -0.00219774 0)
(0.999412 -0.000120276 0)
(1.00051 -0.00044935 0)
(0.999648 -0.00101264 0)
(0.999242 -0.0021571 0)
(0.9984 -0.00205765 0)
(0.998022 -0.00218721 0)
(0.99801 -0.00169407 0)
(0.998067 -0.00260115 0)
(0.99852 -0.0030356 0)
(0.997968 -0.00381822 0)
(0.997872 -0.00389053 0)
(0.99672 -0.00424394 0)
(0.99626 -0.0040102 0)
(0.995588 -0.00407937 0)
(0.996125 -0.00387013 0)
(0.995983 -0.00379693 0)
(0.9961 -0.00342746 0)
(0.995389 -0.00308057 0)
(0.995202 -0.00260862 0)
(0.994775 -0.00222858 0)
(0.999444 -9.77542e-05 0)
(1.0005 -0.000423513 0)
(0.999657 -0.000909773 0)
(0.999318 -0.00193489 0)
(0.998635 -0.00190121 0)
(0.99831 -0.00220034 0)
(0.998204 -0.00170839 0)
(0.998112 -0.00251282 0)
(0.998547 -0.0028948 0)
(0.998062 -0.00367308 0)
(0.998026 -0.00371662 0)
(0.996967 -0.00403623 0)
(0.996533 -0.00372007 0)
(0.995859 -0.00378368 0)
(0.996399 -0.00361974 0)
(0.996331 -0.00361871 0)
(0.996532 -0.0033154 0)
(0.995887 -0.00300235 0)
(0.99571 -0.00258674 0)
(0.995242 -0.00225168 0)
(0.999472 -7.83634e-05 0)
(1.00048 -0.00039215 0)
(0.999677 -0.000811025 0)
(0.999394 -0.00173282 0)
(0.99884 -0.00172752 0)
(0.998574 -0.00219024 0)
(0.998412 -0.00173043 0)
(0.998177 -0.00242693 0)
(0.998576 -0.0027407 0)
(0.998154 -0.00351335 0)
(0.998177 -0.00352916 0)
(0.997228 -0.00386539 0)
(0.996832 -0.00350616 0)
(0.996123 -0.00351207 0)
(0.99664 -0.00336891 0)
(0.996628 -0.00342023 0)
(0.996924 -0.00320193 0)
(0.996353 -0.00294475 0)
(0.996178 -0.00256027 0)
(0.99569 -0.00228435 0)
(0.999497 -6.29611e-05 0)