/*--------------------------------*- C++ -*----------------------------------*\
| =========                 |                                                 |
| \\      /  F ield         | OpenFOAM: The Open Source CFD Toolbox           |
|  \\    /   O peration     | Version:  v1912                                 |
|   \\  /    A nd           | Website:  www.openfoam.com                      |
|    \\/     M anipulation  |                                                 |
\*---------------------------------------------------------------------------*/
FoamFile
{
    version     2.0;
    format      ascii;
    class       volVectorField;
    location    "5.5";
    object      U;
}
// * * * * * * * * * * * * * * * * * * * * * * * * * * * * * * * * * * * * * //

dimensions      [0 1 -1 0 0 0 0];


internalField   nonuniform List<vector> 
9600
(
(0.612629 -0.0131462 0)
(1.49157 0.0221646 0)
(0.598435 -0.0141558 0)
(1.20931 -0.014817 0)
(0.767276 0.000101396 0)
(1.39563 0.021619 0)
(0.655356 0.0088954 0)
(1.31257 0.000871452 0)
(0.754637 -0.0101283 0)
(1.27651 0.00716513 0)
(0.73816 0.00962809 0)
(1.21693 0.0240835 0)
(0.846766 0.0102874 0)
(1.17255 0.011829 0)
(0.8639 0.00783891 0)
(1.19439 0.00746684 0)
(0.870174 0.00761538 0)
(1.18122 0.00963572 0)
(0.86723 0.0123993 0)
(1.16147 0.0170173 0)
(0.623647 -0.0142334 0)
(1.48114 0.0222389 0)
(0.678335 -0.0119336 0)
(1.22078 -0.0162132 0)
(0.776067 -0.00250592 0)
(1.39125 0.0226797 0)
(0.680022 0.00924249 0)
(1.31048 3.73056e-05 0)
(0.785454 -0.0102699 0)
(1.27376 0.00788116 0)
(0.759847 0.0101965 0)
(1.19993 0.0230494 0)
(0.88371 0.0106031 0)
(1.14723 0.0119648 0)
(0.913743 0.00717887 0)
(1.15143 0.00731087 0)
(0.941072 0.00808347 0)
(1.1104 0.00921211 0)
(0.969267 0.0141056 0)
(1.04427 0.0152239 0)
(0.64354 -0.0151562 0)
(1.4616 0.0224456 0)
(0.764599 -0.0105821 0)
(1.223 -0.0163543 0)
(0.792054 -0.00407103 0)
(1.37996 0.0242927 0)
(0.736281 0.00955988 0)
(1.29874 -0.00056209 0)
(0.84625 -0.0102493 0)
(1.25817 0.00883318 0)
(0.817921 0.0110262 0)
(1.15715 0.0213311 0)
(0.947582 0.0112835 0)
(1.10542 0.011501 0)
(0.98071 0.00690649 0)
(1.10147 0.0068597 0)
(1.00984 0.00892949 0)
(1.06166 0.00894358 0)
(1.01944 0.0153565 0)
(1.02142 0.0154131 0)
(0.672985 -0.0160318 0)
(1.43133 0.0219225 0)
(0.85714 -0.00910277 0)
(1.2102 -0.0160465 0)
(0.816023 -0.00572008 0)
(1.35868 0.0252025 0)
(0.821503 0.00997517 0)
(1.26903 -0.00139948 0)
(0.92575 -0.0100111 0)
(1.22444 0.00954107 0)
(0.897586 0.0123565 0)
(1.1038 0.0195667 0)
(1.00426 0.0118353 0)
(1.07383 0.01091 0)
(1.02671 0.00696059 0)
(1.07443 0.00630919 0)
(1.0443 0.00970769 0)
(1.05016 0.00910001 0)
(1.03332 0.0161198 0)
(1.0263 0.0163826 0)
(0.712082 -0.0169286 0)
(1.38962 0.020699 0)
(0.944437 -0.00759465 0)
(1.18007 -0.0152142 0)
(0.848536 -0.00738875 0)
(1.32478 0.0252082 0)
(0.921161 0.0106888 0)
(1.22431 -0.0022754 0)
(0.99974 -0.00959624 0)
(1.1791 0.0100446 0)
(0.969646 0.0140883 0)
(1.06441 0.0181724 0)
(1.03798 0.0119433 0)
(1.06275 0.010563 0)
(1.05024 0.00697657 0)
(1.06702 0.00591628 0)
(1.05768 0.0102277 0)
(1.05321 0.00956754 0)
(1.03929 0.0168664 0)
(1.0313 0.0172124 0)
(0.758839 -0.0178153 0)
(1.33778 0.0190439 0)
(1.01544 -0.00600577 0)
(1.13646 -0.0140188 0)
(0.886453 -0.00903491 0)
(1.27955 0.02438 0)
(1.01328 0.0116826 0)
(1.17648 -0.0028657 0)
(1.04673 -0.00906613 0)
(1.13377 0.0105355 0)
(1.01768 0.0157408 0)
(1.04954 0.017325 0)
(1.05532 0.0116896 0)
(1.06476 0.0103336 0)
(1.06238 0.00697175 0)
(1.06719 0.00572924 0)
(1.06256 0.0105701 0)
(1.05797 0.01023 0)
(1.04498 0.0176042 0)
(1.03669 0.0179581 0)
(0.80907 -0.0186499 0)
(1.27951 0.017118 0)
(1.06259 -0.00435544 0)
(1.08898 -0.0126367 0)
(0.922642 -0.0106498 0)
(1.2294 0.0228453 0)
(1.08063 0.0127905 0)
(1.13599 -0.00286541 0)
(1.06104 -0.00844457 0)
(1.09521 0.0109666 0)
(1.04262 0.016901 0)
(1.05331 0.0168746 0)
(1.06661 0.0113068 0)
(1.07052 0.0101452 0)
(1.06881 0.00709681 0)
(1.06738 0.00572339 0)
(1.06292 0.0108449 0)
(1.06004 0.0108662 0)
(1.05008 0.0181934 0)
(1.04305 0.0187024 0)
(0.857655 -0.0193979 0)
(1.21943 0.0151137 0)
(1.08427 -0.00270145 0)
(1.04878 -0.0112403 0)
(0.95022 -0.0122344 0)
(1.18166 0.0208415 0)
(1.11723 0.0138647 0)
(1.10566 -0.00216583 0)
(1.05143 -0.00774456 0)
(1.06383 0.0111213 0)
(1.0521 0.0173548 0)
(1.06406 0.0165121 0)
(1.07533 0.0110001 0)
(1.07453 0.0100912 0)
(1.07033 0.00742293 0)
(1.06406 0.00587709 0)
(1.05909 0.0110651 0)
(1.05764 0.0113274 0)
(1.05238 0.0185244 0)
(1.04825 0.0193793 0)
(0.900249 -0.0200241 0)
(1.1614 0.013266 0)
(1.08462 -0.00117399 0)
(1.0227 -0.00995526 0)
(0.966716 -0.0137193 0)
(1.13952 0.0186528 0)
(1.12598 0.0148002 0)
(1.08262 -0.000886311 0)
(1.03186 -0.00698052 0)
(1.0384 0.0108304 0)
(1.05242 0.0170548 0)
(1.07218 0.0160302 0)
(1.07938 0.0108746 0)
(1.07385 0.0102394 0)
(1.06676 0.00795716 0)
(1.0565 0.00618642 0)
(1.05117 0.011236 0)
(1.0506 0.011605 0)
(1.05002 0.0185313 0)
(1.04954 0.019885 0)
(0.934306 -0.0204915 0)
(1.10837 0.0117357 0)
(1.0713 0.000105321 0)
(1.01053 -0.00884629 0)
(0.974448 -0.014962 0)
(1.10198 0.016537 0)
(1.11393 0.0155462 0)
(1.06325 0.000689352 0)
(1.01345 -0.00616089 0)
(1.01889 0.0101168 0)
(1.04702 0.0161463 0)
(1.07246 0.0154107 0)
(1.07613 0.0109348 0)
(1.06734 0.0105623 0)
(1.05862 0.00866587 0)
(1.04601 0.00664861 0)
(1.04039 0.0113788 0)
(1.04019 0.0117499 0)
(1.04284 0.0182266 0)
(1.04548 0.0201591 0)
(0.959205 -0.0207707 0)
(1.06315 0.0105752 0)
(1.05257 0.00102079 0)
(1.0074 -0.00794835 0)
(0.977775 -0.0158358 0)
(1.06761 0.0146813 0)
(1.08963 0.0160876 0)
(1.04615 0.00226256 0)
(1.00123 -0.00533834 0)
(1.00543 0.00917966 0)
(1.03778 0.0149315 0)
(1.06403 0.0147463 0)
(1.06548 0.0111222 0)
(1.05581 0.0109768 0)
(1.04747 0.00945693 0)
(1.03475 0.00720931 0)
(1.02892 0.0115074 0)
(1.02868 0.0118355 0)
(1.03257 0.0177143 0)
(1.03689 0.0202105 0)
(0.97586 -0.0208556 0)
(1.02825 0.00975061 0)
(1.03478 0.00152002 0)
(1.00791 -0.00727315 0)
(0.980086 -0.0162897 0)
(1.03733 0.0131789 0)
(1.06165 0.0164048 0)
(1.03186 0.00358686 0)
(0.995293 -0.00457986 0)
(0.996957 0.00825908 0)
(1.0263 0.0137265 0)
(1.04935 0.0141368 0)
(1.05008 0.0113514 0)
(1.04178 0.0113719 0)
(1.03555 0.010193 0)
(1.02472 0.00778301 0)
(1.0189 0.0116349 0)
(1.01828 0.0119389 0)
(1.02179 0.0171437 0)
(1.02619 0.0201101 0)
(0.986098 -0.0207713 0)
(1.00462 0.00917456 0)
(1.02112 0.00168695 0)
(1.0086 -0.00680788 0)
(0.982656 -0.0163594 0)
(1.01359 0.0120361 0)
(1.03684 0.0164943 0)
(1.02117 0.00453392 0)
(0.993503 -0.00389537 0)
(0.991777 0.00752101 0)
(1.01455 0.0127314 0)
(1.03269 0.013622 0)
(1.03399 0.0115306 0)
(1.02838 0.011646 0)
(1.02506 0.0107645 0)
(1.01711 0.00830731 0)
(1.01158 0.0117701 0)
(1.01036 0.0121121 0)
(1.0126 0.0166518 0)
(1.01594 0.0199489 0)
(0.99198 -0.0205619 0)
(0.990943 0.00875687 0)
(1.01193 0.00163764 0)
(1.00821 -0.00651569 0)
(0.985299 -0.0161379 0)
(0.997887 0.0111987 0)
(1.01881 0.0163921 0)
(1.01405 0.00512712 0)
(0.993607 -0.00326933 0)
(0.988588 0.00701541 0)
(1.0046 0.0120001 0)
(1.01816 0.013185 0)
(1.02066 0.0115947 0)
(1.01793 0.011755 0)
(1.01735 0.0111352 0)
(1.01217 0.00875447 0)
(1.00707 0.0119159 0)
(1.00518 0.0123745 0)
(1.00601 0.0163189 0)
(1.00787 0.0197933 0)
(0.995243 -0.0202738 0)
(0.984376 0.00843322 0)
(1.00615 0.00148537 0)
(1.00678 -0.00634881 0)
(0.987499 -0.0157388 0)
(0.98942 0.0105814 0)
(1.00779 0.0161672 0)
(1.0097 0.00545773 0)
(0.994172 -0.00268467 0)
(0.986758 0.00671027 0)
(0.997768 0.0114885 0)
(1.00803 0.0127936 0)
(1.01168 0.0115297 0)
(1.01117 0.0117165 0)
(1.01256 0.0113291 0)
(1.00942 0.00912663 0)
(1.00475 0.0120808 0)
(1.00232 0.0127176 0)
(1.00209 0.0161526 0)
(1.00259 0.0196648 0)
(0.997058 -0.0199428 0)
(0.981973 0.00816409 0)
(1.00258 0.00130368 0)
(1.00483 -0.00626691 0)
(0.989015 -0.0152566 0)
(0.985843 0.010096 0)
(1.002 0.0158865 0)
(1.00713 0.00562762 0)
(0.994635 -0.00212593 0)
(0.985984 0.00653914 0)
(0.994166 0.0111165 0)
(1.00243 0.0124259 0)
(1.00675 0.0113624 0)
(1.00749 0.0115776 0)
(1.00997 0.0114013 0)
(1.00806 0.00944496 0)
(1.0038 0.0122689 0)
(1.00109 0.0131125 0)
(1.00033 0.0161113 0)
(0.999897 0.0195543 0)
(0.998069 -0.0195909 0)
(0.981599 0.0079257 0)
(1.00042 0.0011333 0)
(1.00285 -0.00623986 0)
(0.989904 -0.0147475 0)
(0.984721 0.00967673 0)
(0.999271 0.0155912 0)
(1.0056 0.00571626 0)
(0.994967 -0.00158779 0)
(0.986025 0.00643679 0)
(0.993035 0.0108109 0)
(1.00021 0.0120738 0)
(1.00462 0.0111365 0)
(1.00573 0.0113914 0)
(1.00864 0.0114083 0)
(1.00735 0.00972805 0)
(1.0035 0.0124707 0)
(1.00079 0.0135227 0)
(1.00003 0.0161406 0)
(0.999139 0.0194458 0)
(0.998585 -0.0192282 0)
(0.982025 0.00770086 0)
(0.999263 0.000995664 0)
(1.00117 -0.00624517 0)
(0.990345 -0.0142339 0)
(0.984419 0.00928219 0)
(0.997977 0.0152984 0)
(1.00466 0.00576545 0)
(0.995298 -0.00107619 0)
(0.986651 0.00635614 0)
(0.993408 0.0105216 0)
(0.999938 0.0117401 0)
(1.00393 0.0108952 0)
(1.00485 0.0112004 0)
(1.00776 0.0113906 0)
(1.0068 0.0099822 0)
(1.00339 0.0126696 0)
(1.00092 0.0139146 0)
(1.00054 0.0161911 0)
(0.999578 0.0193182 0)
(0.998751 -0.0188563 0)
(0.982641 0.00747435 0)
(0.998886 0.000892476 0)
(0.999962 -0.00626603 0)
(0.990511 -0.0137193 0)
(0.98417 0.0088923 0)
(0.997205 0.0150037 0)
(1.00408 0.00579232 0)
(0.995716 -0.000595973 0)
(0.987658 0.00627396 0)
(0.994495 0.0102245 0)
(1.00053 0.0114348 0)
(1.00377 0.0106747 0)
(1.00418 0.0110256 0)
(1.00688 0.0113734 0)
(1.00614 0.0102059 0)
(1.00322 0.0128474 0)
(1.00115 0.0142629 0)
(1.00136 0.0162205 0)
(1.0006 0.0191455 0)
(0.998653 -0.0184722 0)
(0.983186 0.00723195 0)
(0.999117 0.000818338 0)
(0.999246 -0.006287 0)
(0.99053 -0.0131966 0)
(0.983772 0.00849993 0)
(0.996557 0.0146967 0)
(1.00376 0.00580103 0)
(0.996215 -0.000154837 0)
(0.988855 0.00618118 0)
(0.995754 0.0099148 0)
(1.0013 0.0111686 0)
(1.00362 0.0104992 0)
(1.00342 0.0108754 0)
(1.0058 0.011371 0)
(1.00528 0.010397 0)
(1.0029 0.0129853 0)
(1.00131 0.0145502 0)
(1.00217 0.016199 0)
(1.00178 0.0189054 0)
(0.998368 -0.0180709 0)
(0.983609 0.00696014 0)
(0.999756 0.000764296 0)
(0.998931 -0.00629624 0)
(0.990492 -0.0126567 0)
(0.983298 0.00810299 0)
(0.995914 0.0143661 0)
(1.00362 0.00579062 0)
(0.99673 0.000246245 0)
(0.990069 0.00608071 0)
(0.996835 0.00959879 0)
(1.0019 0.0109467 0)
(1.00328 0.0103802 0)
(1.00253 0.0107506 0)
(1.00455 0.0113868 0)
(1.00427 0.010558 0)
(1.00244 0.0130684 0)
(1.00134 0.0147695 0)
(1.0028 0.0161153 0)
(1.00286 0.018585 0)
(0.997976 -0.0176485 0)
(0.983963 0.00664904 0)
(1.00059 0.000723203 0)
(0.998855 -0.00628582 0)
(0.990459 -0.0120948 0)
(0.982918 0.00770252 0)
(0.995266 0.0140034 0)
(1.00363 0.00576182 0)
(0.99718 0.000610317 0)
(0.991177 0.00598125 0)
(0.997565 0.00928721 0)
(1.00218 0.0107659 0)
(1.00281 0.0103189 0)
(1.00164 0.0106482 0)
(1.00329 0.0114131 0)
(1.00325 0.0106969 0)
(1.00189 0.0130866 0)
(1.00125 0.0149198 0)
(1.00317 0.0159807 0)
(1.00368 0.0181827 0)
(0.997548 -0.0172028 0)
(0.984313 0.00629277 0)
(1.00146 0.000690608 0)
(0.99886 -0.00625163 0)
(0.990466 -0.0115109 0)
(0.982796 0.00730523 0)
(0.994627 0.0136061 0)
(1.00372 0.00571684 0)
(0.997511 0.000941005 0)
(0.99212 0.00589035 0)
(0.99793 0.00899112 0)
(1.00219 0.0106135 0)
(1.00231 0.0103078 0)
(1.00089 0.0105663 0)
(1.00219 0.0114385 0)
(1.00236 0.010824 0)
(1.00137 0.0130404 0)
(1.00109 0.0150006 0)
(1.00329 0.0158183 0)
(1.00422 0.0177092 0)
(0.997142 -0.016733 0)
(0.984692 0.00588857 0)
(1.00223 0.000665819 0)
(0.998853 -0.00619031 0)
(0.990514 -0.0109127 0)
(0.983019 0.00691335 0)
(0.994009 0.0131768 0)
(1.00386 0.00565935 0)
(0.997726 0.00124449 0)
(0.992902 0.00581307 0)
(0.998027 0.00871786 0)
(1.00202 0.0104732 0)
(1.00192 0.0103325 0)
(1.00038 0.0105053 0)
(1.00137 0.0114571 0)
(1.0017 0.01095 0)
(1.00096 0.0129447 0)
(1.00096 0.0150149 0)
(1.00324 0.0156485 0)
(1.00454 0.0171842 0)
(0.996802 -0.0162399 0)
(0.985094 0.00543893 0)
(1.00286 0.000650455 0)
(0.998824 -0.00610039 0)
(0.99058 -0.0103142 0)
(0.983584 0.00653224 0)
(0.99343 0.0127215 0)
(1.00398 0.00559092 0)
(0.99788 0.00152217 0)
(0.993548 0.00575081 0)
(0.997977 0.00847175 0)
(1.00177 0.0103294 0)
(1.00167 0.0103761 0)
(1.00009 0.0104659 0)
(1.00084 0.0114658 0)
(1.00132 0.0110819 0)
(1.00071 0.012821 0)
(1.00093 0.014969 0)
(1.00312 0.0154863 0)
(1.00475 0.01664 0)
(0.996569 -0.0157249 0)
(0.985496 0.00494722 0)
(1.00328 0.000647334 0)
(0.998819 -0.00598133 0)
(0.990636 -0.00972764 0)
(0.984414 0.00616975 0)
(0.992918 0.0122474 0)
(1.00408 0.00551282 0)
(0.998048 0.00177673 0)
(0.994084 0.00570479 0)
(0.997874 0.00825608 0)
(1.00151 0.0101691 0)
(1.00154 0.0104249 0)
(0.99998 0.0104477 0)
(1.00055 0.0114606 0)
(1.00117 0.0112184 0)
(1.00064 0.0126871 0)
(1.00103 0.0148645 0)
(1.00303 0.0153365 0)
(1.00494 0.0161163 0)
(0.996477 -0.015189 0)
(0.985878 0.00441907 0)
(1.00344 0.000648328 0)
(0.99889 -0.00583293 0)
(0.990677 -0.00916148 0)
(0.985391 0.00582399 0)
(0.992514 0.0117631 0)
(1.00409 0.00542535 0)
(0.998291 0.00201264 0)
(0.994528 0.00567606 0)
(0.997766 0.00807364 0)
(1.00124 0.00998577 0)
(1.00144 0.0104699 0)
(0.999967 0.0104473 0)
(1.00043 0.0114398 0)
(1.00119 0.0113508 0)
(1.00073 0.0125569 0)
(1.00128 0.0146999 0)
(1.00302 0.0151923 0)
(1.00514 0.0156503 0)
(0.996545 -0.0146348 0)
(0.986233 0.00386449 0)
(1.00328 0.000652231 0)
(0.999064 -0.00565868 0)
(0.990729 -0.00862051 0)
(0.986391 0.00549374 0)
(0.992261 0.0112759 0)
(1.00401 0.00532693 0)
(0.998623 0.00222872 0)
(0.994893 0.00566357 0)
(0.997663 0.0079254 0)
(1.001 0.00978079 0)
(1.00132 0.010503 0)
(0.999995 0.0104594 0)
(1.00039 0.0114031 0)
(1.00134 0.0114682 0)
(1.00094 0.0124398 0)
(1.00164 0.0144797 0)
(1.00311 0.0150301 0)
(1.00536 0.0152645 0)
(0.996768 -0.0140653 0)
(0.986576 0.00329545 0)
(1.00277 0.000654734 0)
(0.999324 -0.00546498 0)
(0.99084 -0.0081055 0)
(0.987315 0.00517922 0)
(0.992189 0.0107889 0)
(1.0038 0.0052174 0)
(0.999009 0.00242558 0)
(0.995194 0.00566966 0)
(0.997555 0.00781091 0)
(1.00081 0.00955887 0)
(1.00115 0.0105155 0)
(1.00004 0.0104792 0)
(1.0004 0.0113464 0)
(1.00155 0.0115659 0)
(1.00122 0.0123364 0)
(1.00207 0.014219 0)
(1.00331 0.0148236 0)
(1.0056 0.0149484 0)
(0.997111 -0.0134833 0)
(0.986934 0.00272516 0)
(1.00196 0.00064568 0)
(0.999617 -0.00525977 0)
(0.991058 -0.00761661 0)
(0.988106 0.00487867 0)
(0.992299 0.0103067 0)
(1.00346 0.00509915 0)
(0.999392 0.0026013 0)
(0.995446 0.00569538 0)
(0.997431 0.0077281 0)
(1.00069 0.00932679 0)
(1.00095 0.010505 0)
(1.0001 0.010505 0)
(1.00043 0.0112602 0)
(1.00181 0.0116364 0)
(1.00156 0.0122462 0)
(1.00254 0.0139407 0)
(1.00358 0.0145678 0)
(1.00583 0.014665 0)
(0.997521 -0.0128939 0)
(0.987335 0.00216804 0)
(1.00093 0.000624499 0)
(0.999879 -0.00505328 0)
(0.991406 -0.00715242 0)
(0.988753 0.00458899 0)
(0.992558 0.00983229 0)
(1.00304 0.00497838 0)
(0.999718 0.00275417 0)
(0.995668 0.00574019 0)
(0.997289 0.00767268 0)
(1.00065 0.00908461 0)
(1.00074 0.0104728 0)
(1.00018 0.0105413 0)
(1.0005 0.0111451 0)
(1.00209 0.0116649 0)
(1.00192 0.0121625 0)
(1.00301 0.0136589 0)
(1.0039 0.0142755 0)
(1.00605 0.0143799 0)
(0.997941 -0.0122999 0)
(0.9878 0.0016329 0)
(0.999812 0.000590421 0)
(1.00006 -0.00485396 0)
(0.991871 -0.00671137 0)
(0.989284 0.00430893 0)
(0.992911 0.00936624 0)
(1.00258 0.00485986 0)
(0.999959 0.00287902 0)
(0.995876 0.00579885 0)
(0.997135 0.00764731 0)
(1.0007 0.00883003 0)
(1.00058 0.0104107 0)
(1.00027 0.0105841 0)
(1.0006 0.0110154 0)
(1.00237 0.0116496 0)
(1.00229 0.0120814 0)
(1.00344 0.0133772 0)
(1.00423 0.0139583 0)
(1.00625 0.0140778 0)
(0.998322 -0.0117048 0)
(0.988332 0.00112642 0)
(0.99874 0.000545635 0)
(1.00013 -0.00466761 0)
(0.992415 -0.00629145 0)
(0.989746 0.00403794 0)
(0.993294 0.00891044 0)
(1.00212 0.00475169 0)
(1.00011 0.00297276 0)
(0.996083 0.00585492 0)
(0.996986 0.00765353 0)
(1.0008 0.00857469 0)
(1.00049 0.010313 0)
(1.00038 0.0106198 0)
(1.00071 0.0108714 0)
(1.00265 0.0115914 0)
(1.00264 0.0120118 0)
(1.00382 0.0131078 0)
(1.00453 0.0136305 0)
(1.0064 0.0137607 0)
(0.998637 -0.0111112 0)
(0.988921 0.000649008 0)
(0.997811 0.000494728 0)
(1.00009 -0.00449495 0)
(0.992985 -0.00589248 0)
(0.990189 0.00377372 0)
(0.993653 0.00846342 0)
(1.00168 0.00466157 0)
(1.0002 0.00304536 0)
(0.996296 0.00590283 0)
(0.996861 0.00767452 0)
(1.00093 0.00832049 0)
(1.00047 0.0101832 0)
(1.00048 0.0106634 0)
(1.00083 0.0107155 0)
(1.00291 0.0114716 0)
(1.00295 0.0119475 0)
(1.00414 0.0128602 0)
(1.00478 0.0133018 0)
(1.0065 0.0134558 0)
(0.998876 -0.0105206 0)
(0.989545 0.000200531 0)
(0.997073 0.000438277 0)
(0.999958 -0.00433721 0)
(0.993535 -0.00551602 0)
(0.990645 0.00351956 0)
(0.993958 0.00802903 0)
(1.00128 0.00458608 0)
(1.00024 0.00309205 0)
(0.996516 0.00594817 0)
(0.996769 0.00771683 0)
(1.00107 0.00806505 0)
(1.00052 0.00999716 0)
(1.00057 0.010725 0)
(1.00093 0.0105831 0)
(1.00315 0.0112877 0)
(1.00322 0.0118727 0)
(1.00438 0.0126412 0)
(1.00498 0.0129564 0)
(1.00656 0.0131704 0)
(0.999047 -0.00993353 0)
(0.990183 -0.000224264 0)
(0.996533 0.000380441 0)
(0.99977 -0.00418825 0)
(0.994038 -0.00516268 0)
(0.991132 0.00326774 0)
(0.994196 0.00761081 0)
(1.00093 0.00453767 0)
(1.00027 0.00310996 0)
(0.996744 0.00596197 0)
(0.996711 0.00778697 0)
(1.0012 0.00784545 0)
(1.00065 0.00974159 0)
(1.00064 0.0107668 0)
(1.00099 0.0104937 0)
(1.00334 0.0110571 0)
(1.00346 0.0117802 0)
(1.00455 0.0124847 0)
(1.00513 0.0125999 0)
(1.00657 0.0128635 0)
(0.999166 -0.0093517 0)
(0.990816 -0.00062806 0)
(0.996165 0.000318852 0)
(0.999551 -0.00404367 0)
(0.99448 -0.00482871 0)
(0.991649 0.00302002 0)
(0.994376 0.00719295 0)
(1.0006 0.00450432 0)
(1.00029 0.00312501 0)
(0.996982 0.0059367 0)
(0.996687 0.00784377 0)
(1.0013 0.00767664 0)
(1.00083 0.00945662 0)
(1.00072 0.0107765 0)
(1.001 0.0104534 0)
(1.0035 0.0107871 0)
(1.00367 0.0116166 0)
(1.00465 0.012395 0)
(1.0052 0.01229 0)
(1.00655 0.0125176 0)
(0.99925 -0.00877688 0)
(0.991432 -0.00101209 0)
(0.995931 0.000254956 0)
(0.999326 -0.00390044 0)
(0.994865 -0.00451874 0)
(0.992182 0.00278188 0)
(0.994511 0.00679206 0)
(1.0003 0.00447493 0)
(1.00032 0.00312623 0)
(0.997227 0.00589679 0)
(0.99669 0.00788638 0)
(1.00137 0.00752553 0)
(1.00105 0.00914114 0)
(1.0008 0.0107412 0)
(1.00097 0.0104708 0)
(1.0036 0.0105407 0)
(1.00387 0.0113687 0)
(1.0047 0.0123051 0)
(1.00518 0.0120617 0)
(1.0065 0.0121425 0)
(0.999313 -0.00820592 0)
(0.992025 -0.00138241 0)
(0.995793 0.00018827 0)
(0.99911 -0.00374501 0)
(0.995204 -0.00423239 0)
(0.992721 0.00254088 0)
(0.994617 0.00639789 0)
(1.00001 0.00447112 0)
(1.00034 0.00312037 0)
(0.997485 0.00581628 0)
(0.996708 0.00793867 0)
(1.0014 0.0074188 0)
(1.0013 0.00879763 0)
(1.0009 0.010639 0)
(1.0009 0.0105002 0)
(1.00364 0.0103288 0)
(1.00407 0.0110897 0)
(1.00474 0.0121888 0)
(1.0051 0.0119207 0)
(1.0064 0.0117892 0)
(0.999366 -0.00764796 0)
(0.992594 -0.00172657 0)
(0.995719 0.000114511 0)
(0.998909 -0.00358731 0)
(0.995508 -0.00396462 0)
(0.993251 0.00231277 0)
(0.994711 0.00600588 0)
(0.999733 0.00446728 0)
(1.00037 0.0031259 0)
(0.997756 0.00569537 0)
(0.996746 0.00795457 0)
(1.00138 0.00736759 0)
(1.00156 0.00845159 0)
(1.00104 0.0104887 0)
(1.0008 0.0105775 0)
(1.00363 0.010138 0)
(1.00427 0.0107583 0)
(1.00479 0.0120192 0)
(1.00495 0.0118525 0)
(1.00623 0.0115263 0)
(0.999413 -0.00709504 0)
(0.993143 -0.0020583 0)
(0.995685 3.71047e-05 0)
(0.998725 -0.00342106 0)
(0.995789 -0.00371911 0)
(0.993766 0.00209263 0)
(0.9948 0.00562232 0)
(0.999464 0.00446231 0)
(1.00038 0.00313843 0)
(0.998035 0.00555369 0)
(0.996799 0.00793812 0)
(1.00132 0.00734556 0)
(1.00181 0.00812016 0)
(1.00122 0.0102157 0)
(1.00069 0.0106646 0)
(1.00355 0.0100671 0)
(1.00447 0.0103951 0)
(1.00489 0.0117705 0)
(1.00478 0.0118126 0)
(1.00599 0.0113554 0)
(0.999459 -0.00655853 0)
(0.993674 -0.00235952 0)
(0.995679 -5.46694e-05 0)
(0.998556 -0.00324245 0)
(0.996053 -0.00349546 0)
(0.99426 0.00189472 0)
(0.994895 0.00524095 0)
(0.999207 0.00445065 0)
(1.00038 0.00314435 0)
(0.99832 0.00539622 0)
(0.996869 0.00787089 0)
(1.00121 0.00734095 0)
(1.00202 0.00785412 0)
(1.00145 0.00990535 0)
(1.00062 0.0106369 0)
(1.00339 0.010054 0)
(1.00462 0.0100856 0)
(1.00504 0.0114183 0)
(1.00461 0.0117823 0)
(1.00567 0.0112906 0)
(0.999503 -0.00603493 0)
(0.99419 -0.00263991 0)
(0.995693 -0.000150977 0)
(0.9984 -0.00305801 0)
(0.996304 -0.00329064 0)
(0.994734 0.00170328 0)
(0.994997 0.00487901 0)
(0.998956 0.00443585 0)
(1.00037 0.00316247 0)
(0.998604 0.00522717 0)
(0.996952 0.00778983 0)
(1.00109 0.00734028 0)
(1.00221 0.00757232 0)
(1.00169 0.00957203 0)
(1.00056 0.0105622 0)
(1.0032 0.0100384 0)
(1.00471 0.00980208 0)
(1.00523 0.0109472 0)
(1.00452 0.0115844 0)
(1.00529 0.0112331 0)
(0.999545 -0.00552491 0)
(0.994692 -0.00289567 0)
(0.995727 -0.000255097 0)
(0.998253 -0.00286163 0)
(0.996543 -0.00311006 0)
(0.995189 0.00153884 0)
(0.995113 0.00451644 0)
(0.998719 0.00440176 0)
(1.00034 0.0031981 0)
(0.998891 0.00503575 0)
(0.997051 0.00766238 0)
(1.00093 0.00737064 0)
(1.00235 0.00736397 0)
(1.00197 0.00914983 0)
(1.00054 0.0103883 0)
(1.00295 0.0100438 0)
(1.00472 0.00950477 0)
(1.00543 0.0104154 0)
(1.00449 0.0111815 0)
(1.00497 0.0111165 0)
(0.999585 -0.00504074 0)
(0.99518 -0.00311029 0)
(0.995779 -0.000382499 0)
(0.998116 -0.00264943 0)
(0.996771 -0.00294094 0)
(0.995622 0.00136535 0)
(0.995237 0.00419318 0)
(0.998496 0.00435887 0)
(1.00029 0.00320748 0)
(0.999166 0.00487071 0)
(0.997178 0.00749931 0)
(1.00076 0.0073709 0)
(1.00244 0.00718271 0)
(1.00224 0.00874324 0)
(1.00059 0.010142 0)
(1.00269 0.00993475 0)
(1.00463 0.00924718 0)
(1.00561 0.00984682 0)
(1.00456 0.0107157 0)
(1.00476 0.0109644 0)
(0.999622 -0.00457196 0)
(0.995649 -0.00330041 0)
(0.995857 -0.000512094 0)
(0.997991 -0.00242676 0)
(0.996975 -0.00279953 0)
(0.996042 0.00120599 0)
(0.995385 0.00389355 0)
(0.998281 0.00429725 0)
(1.00022 0.00322204 0)
(0.99944 0.00468163 0)
(0.997314 0.00728348 0)
(1.00055 0.00740798 0)
(1.00248 0.00701892 0)
(1.00253 0.00830567 0)
(1.00065 0.0098338 0)
(1.00241 0.00985483 0)
(1.00447 0.00906453 0)
(1.00576 0.00946134 0)
(1.00473 0.0103747 0)
(1.00467 0.0108775 0)
(0.999655 -0.00413086 0)
(0.996105 -0.00344434 0)
(0.995957 -0.00066823 0)
(0.99787 -0.00219189 0)
(0.99717 -0.00266308 0)
(0.996446 0.00104951 0)
(0.995535 0.00360159 0)
(0.998088 0.00425093 0)
(1.00014 0.00323154 0)
(0.999693 0.00446818 0)
(0.997503 0.00708179 0)
(1.00038 0.00739457 0)
(1.00243 0.00687856 0)
(1.00278 0.00792235 0)
(1.0008 0.00946081 0)
(1.00215 0.00973545 0)
(1.00425 0.00902182 0)
(1.00589 0.00908847 0)
(1.00494 0.00997761 0)
(1.00461 0.0106888 0)
(0.999686 -0.00371882 0)
(0.996537 -0.00354859 0)
(0.996087 -0.000839451 0)
(0.997766 -0.00194336 0)
(0.997336 -0.0025304 0)
(0.996835 0.000868412 0)
(0.995718 0.00336357 0)
(0.997909 0.00420244 0)
(1.00003 0.00322609 0)
(0.99995 0.00427759 0)
(0.9977 0.00682974 0)
(1.00016 0.00734371 0)
(1.00235 0.00682067 0)
(1.00303 0.00754276 0)
(1.00096 0.00905201 0)
(1.00196 0.00958868 0)
(1.00397 0.00905651 0)
(1.00591 0.00874704 0)
(1.00521 0.00952174 0)
(1.0047 0.0103837 0)
(0.999712 -0.00333185 0)
(0.996947 -0.00360768 0)
(0.996244 -0.00102454 0)
(0.997672 -0.00170898 0)
(0.997482 -0.00239316 0)
(0.997216 0.000707159 0)
(0.995909 0.00311639 0)
(0.997744 0.00414365 0)
(0.9999 0.00324804 0)
(1.00017 0.00406172 0)
(0.997948 0.00652272 0)
(1.00002 0.00734616 0)
(1.0022 0.0067921 0)
(1.00318 0.00714236 0)
(1.00122 0.00867654 0)
(1.00184 0.00950699 0)
(1.00364 0.00906688 0)
(1.00584 0.00866137 0)
(1.00547 0.00916193 0)
(1.00486 0.0100365 0)
(0.999737 -0.00297854 0)
(0.997331 -0.00362276 0)
(0.996426 -0.0012258 0)
(0.9976 -0.00148127 0)
(0.997602 -0.00222568 0)
(0.997575 0.000502429 0)
(0.996132 0.00287577 0)
(0.997611 0.00414108 0)
(0.999747 0.00327454 0)
(1.00038 0.00385321 0)
(0.998227 0.00623017 0)
(0.999862 0.0072463 0)
(1.00198 0.00676069 0)
(1.00333 0.00689618 0)
(1.00151 0.00831392 0)
(1.00177 0.00927932 0)
(1.00332 0.00907632 0)
(1.00567 0.00863629 0)
(1.00564 0.00882868 0)
(1.00507 0.00958026 0)
(0.999758 -0.00265992 0)
(0.997687 -0.00358714 0)
(0.996635 -0.00142822 0)
(0.99755 -0.00127777 0)
(0.997692 -0.0020445 0)
(0.997922 0.000314766 0)
(0.996386 0.00264082 0)
(0.997493 0.00410856 0)
(0.999566 0.00332251 0)
(1.00055 0.00367834 0)
(0.998536 0.00587365 0)
(0.999793 0.00714693 0)
(1.00177 0.00682591 0)
(1.00338 0.0066855 0)
(1.0018 0.00786999 0)
(1.00181 0.00901662 0)
(1.00305 0.00905018 0)
(1.00542 0.00859211 0)
(1.00569 0.00857949 0)
(1.00528 0.0091372 0)
(0.999778 -0.00237007 0)
(0.998012 -0.00351222 0)
(0.996861 -0.00163201 0)
(0.997528 -0.00111096 0)
(0.997758 -0.00183057 0)
(0.998243 0.000143979 0)
(0.996668 0.00237102 0)
(0.997419 0.00408644 0)
(0.999371 0.00341736 0)
(1.00069 0.00355054 0)
(0.998879 0.00552538 0)
(0.999764 0.00697573 0)
(1.0015 0.00682723 0)
(1.00336 0.00654294 0)
(1.00211 0.00749153 0)
(1.00193 0.00869919 0)
(1.0028 0.00891743 0)
(1.00511 0.00849375 0)
(1.00565 0.00836384 0)
(1.00542 0.00877404 0)
(0.999796 -0.00211738 0)
(0.998304 -0.00339748 0)
(0.997105 -0.00182091 0)
(0.997539 -0.000981666 0)
(0.997799 -0.00160144 0)
(0.998534 5.98086e-06 0)
(0.996988 0.00209141 0)
(0.997386 0.00404654 0)
(0.999154 0.00352546 0)
(1.00078 0.00347936 0)
(0.999224 0.00514921 0)
(0.999816 0.00672704 0)
(1.00129 0.00684541 0)
(1.00329 0.00650189 0)
(1.00237 0.00713338 0)
(1.00209 0.00827443 0)
(1.00261 0.00872707 0)
(1.00479 0.0084216 0)
(1.00556 0.00816396 0)
(1.00548 0.00847842 0)
(0.999814 -0.00189565 0)
(0.998565 -0.00324638 0)
(0.997356 -0.00199301 0)
(0.997584 -0.000899072 0)
(0.997824 -0.00136767 0)
(0.998787 -7.67336e-05 0)
(0.997332 0.00177313 0)
(0.997412 0.00395622 0)
(0.998942 0.00366531 0)
(1.0008 0.00348422 0)
(0.999568 0.00483045 0)
(0.99994 0.00644563 0)
(1.00108 0.00677454 0)
(1.00312 0.00643058 0)
(1.00256 0.00682779 0)
(1.00231 0.00787075 0)
(1.00253 0.00848435 0)
(1.00445 0.00831705 0)
(1.00539 0.00794704 0)
(1.0055 0.00816741 0)
(0.99983 -0.00170436 0)
(0.998792 -0.00307386 0)
(0.997612 -0.00213597 0)
(0.997665 -0.000858991 0)
(0.997839 -0.00113943 0)
(0.998992 -0.000105133 0)
(0.997696 0.00145046 0)
(0.997508 0.00381658 0)
(0.998739 0.00380096 0)
(1.00077 0.0035387 0)
(0.999876 0.00454923 0)
(1.00011 0.00609068 0)
(1.00094 0.00663157 0)
(1.00295 0.00639757 0)
(1.0027 0.0066404 0)
(1.00254 0.00748722 0)
(1.00251 0.00812844 0)
(1.00412 0.00814791 0)
(1.00516 0.00779312 0)
(1.00553 0.00786303 0)
(0.999845 -0.00154214 0)
(0.998987 -0.00287593 0)
(0.997861 -0.00224543 0)
(0.997779 -0.000864207 0)
(0.997855 -0.000928888 0)
(0.999148 -7.59468e-05 0)
(0.99806 0.00114388 0)
(0.997677 0.00359816 0)
(0.998574 0.00391908 0)
(1.00069 0.00366301 0)
(1.00013 0.00434182 0)
(1.00033 0.00573688 0)
(1.00087 0.00644562 0)
(1.00277 0.00633305 0)
(1.00275 0.00644554 0)
(1.00272 0.00710055 0)
(1.00256 0.00773899 0)
(1.00389 0.0079371 0)
(1.00488 0.00770824 0)
(1.00551 0.00756628 0)
(0.99986 -0.00140556 0)
(0.999151 -0.002668 0)
(0.998098 -0.00231489 0)
(0.997926 -0.000896904 0)
(0.997879 -0.000746877 0)
(0.999252 7.56556e-06 0)
(0.998407 0.000876042 0)
(0.997921 0.00331316 0)
(0.998468 0.00398856 0)
(1.00056 0.00381085 0)
(1.00032 0.00420608 0)
(1.00056 0.00539384 0)
(1.00086 0.00618863 0)
(1.0026 0.00621828 0)
(1.00276 0.00627547 0)
(1.00289 0.00679918 0)
(1.00266 0.00740165 0)
(1.00374 0.00765822 0)
(1.00457 0.00759406 0)
(1.00539 0.00732255 0)
(0.999874 -0.00128993 0)
(0.999288 -0.0024549 0)
(0.998317 -0.00234079 0)
(0.998096 -0.00094678 0)
(0.997923 -0.000609383 0)
(0.99931 0.000135497 0)
(0.998715 0.000673579 0)
(0.998225 0.00297177 0)
(0.998436 0.00397027 0)
(1.00041 0.00394894 0)
(1.00043 0.00414455 0)
(1.00077 0.00510319 0)
(1.0009 0.00590332 0)
(1.00246 0.00607085 0)
(1.00274 0.00612111 0)
(1.00301 0.00651843 0)
(1.00275 0.00707178 0)
(1.00366 0.00731602 0)
(1.0043 0.0074063 0)
(1.00519 0.00717628 0)
(0.999888 -0.00119064 0)
(0.9994 -0.00224483 0)
(0.998514 -0.00232734 0)
(0.998284 -0.000994211 0)
(0.997989 -0.000508408 0)
(0.999332 0.000278636 0)
(0.998966 0.000588821 0)
(0.998568 0.0026161 0)
(0.998491 0.00382733 0)
(1.00027 0.00404272 0)
(1.00048 0.00412175 0)
(1.00095 0.00485967 0)
(1.00098 0.00560088 0)
(1.00235 0.00587495 0)
(1.00269 0.00595815 0)
(1.0031 0.00624134 0)
(1.00284 0.00676005 0)
(1.00362 0.00700001 0)
(1.00412 0.00714875 0)
(1.00494 0.0070601 0)
(0.9999 -0.00110526 0)
(0.999491 -0.0020457 0)
(0.998685 -0.00226539 0)
(0.998481 -0.00104156 0)
(0.99808 -0.000442492 0)
(0.999342 0.000408855 0)
(0.999154 0.000613444 0)
(0.998899 0.00231145 0)
(0.998624 0.00357339 0)
(1.00017 0.0040465 0)
(1.00048 0.00409786 0)
(1.00108 0.00466726 0)
(1.00108 0.00532055 0)
(1.00229 0.00565288 0)
(1.00263 0.00579056 0)
(1.00316 0.00598995 0)
(1.00292 0.00644858 0)
(1.00359 0.00670733 0)
(1.004 0.00682853 0)
(1.00469 0.00686982 0)
(0.999911 -0.0010257 0)
(0.999567 -0.00186472 0)
(0.998831 -0.00216383 0)
(0.998677 -0.0010769 0)
(0.998195 -0.000414161 0)
(0.99935 0.000513839 0)
(0.99929 0.000669763 0)
(0.999195 0.00209229 0)
(0.998809 0.00329069 0)
(1.00012 0.00395567 0)
(1.00045 0.0040594 0)
(1.00117 0.00451529 0)
(1.00116 0.00506627 0)
(1.00226 0.00540905 0)
(1.00257 0.00559279 0)
(1.00318 0.00575283 0)
(1.00301 0.00613007 0)
(1.00356 0.00642846 0)
(1.00391 0.00652977 0)
(1.00453 0.00660612 0)
(0.999919 -0.000953065 0)
(0.999631 -0.00170025 0)
(0.998952 -0.00203621 0)
(0.998864 -0.00108763 0)
(0.99833 -0.00041405 0)
(0.999364 0.000588516 0)
(0.999387 0.000736175 0)
(0.999448 0.00194427 0)
(0.999015 0.00301934 0)
(1.00012 0.00379075 0)
(1.00043 0.00398228 0)
(1.00123 0.00437398 0)
(1.00123 0.0048367 0)
(1.00224 0.00516777 0)
(1.00251 0.00537902 0)
(1.00317 0.0055331 0)
(1.00308 0.00582544 0)
(1.00355 0.00613783 0)
(1.00381 0.00627912 0)
(1.00442 0.00629877 0)
(0.999925 -0.000883705 0)
(0.999687 -0.00155199 0)
(0.999053 -0.00189532 0)
(0.999034 -0.00107346 0)
(0.998478 -0.000429025 0)
(0.999391 0.000630751 0)
(0.999455 0.000800504 0)
(0.999654 0.00184872 0)
(0.999221 0.00278296 0)
(1.00016 0.00359467 0)
(1.00042 0.00385964 0)
(1.00126 0.00423136 0)
(1.00128 0.00462787 0)
(1.00223 0.00493799 0)
(1.00247 0.00515368 0)
(1.00314 0.00531512 0)
(1.00313 0.00554025 0)
(1.00357 0.0058068 0)
(1.00371 0.00603329 0)
(1.00431 0.00600497 0)