/*--------------------------------*- C++ -*----------------------------------*\
| =========                 |                                                 |
| \\      /  F ield         | OpenFOAM: The Open Source CFD Toolbox           |
|  \\    /   O peration     | Version:  v1912                                 |
|   \\  /    A nd           | Website:  www.openfoam.com                      |
|    \\/     M anipulation  |                                                 |
\*---------------------------------------------------------------------------*/
FoamFile
{
    version     2.0;
    format      ascii;
    class       surfaceScalarField;
    location    "1.4";
    object      phi;
}
// * * * * * * * * * * * * * * * * * * * * * * * * * * * * * * * * * * * * * //

dimensions      [0 3 -1 0 0 0 0];
oriented        oriented;


internalField   nonuniform List<scalar> 
19000
(
1.22101e-06
-1.04698e-07
1.08049e-06
1.0948e-06
1.11056e-06
-1.64116e-06
1.27997e-06
-2.15558e-07
1.22582e-06
7.4348e-07
1.1109e-06
8.99796e-07
1.17433e-06
-8.13927e-07
1.17638e-06
-6.23659e-07
1.17974e-06
-1.581e-07
1.1939e-06
3.57264e-07
1.16764e-06
2.30835e-08
1.17313e-06
2.71651e-07
1.18303e-06
1.81967e-07
1.17319e-06
5.05161e-07
1.1627e-06
3.49693e-07
1.16227e-06
3.55815e-07
1.16538e-06
2.04041e-08
1.15958e-06
2.87581e-08
1.16997e-06
-1.30881e-07
-1.28756e-07
1.14149e-06
1.27899e-06
-1.59428e-07
1.15208e-06
1.22171e-06
1.18241e-06
-1.6715e-06
1.34478e-06
-3.77921e-07
1.28663e-06
8.01629e-07
1.18583e-06
1.0006e-06
1.24607e-06
-8.74175e-07
1.23988e-06
-6.1746e-07
1.24185e-06
-1.60076e-07
1.26149e-06
3.37627e-07
1.23107e-06
5.34995e-08
1.23981e-06
2.62912e-07
1.24104e-06
1.80739e-07
1.24359e-06
5.0261e-07
1.2181e-06
3.75184e-07
1.23539e-06
3.38521e-07
1.21897e-06
3.68295e-08
1.23461e-06
1.31141e-08
1.21603e-06
-1.123e-07
-1.37147e-07
1.22442e-06
1.3369e-06
-2.13543e-07
1.23592e-06
1.32269e-06
1.2567e-06
-1.69228e-06
1.40872e-06
-5.29937e-07
1.35754e-06
8.52803e-07
1.27321e-06
1.08493e-06
1.31697e-06
-9.17934e-07
1.31279e-06
-6.13278e-07
1.30863e-06
-1.5592e-07
1.3375e-06
3.08761e-07
1.30117e-06
8.98244e-08
1.31172e-06
2.52368e-07
1.30261e-06
1.89848e-07
1.31216e-06
4.93058e-07
1.28487e-06
4.02474e-07
1.29736e-06
3.26036e-07
1.28251e-06
5.16717e-08
1.28937e-06
6.255e-09
1.27502e-06
-9.79461e-08
-1.32101e-07
1.26997e-06
1.39518e-06
-2.64617e-07
1.32687e-06
1.391e-06
1.3306e-06
-1.69601e-06
1.46854e-06
-6.67879e-07
1.434e-06
8.87351e-07
1.36605e-06
1.15288e-06
1.38172e-06
-9.33601e-07
1.38435e-06
-6.15913e-07
1.37862e-06
-1.50193e-07
1.41127e-06
2.76115e-07
1.37545e-06
1.25645e-07
1.37983e-06
2.47988e-07
1.3684e-06
2.01274e-07
1.37558e-06
4.8588e-07
1.35828e-06
4.19776e-07
1.36125e-06
3.23062e-07
1.34907e-06
6.3858e-08
1.34922e-06
6.10042e-09
1.33475e-06
-8.3477e-08
-1.21975e-07
1.32463e-06
1.45347e-06
-3.0973e-07
1.41823e-06
1.42623e-06
1.4012e-06
-1.67897e-06
1.521e-06
-7.87686e-07
1.51105e-06
8.97304e-07
1.45732e-06
1.20661e-06
1.44055e-06
-9.16833e-07
1.44847e-06
-6.23833e-07
1.44924e-06
-1.50967e-07
1.47878e-06
2.46576e-07
1.45029e-06
1.54136e-07
1.44604e-06
2.52241e-07
1.43628e-06
2.11036e-07
1.44133e-06
4.80824e-07
1.43257e-06
4.2854e-07
1.43154e-06
3.24088e-07
1.41788e-06
7.75255e-08
1.41461e-06
9.36515e-09
1.39783e-06
-6.66927e-08
-1.0833e-07
1.38418e-06
1.51223e-06
-3.46286e-07
1.50457e-06
1.43389e-06
1.46869e-06
-1.64308e-06
1.56656e-06
-8.85554e-07
1.58418e-06
8.79682e-07
1.54284e-06
1.24795e-06
1.49864e-06
-8.72634e-07
1.50673e-06
-6.31926e-07
1.51806e-06
-1.62293e-07
1.54216e-06
2.22472e-07
1.52258e-06
1.73714e-07
1.51321e-06
2.61616e-07
1.50467e-06
2.19568e-07
1.51012e-06
4.7538e-07
1.50609e-06
4.32563e-07
1.50433e-06
3.25854e-07
1.48904e-06
9.28172e-08
1.48318e-06
1.52195e-08
1.46532e-06
-4.88261e-08
-9.12532e-08
1.44824e-06
1.57288e-06
-3.72952e-07
1.58471e-06
1.42206e-06
1.53636e-06
-1.59473e-06
1.60926e-06
-9.58451e-07
1.65039e-06
8.38553e-07
1.62172e-06
1.27662e-06
1.56141e-06
-8.12329e-07
1.56504e-06
-6.35552e-07
1.58377e-06
-1.81023e-07
1.6041e-06
2.02145e-07
1.59172e-06
1.86089e-07
1.58146e-06
2.71871e-07
1.5731e-06
2.27937e-07
1.57945e-06
4.69023e-07
1.57788e-06
4.34137e-07
1.5767e-06
3.27031e-07
1.56143e-06
1.08087e-07
1.5542e-06
2.24465e-08
1.53688e-06
-3.14979e-08
-7.18675e-08
1.51749e-06
1.63723e-06
-3.90051e-07
1.66123e-06
1.39806e-06
1.60812e-06
-1.54162e-06
1.65473e-06
-1.00506e-06
1.70973e-06
7.83549e-07
1.6952e-06
1.29116e-06
1.63098e-06
-7.4811e-07
1.62818e-06
-6.32757e-07
1.64744e-06
-2.00276e-07
1.66621e-06
1.83375e-07
1.65929e-06
1.93007e-07
1.65048e-06
2.80683e-07
1.64172e-06
2.36692e-07
1.64834e-06
4.624e-07
1.64811e-06
4.34371e-07
1.64837e-06
3.26776e-07
1.63479e-06
1.21658e-07
1.62753e-06
2.97139e-08
1.61216e-06
-1.61344e-08
-5.17098e-08
1.59201e-06
1.70671e-06
-3.99189e-07
1.73779e-06
1.36698e-06
1.686e-06
-1.48983e-06
1.70783e-06
-1.02689e-06
1.76583e-06
7.2555e-07
1.76581e-06
1.29118e-06
1.70649e-06
-6.88797e-07
1.69802e-06
-6.24287e-07
1.71213e-06
-2.14385e-07
1.73012e-06
1.65389e-07
1.72752e-06
1.95607e-07
1.72088e-06
2.87325e-07
1.71161e-06
2.45962e-07
1.71796e-06
4.56048e-07
1.71871e-06
4.33621e-07
1.72091e-06
3.24574e-07
1.71011e-06
1.32458e-07
1.70355e-06
3.62774e-08
1.69097e-06
-3.55267e-09
-3.21489e-08
1.67141e-06
1.78198e-06
-4.02446e-07
1.81702e-06
1.33194e-06
1.76979e-06
-1.44261e-06
1.77125e-06
-1.02835e-06
1.82416e-06
6.72649e-07
1.83676e-06
1.27858e-06
1.78643e-06
-6.38463e-07
1.77455e-06
-6.12415e-07
1.78137e-06
-2.212e-07
1.79808e-06
1.48672e-07
1.79859e-06
1.95103e-07
1.79405e-06
2.91862e-07
1.78447e-06
2.55547e-07
1.79052e-06
4.5e-07
1.79231e-06
4.31826e-07
1.79651e-06
3.20374e-07
1.78882e-06
1.40145e-07
1.78305e-06
4.20533e-08
1.77325e-06
6.24321e-09
-1.41015e-08
1.7552e-06
1.86299e-06
-4.01683e-07
1.90007e-06
1.29486e-06
1.85826e-06
-1.40079e-06
1.84534e-06
-1.01544e-06
1.88937e-06
6.28617e-07
1.91111e-06
1.25684e-06
1.86998e-06
-5.97334e-07
1.85715e-06
-5.99587e-07
1.85753e-06
-2.21573e-07
1.87228e-06
1.3392e-07
1.87438e-06
1.92996e-07
1.87148e-06
2.94767e-07
1.86197e-06
2.65052e-07
1.86803e-06
4.43948e-07
1.87104e-06
4.28813e-07
1.87684e-06
3.1457e-07
1.87201e-06
1.44975e-07
1.86675e-06
4.7313e-08
1.85913e-06
1.38693e-08
1.98867e-09
1.84304e-06
1.94941e-06
-3.98251e-07
1.98726e-06
1.257e-06
1.95029e-06
-1.36383e-06
1.92875e-06
-9.93892e-07
1.96371e-06
5.93654e-07
1.99105e-06
1.2295e-06
1.95728e-06
-5.63567e-07
1.9452e-06
-5.875e-07
1.94128e-06
-2.17652e-07
1.95383e-06
1.21364e-07
1.95618e-06
1.90647e-07
1.9543e-06
2.96644e-07
1.94527e-06
2.74082e-07
1.95168e-06
4.37544e-07
1.95602e-06
4.24472e-07
1.96278e-06
3.07806e-07
1.96019e-06
1.47567e-07
1.9551e-06
5.24052e-08
1.9488e-06
2.01692e-08
1.604e-08
1.93475e-06
2.04099e-06
-3.9305e-07
2.07876e-06
1.21924e-06
2.04544e-06
-1.33051e-06
2.01958e-06
-9.68036e-07
2.04723e-06
5.65999e-07
2.07771e-06
1.19903e-06
2.04893e-06
-5.34788e-07
2.03822e-06
-5.76796e-07
2.03197e-06
-2.11401e-07
2.04258e-06
1.10753e-07
2.0444e-06
1.88833e-07
2.04309e-06
2.97948e-07
2.03489e-06
2.82289e-07
2.04184e-06
4.30587e-07
2.0475e-06
4.18816e-07
2.05457e-06
3.00735e-07
2.05346e-06
1.48677e-07
2.04826e-06
5.7602e-08
2.04248e-06
2.59478e-08
2.81746e-08
2.03035e-06
2.13766e-06
-3.86709e-07
2.17487e-06
1.18203e-06
2.14377e-06
-1.2994e-06
2.1163e-06
-9.40571e-07
2.13904e-06
5.43266e-07
2.17142e-06
1.16664e-06
2.14555e-06
-5.08918e-07
2.13601e-06
-5.67254e-07
2.12856e-06
-2.03959e-07
2.13766e-06
1.0166e-07
2.1388e-06
1.87685e-07
2.13791e-06
2.98846e-07
2.13086e-06
2.89337e-07
2.13842e-06
4.23028e-07
2.14526e-06
4.11973e-07
2.15215e-06
2.93843e-07
2.15178e-06
1.49049e-07
2.14633e-06
6.30525e-08
2.14046e-06
3.1819e-08
3.86413e-08
2.12999e-06
2.23949e-06
-3.79708e-07
2.27603e-06
1.14549e-06
2.24572e-06
-1.26909e-06
2.21809e-06
-9.12941e-07
2.23817e-06
5.23186e-07
2.2721e-06
1.13271e-06
2.24759e-06
-4.84405e-07
2.23853e-06
-5.58193e-07
2.23028e-06
-1.9571e-07
2.23821e-06
9.37358e-08
2.23898e-06
1.86915e-07
2.23854e-06
2.9928e-07
2.23299e-06
2.94888e-07
2.24111e-06
4.14907e-07
2.24894e-06
4.04146e-07
2.2554e-06
2.87384e-07
2.25512e-06
1.4933e-07
2.24938e-06
6.87891e-08
2.24304e-06
3.81556e-08
4.77707e-08
2.23391e-06
2.34658e-06
-3.72414e-07
2.38261e-06
1.10946e-06
2.35187e-06
-1.23835e-06
2.32472e-06
-8.85795e-07
2.34395e-06
5.03955e-07
2.37947e-06
1.09719e-06
2.35527e-06
-4.60202e-07
2.34593e-06
-5.48857e-07
2.33685e-06
-1.86629e-07
2.3438e-06
8.67867e-08
2.34462e-06
1.86092e-07
2.34478e-06
2.99126e-07
2.34099e-06
2.98672e-07
2.34961e-06
4.06287e-07
2.35817e-06
3.95589e-07
2.36414e-06
2.81411e-07
2.36347e-06
1.50001e-07
2.35749e-06
7.47686e-08
2.35056e-06
4.50848e-08
5.59281e-08
2.34241e-06
2.45905e-06
-3.65066e-07
2.49489e-06
1.07362e-06
2.46284e-06
-1.2063e-06
2.43636e-06
-8.59313e-07
2.45595e-06
4.84369e-07
2.49313e-06
1.06001e-06
2.46862e-06
-4.35701e-07
2.45842e-06
-5.38654e-07
2.44838e-06
-1.76587e-07
2.45442e-06
8.07443e-08
2.45569e-06
1.84824e-07
2.4565e-06
2.9832e-07
2.45459e-06
3.00575e-07
2.46367e-06
3.97207e-07
2.47268e-06
3.86581e-07
2.47824e-06
2.75854e-07
2.47692e-06
1.51321e-07
2.47077e-06
8.09115e-08
2.46332e-06
5.25414e-08
6.34407e-08
2.45581e-06
2.577e-06
-3.57776e-07
2.61305e-06
1.03758e-06
2.57922e-06
-1.17248e-06
2.55334e-06
-8.33424e-07
2.57387e-06
4.6383e-07
2.61267e-06
1.02121e-06
2.58763e-06
-4.10659e-07
2.57625e-06
-5.27269e-07
2.56519e-06
-1.65531e-07
2.57033e-06
7.56042e-08
2.57232e-06
1.82834e-07
2.57374e-06
2.96906e-07
2.57363e-06
3.00678e-07
2.58314e-06
3.87703e-07
2.59231e-06
3.77407e-07
2.59759e-06
2.70574e-07
2.5956e-06
1.53317e-07
2.58933e-06
8.71719e-08
2.58157e-06
6.03016e-08
7.05494e-08
2.57447e-06
2.7006e-06
-3.50549e-07
2.73718e-06
1.001e-06
2.70148e-06
-1.13678e-06
2.67601e-06
-8.07954e-07
2.6976e-06
4.42236e-07
2.73784e-06
9.8097e-07
2.71229e-06
-3.85106e-07
2.69966e-06
-5.14645e-07
2.68768e-06
-1.53548e-07
2.69191e-06
7.13787e-08
2.69477e-06
1.79969e-07
2.69667e-06
2.95006e-07
2.69809e-06
2.99256e-07
2.70799e-06
3.77808e-07
2.71709e-06
3.6831e-07
2.72221e-06
2.65447e-07
2.71973e-06
1.558e-07
2.71334e-06
9.35635e-08
2.70558e-06
6.80564e-08
7.73738e-08
2.69876e-06
2.83005e-06
-3.43335e-07
2.86738e-06
9.63676e-07
2.82996e-06
-1.09936e-06
2.80474e-06
-7.82739e-07
2.82718e-06
4.198e-07
2.86855e-06
9.39598e-07
2.84268e-06
-3.59239e-07
2.82895e-06
-5.00914e-07
2.81625e-06
-1.4085e-07
2.81956e-06
6.80725e-08
2.82334e-06
1.76188e-07
2.82557e-06
2.92782e-07
2.82812e-06
2.96697e-07
2.83838e-06
3.6755e-07
2.84723e-06
3.59463e-07
2.85226e-06
2.60417e-07
2.8496e-06
1.58456e-07
2.84305e-06
1.00116e-07
2.83557e-06
7.55318e-08
8.39013e-08
2.82905e-06
2.96563e-06
-3.3607e-07
3.00375e-06
9.25553e-07
2.96492e-06
-1.06053e-06
2.93986e-06
-7.57674e-07
2.9628e-06
3.9686e-07
3.00494e-06
8.97452e-07
2.97903e-06
-3.33323e-07
2.9644e-06
-4.86288e-07
2.95128e-06
-1.27725e-07
2.95367e-06
6.56814e-08
2.95833e-06
1.71527e-07
2.96074e-06
2.90373e-07
2.96401e-06
2.93425e-07
2.97461e-06
3.56951e-07
2.98312e-06
3.5095e-07
2.98802e-06
2.55517e-07
2.98553e-06
1.60948e-07
2.97883e-06
1.06819e-07
2.97177e-06
8.25909e-08
9.0005e-08
2.96566e-06
3.10765e-06
-3.28712e-07
3.1465e-06
8.86699e-07
3.10661e-06
-1.02064e-06
3.08165e-06
-7.32718e-07
3.10478e-06
3.73735e-07
3.14734e-06
8.54893e-07
3.12163e-06
-3.07616e-07
3.10632e-06
-4.70977e-07
3.09307e-06
-1.14475e-07
3.09455e-06
6.42004e-08
3.1e-06
1.66076e-07
3.10252e-06
2.87853e-07
3.10612e-06
2.8982e-07
3.11705e-06
3.46029e-07
3.12524e-06
3.42761e-07
3.12988e-06
2.50876e-07
3.12786e-06
1.62963e-07
3.12107e-06
1.13611e-07
3.11439e-06
8.92662e-08
9.54975e-08
3.1089e-06
3.25644e-06
-3.21247e-07
3.29589e-06
8.47256e-07
3.25525e-06
-9.80002e-07
3.2304e-06
-7.07869e-07
3.25349e-06
3.50651e-07
3.29614e-06
8.12246e-07
3.27085e-06
-2.8233e-07
3.25502e-06
-4.55149e-07
3.24192e-06
-1.0137e-07
3.24249e-06
6.36298e-08
3.24861e-06
1.59954e-07
3.25124e-06
2.85224e-07
3.25487e-06
2.86193e-07
3.2661e-06
3.34798e-07
3.27403e-06
3.34828e-07
3.27825e-06
2.46661e-07
3.27691e-06
1.64304e-07
3.2702e-06
1.2032e-07
3.26373e-06
9.57313e-08
1.00219e-07
3.25901e-06
3.41237e-06
-3.13688e-07
3.45223e-06
8.07396e-07
3.41114e-06
-9.38906e-07
3.3864e-06
-6.83129e-07
3.40931e-06
3.27738e-07
3.45177e-06
7.69782e-07
3.42707e-06
-2.57628e-07
3.41084e-06
-4.38922e-07
3.39811e-06
-8.86332e-08
3.39776e-06
6.39785e-08
3.40442e-06
1.53297e-07
3.40721e-06
2.82432e-07
3.41063e-06
2.82773e-07
3.42214e-06
3.23289e-07
3.42993e-06
3.27038e-07
3.43357e-06
2.43015e-07
3.43292e-06
1.64952e-07
3.4266e-06
1.26647e-07
3.42013e-06
1.02201e-07
1.04133e-07
3.41621e-06
3.57579e-06
-3.06066e-07
3.61589e-06
7.67297e-07
3.57457e-06
-8.97583e-07
3.54993e-06
-6.58492e-07
3.57261e-06
3.05057e-07
3.61467e-06
7.2772e-07
3.59067e-06
-2.33621e-07
3.57412e-06
-4.22381e-07
3.56193e-06
-7.64407e-08
3.56065e-06
6.52546e-08
3.5677e-06
1.46252e-07
3.57075e-06
2.79381e-07
3.5738e-06
2.79724e-07
3.58551e-06
3.11581e-07
3.59331e-06
3.19237e-07
3.59629e-06
2.40038e-07
3.59619e-06
1.65049e-07
3.5906e-06
1.32236e-07
3.58399e-06
1.08806e-07
1.07402e-07
3.58073e-06
3.74706e-06
-2.98417e-07
3.78722e-06
7.27136e-07
3.74589e-06
-8.56253e-07
3.72134e-06
-6.3394e-07
3.74376e-06
2.82634e-07
3.78525e-06
6.86231e-07
3.76202e-06
-2.1039e-07
3.74522e-06
-4.05582e-07
3.73371e-06
-6.49282e-08
3.7315e-06
6.74597e-08
3.73877e-06
1.3898e-07
3.74221e-06
2.75944e-07
3.74477e-06
2.77164e-07
3.75656e-06
2.99789e-07
3.76453e-06
3.11267e-07
3.76682e-06
2.3775e-07
3.76703e-06
1.64835e-07
3.76249e-06
1.36784e-07
3.7558e-06
1.15495e-07
1.10379e-07
3.75282e-06
3.92655e-06
-2.90779e-07
3.9666e-06
6.87088e-07
3.92547e-06
-8.15125e-07
3.90098e-06
-6.09449e-07
3.92312e-06
2.6049e-07
3.96391e-06
6.45442e-07
3.94151e-06
-1.87988e-07
3.9245e-06
-3.88574e-07
3.91377e-06
-5.41994e-08
3.91065e-06
7.05786e-08
3.91798e-06
1.3165e-07
3.92196e-06
2.71966e-07
3.92394e-06
2.75183e-07
3.93567e-06
2.88057e-07
3.94395e-06
3.02988e-07
3.9456e-06
2.36101e-07
3.94585e-06
1.64583e-07
3.94251e-06
1.40127e-07
3.93599e-06
1.22013e-07
1.13507e-07
3.93286e-06
4.11466e-06
-2.83186e-07
4.15441e-06
6.47331e-07
4.1137e-06
-7.74406e-07
4.08925e-06
-5.85003e-07
4.11108e-06
2.3866e-07
4.15108e-06
6.05441e-07
4.12953e-06
-1.6644e-07
4.11236e-06
-3.71401e-07
4.10249e-06
-4.4329e-08
4.0985e-06
7.45695e-08
4.1057e-06
1.24449e-07
4.11039e-06
2.67276e-07
4.11174e-06
2.73832e-07
4.12323e-06
2.76567e-07
4.13195e-06
2.94275e-07
4.13305e-06
2.34995e-07
4.1331e-06
1.64531e-07
4.13096e-06
1.42273e-07
4.12498e-06
1.27993e-07
1.17121e-07
4.12136e-06
4.31179e-06
-2.75668e-07
4.35108e-06
6.08039e-07
4.31097e-06
-7.34297e-07
4.28657e-06
-5.60601e-07
4.30802e-06
2.17203e-07
4.3472e-06
5.66268e-07
4.32649e-06
-1.45736e-07
4.3092e-06
-3.54109e-07
4.30025e-06
-3.53758e-08
4.29545e-06
7.93648e-08
4.30233e-06
1.17574e-07
4.3079e-06
2.617e-07
4.30862e-06
2.73116e-07
4.31967e-06
2.6552e-07
4.3289e-06
2.8504e-07
4.32962e-06
2.34276e-07
4.32927e-06
1.64884e-07
4.32816e-06
1.43378e-07
4.32311e-06
1.33041e-07
1.21321e-07
4.31891e-06
4.51836e-06
-2.68255e-07
4.55702e-06
5.6938e-07
4.51771e-06
-6.94985e-07
4.49337e-06
-5.36263e-07
4.51437e-06
1.96204e-07
4.55272e-06
5.27919e-07
4.5328e-06
-1.25823e-07
4.51544e-06
-3.36748e-07
4.50746e-06
-2.73919e-08
4.50195e-06
8.48708e-08
4.50829e-06
1.1124e-07
4.51491e-06
2.55074e-07
4.51505e-06
2.72982e-07
4.52543e-06
2.55139e-07
4.53526e-06
2.75204e-07
4.53576e-06
2.33775e-07
4.53487e-06
1.65781e-07
4.53453e-06
1.43713e-07
4.53071e-06
1.36861e-07
1.25906e-07
4.52613e-06
4.73483e-06
-2.60968e-07
4.7727e-06
5.31514e-07
4.73434e-06
-6.5663e-07
4.71012e-06
-5.12045e-07
4.73054e-06
1.75791e-07
4.76812e-06
4.90336e-07
4.74891e-06
-1.06609e-07
4.73152e-06
-3.19358e-07
4.72456e-06
-2.04323e-08
4.71846e-06
9.09712e-08
4.72403e-06
1.05665e-07
4.73183e-06
2.47275e-07
4.73152e-06
2.73286e-07
4.74097e-06
2.45692e-07
4.75148e-06
2.64695e-07
4.75197e-06
2.33282e-07
4.75044e-06
1.67316e-07
4.75054e-06
1.43609e-07
4.74808e-06
1.39318e-07
1.3044e-07
4.74355e-06
4.96166e-06
-2.53828e-07
4.99859e-06
4.94578e-07
4.96133e-06
-6.19363e-07
4.93732e-06
-4.88038e-07
4.95698e-06
1.56126e-07
4.9939e-06
4.53422e-07
4.97528e-06
-8.79942e-08
4.95788e-06
-3.01952e-07
4.952e-06
-1.45586e-08
4.94545e-06
9.75246e-08
4.95005e-06
1.01062e-07
4.95907e-06
2.38256e-07
4.95859e-06
2.73765e-07
4.96678e-06
2.37505e-07
4.978e-06
2.53472e-07
4.97876e-06
2.3252e-07
4.97652e-06
1.69559e-07
4.97677e-06
1.43356e-07
4.97558e-06
1.40514e-07
1.34382e-07
4.97164e-06
5.19933e-06
-2.46843e-07
5.23522e-06
4.58686e-07
5.19913e-06
-5.83269e-07
5.17547e-06
-4.64377e-07
5.19419e-06
1.37402e-07
5.23055e-06
4.17062e-07
5.21247e-06
-6.99105e-08
5.195e-06
-2.84479e-07
5.19027e-06
-9.83302e-09
5.18344e-06
1.04356e-07
5.18687e-06
9.7631e-08
5.19707e-06
2.28058e-07
5.19679e-06
2.74042e-07
5.20338e-06
2.30919e-07
5.21526e-06
2.41591e-07
5.21659e-06
2.31184e-07
5.21366e-06
1.72492e-07
5.21381e-06
1.43207e-07
5.21366e-06
1.40666e-07
1.37324e-07
5.21071e-06
5.44836e-06
-2.40013e-07
5.48313e-06
4.23918e-07
5.44824e-06
-5.48386e-07
5.4251e-06
-4.41234e-07
5.44267e-06
1.1983e-07
5.47858e-06
3.81151e-07
5.46103e-06
-5.23585e-08
5.44337e-06
-2.66818e-07
5.43985e-06
-6.30816e-09
5.43296e-06
1.11242e-07
5.43505e-06
9.55425e-08
5.44627e-06
2.16841e-07
5.44667e-06
2.73634e-07
5.45138e-06
2.26214e-07
5.46368e-06
2.29291e-07
5.46598e-06
2.28883e-07
5.46241e-06
1.76057e-07
5.46225e-06
1.4337e-07
5.46287e-06
1.40053e-07
1.39093e-07
5.4611e-06
5.70927e-06
-2.33322e-07
5.74288e-06
3.9031e-07
5.70919e-06
-5.14696e-07
5.68678e-06
-4.18825e-07
5.70298e-06
1.03626e-07
5.73849e-06
3.45638e-07
5.72157e-06
-3.54335e-08
5.70354e-06
-2.48786e-07
5.70123e-06
-4.00172e-09
5.69456e-06
1.17914e-07
5.69518e-06
9.49196e-08
5.70716e-06
2.04862e-07
5.70875e-06
2.72045e-07
5.71147e-06
2.23498e-07
5.72372e-06
2.17041e-07
5.72743e-06
2.25171e-07
5.72341e-06
1.80071e-07
5.72265e-06
1.4413e-07
5.72386e-06
1.38851e-07
1.39746e-07
5.7232e-06
5.98261e-06
-2.2674e-07
6.01507e-06
3.57855e-07
5.98249e-06
-4.82118e-07
5.96107e-06
-3.97409e-07
5.97572e-06
8.89806e-08
6.01077e-06
3.10587e-07
5.99473e-06
-1.93992e-08
5.97609e-06
-2.30141e-07
5.97495e-06
-2.86298e-09
5.96881e-06
1.24056e-07
5.96792e-06
9.58112e-08
5.9803e-06
1.92475e-07
5.98348e-06
2.68864e-07
5.98437e-06
2.22609e-07
5.99588e-06
2.05537e-07
6.00141e-06
2.19635e-07
5.9973e-06
1.84179e-07
5.99563e-06
1.45807e-07
5.99724e-06
1.37237e-07
1.39391e-07
5.9976e-06
6.26897e-06
-2.20219e-07
6.30033e-06
3.26493e-07
6.26871e-06
-4.50501e-07
6.24858e-06
-3.77275e-07
6.26154e-06
7.60224e-08
6.29589e-06
2.76239e-07
6.28116e-06
-4.67237e-09
6.26169e-06
-2.10673e-07
6.26154e-06
-2.71546e-09
6.25627e-06
1.29333e-07
6.25391e-06
9.81677e-08
6.26628e-06
1.80106e-07
6.27131e-06
2.63835e-07
6.2708e-06
2.23122e-07
6.28081e-06
1.95525e-07
6.28834e-06
2.12101e-07
6.28472e-06
1.87799e-07
6.2819e-06
1.48633e-07
6.28358e-06
1.35552e-07
1.38062e-07
6.28491e-06
6.56895e-06
-2.13694e-07
6.59933e-06
2.9611e-07
6.56846e-06
-4.1963e-07
6.54993e-06
-3.5875e-07
6.56116e-06
6.47944e-08
6.59437e-06
2.43033e-07
6.58146e-06
8.23306e-09
6.56107e-06
-1.90282e-07
6.56161e-06
-3.25582e-09
6.55752e-06
1.33427e-07
6.55384e-06
1.01839e-07
6.56575e-06
1.68201e-07
6.57269e-06
2.56896e-07
6.57138e-06
2.24433e-07
6.57931e-06
1.87588e-07
6.58861e-06
2.02806e-07
6.58623e-06
1.90181e-07
6.58228e-06
1.52575e-07
6.5835e-06
1.34341e-07
1.35787e-07
6.58577e-06
6.88318e-06
-2.07088e-07
6.91275e-06
2.66543e-07
6.88236e-06
-3.89239e-07
6.86582e-06
-3.42209e-07
6.87534e-06
5.52722e-08
6.90677e-06
2.11603e-07
6.8962e-06
1.88066e-08
6.87499e-06
-1.69075e-07
6.8758e-06
-4.06407e-09
6.87314e-06
1.3609e-07
6.86839e-06
1.06583e-07
6.8794e-06
1.57189e-07
6.88814e-06
2.48159e-07
6.8867e-06
2.25876e-07
6.89227e-06
1.8201e-07
6.90262e-06
1.92463e-07
6.90228e-06
1.90516e-07
6.89762e-06
1.57239e-07
6.89777e-06
1.34191e-07
1.32806e-07
6.90075e-06
7.21235e-06
-2.00306e-07
7.2413e-06
2.37594e-07
7.21112e-06
-3.59052e-07
7.19701e-06
-3.28102e-07
7.20486e-06
4.74238e-08
7.2338e-06
1.82659e-07
7.2259e-06
2.67107e-08
7.2042e-06
-1.47379e-07
7.20485e-06
-4.70659e-09
7.20373e-06
1.37205e-07
7.19822e-06
1.12094e-07
7.20798e-06
1.47425e-07
7.21826e-06
2.37881e-07
7.2173e-06
2.26836e-07
7.22057e-06
1.78746e-07
7.23103e-06
1.82001e-07
7.23325e-06
1.88295e-07
7.22857e-06
1.61919e-07
7.22733e-06
1.35432e-07
1.29694e-07
7.23044e-06
7.55717e-06
-1.93254e-07
7.58569e-06
2.09076e-07
7.5555e-06
-3.2886e-07
7.54378e-06
-3.16385e-07
7.55055e-06
4.06514e-08
7.57631e-06
1.569e-07
7.57111e-06
3.1913e-08
7.54944e-06
-1.25712e-07
7.54951e-06
-4.77382e-09
7.54994e-06
1.36778e-07
7.54399e-06
1.18039e-07
7.55224e-06
1.39173e-07
7.56373e-06
2.26399e-07
7.56377e-06
2.26795e-07
7.56503e-06
1.77483e-07
7.57469e-06
1.72347e-07
7.57946e-06
1.83525e-07
7.57563e-06
1.65739e-07
7.57313e-06
1.37937e-07
1.27221e-07
7.5756e-06
7.91841e-06
-1.85849e-07
7.94662e-06
1.80865e-07
7.91643e-06
-2.98669e-07
7.90626e-06
-3.06223e-07
7.91319e-06
3.37267e-08
7.93528e-06
1.34805e-07
7.93246e-06
3.47379e-08
7.91143e-06
-1.04688e-07
7.9106e-06
-3.94071e-09
7.91243e-06
1.3495e-07
7.9064e-06
1.24071e-07
7.91297e-06
1.326e-07
7.92526e-06
2.14105e-07
7.92669e-06
2.25367e-07
7.92643e-06
1.7774e-07
7.93454e-06
1.64238e-07
7.94138e-06
1.76689e-07
7.9392e-06
1.67919e-07
7.93594e-06
1.41199e-07
1.25987e-07
7.93717e-06
8.29686e-06
-1.78029e-07
8.32481e-06
1.52913e-07
8.29496e-06
-2.68818e-07
8.28534e-06
-2.96603e-07
8.29344e-06
2.56292e-08
8.31176e-06
1.16484e-07
8.31065e-06
3.58515e-08
8.29087e-06
-8.49051e-08
8.28896e-06
-2.03739e-09
8.29189e-06
1.32018e-07
8.28616e-06
1.29804e-07
8.29096e-06
1.27797e-07
8.30367e-06
2.01398e-07
8.30669e-06
2.22347e-07
8.3055e-06
1.78931e-07
8.31162e-06
1.58125e-07
8.31978e-06
1.68522e-07
8.3197e-06
1.67999e-07
8.31637e-06
1.44527e-07
1.26176e-07
8.31618e-06
8.69339e-06
-1.69756e-07
8.72107e-06
1.25234e-07
8.69198e-06
-2.39728e-07
8.68197e-06
-2.86597e-07
8.69197e-06
1.56311e-08
8.7068e-06
1.01654e-07
8.70651e-06
3.61403e-08
8.68842e-06
-6.68192e-08
8.68543e-06
9.60903e-10
8.68912e-06
1.28324e-07
8.68402e-06
1.349e-07
8.6871e-06
1.24722e-07
8.69978e-06
1.88712e-07
8.70441e-06
2.1772e-07
8.70291e-06
1.80436e-07
8.7069e-06
1.54131e-07
8.71555e-06
1.59875e-07
8.71771e-06
1.65835e-07
8.71495e-06
1.47287e-07
1.27411e-07
8.71372e-06
9.10889e-06
-1.61024e-07
9.13619e-06
9.7929e-08
9.10833e-06
-2.11863e-07
9.09716e-06
-2.75434e-07
9.10929e-06
3.50459e-09
9.12134e-06
8.96019e-08
9.12097e-06
3.6513e-08
9.10485e-06
-5.06952e-08
9.10087e-06
4.93458e-09
9.10493e-06
1.24266e-07
9.10074e-06
1.39095e-07
9.10229e-06
1.23167e-07
9.11454e-06
1.76467e-07
9.12061e-06
2.11641e-07
9.11936e-06
1.81687e-07
9.12142e-06
1.52073e-07
9.12964e-06
1.5166e-07
9.13393e-06
1.61542e-07
9.13225e-06
1.48966e-07
1.29049e-07
9.13061e-06
9.5443e-06
-1.51866e-07
9.57105e-06
7.11828e-08
9.5449e-06
-1.85714e-07
9.53188e-06
-2.62419e-07
9.54573e-06
-1.03454e-08
9.5561e-06
7.9236e-08
9.55509e-06
3.75221e-08
9.54085e-06
-3.64493e-08
9.53623e-06
9.55264e-09
9.54028e-06
1.20215e-07
9.53709e-06
1.42279e-07
9.5374e-06
1.22862e-07
9.54892e-06
1.64943e-07
9.55624e-06
2.04321e-07
9.55566e-06
1.82268e-07
9.55626e-06
1.51473e-07
9.56321e-06
1.44716e-07
9.56923e-06
1.55521e-07
9.56906e-06
1.49134e-07
1.30567e-07
9.56754e-06
1.00006e-05
-1.4236e-07
1.00265e-05
4.52948e-08
1.00026e-05
-1.61802e-07
9.9872e-06
-2.47013e-07
1.0002e-05
-2.5154e-08
1.00119e-05
6.93881e-08
1.00099e-05
3.94442e-08
9.99722e-06
-2.37369e-08
9.99243e-06
1.4338e-08
9.99624e-06
1.16413e-07
9.99404e-06
1.44477e-07
9.99336e-06
1.23542e-07
1.00039e-05
1.54395e-07
1.00123e-05
1.95953e-07
1.00127e-05
1.81867e-07
1.00124e-05
1.51705e-07
1.00176e-05
1.39542e-07
1.00247e-05
1.48467e-07
1.00263e-05
1.47522e-07
1.31605e-07
1.00252e-05
1.04789e-05
-1.32638e-07
1.05035e-05
2.07529e-08
1.04824e-05
-1.40757e-07
1.04644e-05
-2.29046e-07
1.04794e-05
-4.00914e-08
1.04894e-05
5.93694e-08
1.04865e-05
4.23798e-08
1.04748e-05
-1.20842e-08
1.04703e-05
1.88707e-08
1.0474e-05
1.12726e-07
1.04727e-05
1.45742e-07
1.04712e-05
1.25087e-07
1.04805e-05
1.4508e-07
1.04897e-05
1.86703e-07
1.04913e-05
1.80259e-07
1.04909e-05
1.52146e-07
1.04943e-05
1.36115e-07
1.05015e-05
1.41307e-07
1.05049e-05
1.44094e-07
1.31867e-07
1.05046e-05
1.09802e-05
-1.22868e-07
1.10029e-05
-1.9131e-09
1.09853e-05
-1.23141e-07
1.09653e-05
-2.09067e-07
1.09788e-05
-5.35958e-08
1.09894e-05
4.87567e-08
1.09857e-05
4.61557e-08
1.09745e-05
-9.33836e-10
1.09705e-05
2.28747e-08
1.09745e-05
1.08709e-07
1.09743e-05
1.45984e-07
1.09721e-05
1.27249e-07
1.09798e-05
1.37439e-07
1.09897e-05
1.76746e-07
1.09927e-05
1.77308e-07
1.09925e-05
1.52313e-07
1.09946e-05
1.34004e-07
1.10011e-05
1.34861e-07
1.1006e-05
1.39189e-07
1.31082e-07
1.10067e-05
1.15057e-05
-1.13245e-07
1.15261e-05
-2.22565e-08
1.15122e-05
-1.09251e-07
1.1491e-05
-1.87922e-07
1.15015e-05
-6.405e-08
1.15135e-05
3.67634e-08
1.15091e-05
5.05295e-08
1.14976e-05
1.05623e-08
1.1494e-05
2.65363e-08
1.14988e-05
1.03896e-07
1.14999e-05
1.44876e-07
1.14975e-05
1.29625e-07
1.15032e-05
1.31788e-07
1.15134e-05
1.66465e-07
1.15178e-05
1.72998e-07
1.15182e-05
1.51867e-07
1.15196e-05
1.32645e-07
1.15248e-05
1.29572e-07
1.15306e-05
1.33408e-07
1.2906e-07
1.15326e-05
1.20566e-05
-1.0398e-07
1.20742e-05
-3.98852e-08
1.20641e-05
-9.91812e-08
1.20427e-05
-1.665e-07
1.20489e-05
-7.02516e-08
1.20624e-05
2.32954e-08
1.20589e-05
5.40136e-08
1.20466e-05
2.28288e-08
1.20421e-05
3.10579e-08
1.20477e-05
9.82373e-08
1.20506e-05
1.42051e-07
1.20484e-05
1.31762e-07
1.20523e-05
1.27973e-07
1.20622e-05
1.56534e-07
1.20677e-05
1.67446e-07
1.2069e-05
1.50612e-07
1.20701e-05
1.3154e-07
1.20742e-05
1.25461e-07
1.20802e-05
1.27449e-07
1.25775e-07
1.20835e-05
1.26339e-05
-9.5277e-08
1.26485e-05
-5.45117e-08
1.26421e-05
-9.27477e-08
1.26212e-05
-1.45644e-07
1.2623e-05
-7.20646e-08
1.26369e-05
9.46465e-09
1.26358e-05
5.5132e-08
1.26234e-05
3.5228e-08
1.26172e-05
3.72409e-08
1.26228e-05
9.26378e-08
1.26273e-05
1.37545e-07
1.2626e-05
1.33002e-07
1.26284e-05
1.25631e-07
1.26373e-05
1.47561e-07
1.26439e-05
1.60918e-07
1.2646e-05
1.48506e-07
1.26472e-05
1.30298e-07
1.26504e-05
1.22248e-07
1.2656e-05
1.21897e-07
1.21415e-07
1.26603e-05
1.3239e-05
-8.73066e-08
1.32504e-05
-6.59733e-08
1.32471e-05
-8.94347e-08
1.32277e-05
-1.26206e-07
1.32256e-05
-6.99835e-08
1.32382e-05
-3.12793e-09
1.32402e-05
5.31095e-08
1.32287e-05
4.67778e-08
1.32209e-05
4.49841e-08
1.32253e-05
8.82278e-08
1.32312e-05
1.31701e-07
1.32313e-05
1.32835e-07
1.32327e-05
1.24285e-07
1.32404e-05
1.39816e-07
1.32475e-05
1.53848e-07
1.32504e-05
1.45577e-07
1.3252e-05
1.28715e-07
1.32547e-05
1.19511e-07
1.32596e-05
1.17083e-07
1.16395e-07
1.32646e-05
1.38731e-05
-8.01963e-08
1.38813e-05
-7.41889e-08
1.38803e-05
-8.84725e-08
1.38631e-05
-1.0899e-07
1.38579e-05
-6.47954e-08
1.38676e-05
-1.28257e-08
1.38728e-05
4.78996e-08
1.38634e-05
5.61761e-08
1.38545e-05
5.38462e-08
1.38571e-05
8.56736e-08
1.38637e-05
1.25108e-07
1.38653e-05
1.31206e-07
1.38664e-05
1.2321e-07
1.38728e-05
1.33384e-07
1.388e-05
1.46631e-07
1.38837e-05
1.41915e-07
1.38857e-05
1.26753e-07
1.38883e-05
1.16885e-07
1.38924e-05
1.13008e-07
1.11235e-07
1.38975e-05
1.45375e-05
-7.40011e-08
1.45424e-05
-7.91487e-08
1.45429e-05
-8.89907e-08
1.45285e-05
-9.45553e-08
1.45213e-05
-5.75503e-08
1.45271e-05
-1.86424e-08
1.45345e-05
4.04924e-08
1.45285e-05
6.21972e-08
1.45193e-05
6.30566e-08
1.45199e-05
8.50601e-08
1.45263e-05
1.18639e-07
1.45293e-05
1.28244e-07
1.45307e-05
1.21855e-07
1.4536e-05
1.28081e-07
1.4543e-05
1.39605e-07
1.45473e-05
1.37628e-07
1.45496e-05
1.24438e-07
1.45523e-05
1.14186e-07
1.45559e-05
1.09401e-07
1.06418e-07
1.45607e-05
1.52336e-05
-6.86727e-08
1.52355e-05
-8.10859e-08
1.52364e-05
-8.99496e-08
1.52251e-05
-8.3228e-08
1.52169e-05
-4.93086e-08
1.52187e-05
-2.04935e-08
1.52267e-05
3.2544e-08
1.52247e-05
6.42119e-08
1.52163e-05
7.14144e-08
1.52152e-05
8.62155e-08
1.52207e-05
1.1305e-07
1.52248e-05
1.24171e-07
1.52267e-05
1.20011e-07
1.52312e-05
1.23501e-07
1.52379e-05
1.32981e-07
1.52426e-05
1.32894e-07
1.52453e-05
1.21753e-07
1.52481e-05
1.1141e-07
1.52515e-05
1.05965e-07
1.02148e-07
1.52558e-05
1.59627e-05
-6.40722e-08
1.59622e-05
-8.05077e-08
1.59626e-05
-9.03729e-08
1.59543e-05
-7.49663e-08
1.5946e-05
-4.1022e-08
1.59445e-05
-1.89972e-08
1.59512e-05
2.58858e-08
1.5953e-05
6.23787e-08
1.59469e-05
7.75406e-08
1.59444e-05
8.8761e-08
1.59487e-05
1.0869e-07
1.59533e-05
1.19562e-07
1.59558e-05
1.17497e-07
1.596e-05
1.19348e-07
1.59662e-05
1.2675e-07
1.59712e-05
1.27882e-07
1.59743e-05
1.187e-07
1.59771e-05
1.08557e-07
1.59806e-05
1.02545e-07
9.8337e-08
1.59844e-05
1.67266e-05
-6.00395e-08
1.67242e-05
-7.81133e-08
1.67234e-05
-8.96426e-08
1.67178e-05
-6.92762e-08
1.67104e-05
-3.36819e-08
1.67064e-05
-1.50291e-08
1.67103e-05
2.19867e-08
1.67149e-05
5.78139e-08
1.6712e-05
8.04909e-08
1.6709e-05
9.16801e-08
1.6712e-05
1.05703e-07
1.67166e-05
1.15012e-07
1.67198e-05
1.14314e-07
1.67237e-05
1.15434e-07
1.67296e-05
1.20841e-07
1.67348e-05
1.22691e-07
1.67381e-05
1.15326e-07
1.67411e-05
1.05604e-07
1.67445e-05
9.91181e-08
9.47737e-08
1.67481e-05
1.75267e-05
-5.63952e-08
1.75232e-05
-7.46273e-08
1.75211e-05
-8.75378e-08
1.75172e-05
-6.53446e-08
1.75113e-05
-2.77463e-08
1.75062e-05
-9.95326e-09
1.75071e-05
2.10892e-08
1.75122e-05
5.26491e-08
1.75126e-05
8.0129e-08
1.75106e-05
9.36731e-08
1.75123e-05
1.03967e-07
1.75164e-05
1.10916e-07
1.75201e-05
1.1069e-07
1.7524e-05
1.11545e-07
1.75295e-05
1.15264e-07
1.75349e-05
1.17301e-07
1.75386e-05
1.11665e-07
1.75416e-05
1.02587e-07
1.75451e-05
9.56385e-08
9.13438e-08
1.75485e-05
1.83649e-05
-5.29588e-08
1.8361e-05
-7.06948e-08
1.83575e-05
-8.40421e-08
1.83545e-05
-6.24107e-08
1.835e-05
-2.32361e-08
1.83449e-05
-4.81175e-09
1.83436e-05
2.23697e-08
1.83475e-05
4.87468e-08
1.83505e-05
7.71235e-08
1.83503e-05
9.38874e-08
1.83514e-05
1.02886e-07
1.83548e-05
1.07458e-07
1.83586e-05
1.06975e-07
1.83625e-05
1.0758e-07
1.83678e-05
1.10015e-07
1.83733e-05
1.11775e-07
1.83773e-05
1.07645e-07
1.83803e-05
9.95627e-08
1.83839e-05
9.21041e-08
8.79389e-08
1.83873e-05
1.9243e-05
-4.95912e-08
1.92391e-05
-6.67843e-08
1.92344e-05
-7.93773e-08
1.92318e-05
-5.97502e-08
1.92285e-05
-1.99915e-08
1.92239e-05
-1.8749e-10
1.92214e-05
2.48545e-08
1.92235e-05
4.66671e-08
1.92277e-05
7.29521e-08
1.92295e-05