/*--------------------------------*- C++ -*----------------------------------*\
| =========                 |                                                 |
| \\      /  F ield         | OpenFOAM: The Open Source CFD Toolbox           |
|  \\    /   O peration     | Version:  v1912                                 |
|   \\  /    A nd           | Website:  www.openfoam.com                      |
|    \\/     M anipulation  |                                                 |
\*---------------------------------------------------------------------------*/
FoamFile
{
    version     2.0;
    format      ascii;
    class       volVectorField;
    location    "1.4";
    object      U;
}
// * * * * * * * * * * * * * * * * * * * * * * * * * * * * * * * * * * * * * //

dimensions      [0 1 -1 0 0 0 0];


internalField   nonuniform List<vector> 
9600
(
(0.802804 -0.000574627 0)
(1.27196 0.0108257 0)
(0.599925 -0.01931 0)
(1.27634 -0.000763883 0)
(0.936036 0.0100484 0)
(1.14926 0.0124951 0)
(0.76277 -0.0127698 0)
(1.23533 -0.0112622 0)
(0.790668 -0.00308642 0)
(1.21215 0.00793584 0)
(0.847435 -1.3829e-05 0)
(1.14006 0.00697224 0)
(0.876152 0.00525295 0)
(1.1409 0.015122 0)
(0.874127 0.0112105 0)
(1.10952 0.0127286 0)
(0.88435 0.000816631 0)
(1.10739 0.00109565 0)
(0.875853 -0.00586585 0)
(1.12793 -0.00668897 0)
(0.810583 -0.00140268 0)
(1.26257 0.0126076 0)
(0.641133 -0.019735 0)
(1.26556 -0.00417198 0)
(0.948776 0.010685 0)
(1.1431 0.0145397 0)
(0.803288 -0.0142047 0)
(1.22193 -0.0113072 0)
(0.816898 -0.00316232 0)
(1.19517 0.00748204 0)
(0.88018 0.000959637 0)
(1.12155 0.00698385 0)
(0.910821 0.00496697 0)
(1.10984 0.0152497 0)
(0.927696 0.011802 0)
(1.05781 0.012551 0)
(0.961723 0.000902852 0)
(1.03069 0.00105401 0)
(0.980983 -0.00565155 0)
(1.01163 -0.00763056 0)
(0.826728 -0.00189733 0)
(1.24304 0.0140149 0)
(0.701716 -0.0201065 0)
(1.23685 -0.00598136 0)
(0.974738 0.0116954 0)
(1.13315 0.0161021 0)
(0.858173 -0.0151498 0)
(1.18883 -0.0111577 0)
(0.86744 -0.00315997 0)
(1.15988 0.00701238 0)
(0.936097 0.00167416 0)
(1.08708 0.00656677 0)
(0.961318 0.00507526 0)
(1.06688 0.0150885 0)
(0.980645 0.0128692 0)
(1.02213 0.0118302 0)
(0.998716 0.00182915 0)
(1.0046 0.00019805 0)
(0.999199 -0.00481048 0)
(0.995398 -0.00686025 0)
(0.85028 -0.00242666 0)
(1.21351 0.0149215 0)
(0.77396 -0.020255 0)
(1.19059 -0.00782853 0)
(1.00659 0.0123383 0)
(1.12023 0.0172685 0)
(0.915513 -0.0156332 0)
(1.13905 -0.0111664 0)
(0.925503 -0.00302035 0)
(1.1172 0.00631531 0)
(0.98934 0.00258014 0)
(1.05547 0.0062943 0)
(0.997993 0.00543388 0)
(1.03832 0.01481 0)
(1.00769 0.013587 0)
(1.01459 0.0115767 0)
(1.00826 0.00222388 0)
(1.0032 0.000266735 0)
(0.998677 -0.00428452 0)
(0.993241 -0.00630458 0)
(0.878777 -0.00291949 0)
(1.17601 0.0155029 0)
(0.846072 -0.0201271 0)
(1.13423 -0.00954683 0)
(1.03424 0.0126302 0)
(1.10629 0.0182183 0)
(0.96354 -0.0155558 0)
(1.08538 -0.0113061 0)
(0.971796 -0.00292398 0)
(1.08114 0.00559386 0)
(1.02252 0.00334026 0)
(1.03743 0.00630353 0)
(1.01481 0.00573464 0)
(1.02633 0.0146078 0)
(1.01851 0.0139995 0)
(1.01755 0.0115731 0)
(1.01263 0.00275141 0)
(1.00486 0.000270548 0)
(0.999183 -0.00346205 0)
(0.990945 -0.00577964 0)
(0.908474 -0.0033286 0)
(1.13493 0.0157525 0)
(0.907547 -0.0197675 0)
(1.07876 -0.0109861 0)
(1.04991 0.0125847 0)
(1.09298 0.0189561 0)
(0.996254 -0.0149693 0)
(1.04154 -0.0114703 0)
(0.997614 -0.00303675 0)
(1.05685 0.00500867 0)
(1.03531 0.00388648 0)
(1.02959 0.00651803 0)
(1.01938 0.00598017 0)
(1.0219 0.0144575 0)
(1.02228 0.0142115 0)
(1.02076 0.0116439 0)
(1.01541 0.00333752 0)
(1.00639 0.000501912 0)
(0.999949 -0.00266975 0)
(0.990297 -0.00501211 0)
(0.935353 -0.00363926 0)
(1.09593 0.0157161 0)
(0.953224 -0.0192337 0)
(1.03397 -0.0120881 0)
(1.05111 0.012174 0)
(1.08001 0.0194838 0)
(1.01443 -0.0140386 0)
(1.01403 -0.0115716 0)
(1.00572 -0.00336761 0)
(1.04093 0.00454632 0)
(1.0353 0.00424645 0)
(1.02514 0.00680443 0)
(1.01833 0.00621615 0)
(1.01861 0.0142785 0)
(1.02165 0.0142926 0)
(1.02112 0.011703 0)
(1.01581 0.00394845 0)
(1.00711 0.000790024 0)
(1.00046 -0.0018472 0)
(0.99096 -0.00407578 0)
(0.95655 -0.00385149 0)
(1.06374 0.0154948 0)
(0.98337 -0.018614 0)
(1.00458 -0.012838 0)
(1.04083 0.0114768 0)
(1.06627 0.0197969 0)
(1.02217 -0.0129669 0)
(1.00106 -0.0115612 0)
(1.00371 -0.00378349 0)
(1.02854 0.0041372 0)
(1.02941 0.00446888 0)
(1.02052 0.00706573 0)
(1.01468 0.00645311 0)
(1.01425 0.0140714 0)
(1.01776 0.0143089 0)
(1.01852 0.0117153 0)
(1.01407 0.00451777 0)
(1.00671 0.00110788 0)
(1.00076 -0.00108363 0)
(0.992223 -0.00306483 0)
(0.971222 -0.00397698 0)
(1.04045 0.0151705 0)
(1.00123 -0.0179876 0)
(0.98959 -0.0132489 0)
(1.02515 0.01065 0)
(1.05168 0.0198837 0)
(1.02373 -0.0119272 0)
(0.996998 -0.0114416 0)
(0.99832 -0.00413629 0)
(1.01762 0.00374555 0)
(1.02164 0.00457886 0)
(1.01519 0.00726354 0)
(1.0099 0.00670476 0)
(1.00896 0.0138683 0)
(1.01224 0.0142924 0)
(1.01425 0.0116632 0)
(1.01126 0.00499504 0)
(1.00555 0.00140783 0)
(1.00084 -0.000437867 0)
(0.993666 -0.00205862 0)
(0.980325 -0.00403493 0)
(1.02538 0.0147909 0)
(1.01065 -0.0174054 0)
(0.98466 -0.0133659 0)
(1.00995 0.00984233 0)
(1.03752 0.0197601 0)
(1.02218 -0.0110227 0)
(0.996752 -0.0112417 0)
(0.993464 -0.00434417 0)
(1.00849 0.00337204 0)
(1.01412 0.00459626 0)
(1.00974 0.00740145 0)
(1.00506 0.00697224 0)
(1.00374 0.0136789 0)
(1.00676 0.0142494 0)
(1.00988 0.011544 0)
(1.0085 0.00534771 0)
(1.00427 0.00167192 0)
(1.00079 7.74329e-05 0)
(0.995034 -0.00111692 0)
(0.985648 -0.00404472 0)
(1.01628 0.0143828 0)
(1.01484 -0.0168872 0)
(0.985048 -0.0132665 0)
(0.998595 0.00914529 0)
(1.02536 0.0194744 0)
(1.01947 -0.0102789 0)
(0.99742 -0.0110071 0)
(0.990499 -0.00440462 0)
(1.00195 0.00303201 0)
(1.00802 0.00455693 0)
(1.00489 0.00749231 0)
(1.0009 0.00724208 0)
(0.999485 0.0134964 0)
(1.00246 0.0141739 0)
(1.00644 0.0113639 0)
(1.00641 0.00557814 0)
(1.00331 0.00190491 0)
(1.00076 0.000474335 0)
(0.996199 -0.000254676 0)
(0.988845 -0.00402201 0)
(1.01084 0.0139634 0)
(1.01604 -0.0164312 0)
(0.987336 -0.0130304 0)
(0.991637 0.00858496 0)
(1.01611 0.0190828 0)
(1.01675 -0.00967185 0)
(0.997924 -0.0107802 0)
(0.989277 -0.00435936 0)
(0.998099 0.00273731 0)
(1.00376 0.00449972 0)
(1.00115 0.00754833 0)
(0.997832 0.00750282 0)
(0.9966 0.0133111 0)
(0.999749 0.0140529 0)
(1.00428 0.0111382 0)
(1.00517 0.00571089 0)
(1.0028 0.00212387 0)
(1.00081 0.000788947 0)
(0.997122 0.000515554 0)
(0.99097 -0.00397735 0)
(1.00744 0.0135431 0)
(1.01568 -0.0160243 0)
(0.989679 -0.0127171 0)
(0.988045 0.00814553 0)
(1.00978 0.0186308 0)
(1.01457 -0.0091634 0)
(0.998143 -0.010577 0)
(0.9891 -0.00425153 0)
(0.996253 0.00248858 0)
(1.00113 0.00445012 0)
(0.998577 0.00758388 0)
(0.995896 0.00774605 0)
(0.995059 0.0131118 0)
(0.998469 0.0138823 0)
(1.00327 0.0108906 0)
(1.00465 0.00577504 0)
(1.00265 0.00234154 0)
(1.00093 0.00106377 0)
(0.997814 0.00117136 0)
(0.992522 -0.0039183 0)
(1.00525 0.0131283 0)
(1.01461 -0.0156496 0)
(0.991358 -0.0123669 0)
(0.986489 0.0077978 0)
(1.00588 0.0181462 0)
(1.01316 -0.00871454 0)
(0.998247 -0.0103974 0)
(0.989331 -0.00411255 0)
(0.995492 0.00227718 0)
(0.999595 0.00441645 0)
(0.996967 0.00760954 0)
(0.994913 0.00796126 0)
(0.99459 0.012894 0)
(0.99825 0.0136701 0)
(1.0031 0.0106439 0)
(1.00463 0.00579392 0)
(1.00275 0.00256489 0)
(1.00109 0.00132721 0)
(0.998315 0.00172629 0)
(0.993684 -0.00385039 0)
(1.0039 0.0127221 0)
(1.01333 -0.0152897 0)
(0.992262 -0.0120059 0)
(0.985996 0.00750655 0)
(1.00377 0.0176384 0)
(1.01249 -0.00829663 0)
(0.998386 -0.0102312 0)
(0.989604 -0.0039563 0)
(0.995122 0.00209448 0)
(0.998627 0.00439655 0)
(0.995998 0.00762607 0)
(0.994603 0.00813667 0)
(0.994847 0.0126619 0)
(0.998697 0.0134233 0)
(1.00344 0.0104092 0)
(1.00492 0.00579777 0)
(1.00298 0.00280258 0)
(1.00126 0.00160658 0)
(0.998676 0.00219778 0)
(0.994532 -0.00377804 0)
(1.00316 0.012324 0)
(1.01211 -0.0149291 0)
(0.992551 -0.0116491 0)
(0.986022 0.00723858 0)
(1.00288 0.0171078 0)
(1.01236 -0.00788809 0)
(0.99862 -0.0100665 0)
(0.989788 -0.00378515 0)
(0.994797 0.00193437 0)
(0.997907 0.00438129 0)
(0.995404 0.00763014 0)
(0.994694 0.00826326 0)
(0.995502 0.0124163 0)
(0.99947 0.0131479 0)
(1.00401 0.010189 0)
(1.00533 0.00581534 0)
(1.00326 0.0030468 0)
(1.00143 0.00191502 0)
(0.998951 0.00261672 0)
(0.995118 -0.0037042 0)
(1.00283 0.0119309 0)
(1.0111 -0.0145557 0)
(0.992474 -0.0113016 0)
(0.986291 0.00697147 0)
(1.00271 0.0165522 0)
(1.01254 -0.00747797 0)
(0.998939 -0.00989134 0)
(0.989882 -0.00359634 0)
(0.994422 0.00179362 0)
(0.997302 0.00435964 0)
(0.995016 0.00761856 0)
(0.994976 0.00833778 0)
(0.996293 0.0121525 0)
(1.00031 0.0128551 0)
(1.00458 0.00998198 0)
(1.00573 0.00585699 0)
(1.00352 0.00329647 0)
(1.00159 0.00225815 0)
(0.999187 0.00301066 0)
(0.995499 -0.00363052 0)
(1.00275 0.0115386 0)
(1.01034 -0.0141629 0)
(0.992263 -0.0109615 0)
(0.986665 0.00669229 0)
(1.00287 0.0159702 0)
(1.0128 -0.00706197 0)
(0.999297 -0.00969547 0)
(0.989932 -0.00338713 0)
(0.994027 0.00167275 0)
(0.996788 0.0043232 0)
(0.994748 0.00759061 0)
(0.995306 0.00835901 0)
(0.997035 0.0118736 0)
(1.00103 0.012552 0)
(1.00502 0.00978714 0)
(1.00602 0.00592694 0)
(1.0037 0.00355888 0)
(1.00172 0.00261925 0)
(0.999417 0.00338496 0)
(0.995735 -0.00355781 0)
(1.00276 0.0111421 0)
(1.0098 -0.0137474 0)
(0.992087 -0.0106285 0)
(0.987077 0.00639576 0)
(1.00309 0.0153623 0)
(1.01295 -0.00663781 0)
(0.999647 -0.00947586 0)
(0.989984 -0.00315901 0)
(0.993677 0.00157238 0)
(0.99639 0.00426564 0)
(0.994567 0.00755035 0)
(0.995602 0.00833238 0)
(0.997628 0.0115828 0)
(1.00153 0.0122488 0)
(1.00527 0.00959727 0)
(1.00614 0.00601879 0)
(1.00379 0.00382723 0)
(1.00182 0.00298199 0)
(0.999661 0.00374718 0)
(0.995889 -0.00348537 0)
(1.00278 0.0107388 0)
(1.0094 -0.0133098 0)
(0.992039 -0.010301 0)
(0.987498 0.0060842 0)
(1.00321 0.0147333 0)
(1.01291 -0.00620771 0)
(0.999953 -0.00923411 0)
(0.990075 -0.00291464 0)
(0.993428 0.00149267 0)
(0.99613 0.00418555 0)
(0.994466 0.00750077 0)
(0.995837 0.00827088 0)
(0.998046 0.0112773 0)
(1.00181 0.0119572 0)
(1.00532 0.00940554 0)
(1.0061 0.00612457 0)
(1.0038 0.00410047 0)
(1.00188 0.00333264 0)
(0.999918 0.00409486 0)
(0.996008 -0.00341244 0)
(1.00276 0.0103266 0)
(1.00907 -0.0128544 0)
(0.992142 -0.00997669 0)
(0.987924 0.00576255 0)
(1.0032 0.0140893 0)
(1.01268 -0.00577569 0)
(1.0002 -0.008974 0)
(0.99022 -0.00265801 0)
(0.993306 0.00143331 0)
(0.996012 0.00408345 0)
(0.994443 0.00744604 0)
(0.996017 0.00818392 0)
(0.998324 0.01096 0)
(1.00189 0.0116772 0)
(1.00523 0.00922025 0)
(1.00593 0.00623226 0)
(1.00374 0.00438082 0)
(1.00191 0.00366147 0)
(1.00018 0.00442138 0)
(0.996125 -0.00333882 0)
(1.00269 0.00990492 0)
(1.00875 -0.0123847 0)
(0.992377 -0.00965368 0)
(0.988358 0.00543615 0)
(1.00307 0.0134368 0)
(1.01227 -0.00534591 0)
(1.0004 -0.0086995 0)
(0.99042 -0.00239588 0)
(0.993304 0.00139292 0)
(0.996018 0.00396226 0)
(0.994489 0.00738703 0)
(0.996157 0.00808381 0)
(0.998515 0.0106324 0)
(1.00185 0.0114077 0)
(1.00505 0.00904659 0)
(1.0057 0.00631969 0)
(1.00364 0.00467023 0)
(1.00192 0.00397138 0)
(1.00044 0.00472071 0)
(0.996251 -0.0032641 0)
(1.00258 0.0094757 0)
(1.00842 -0.011904 0)
(0.992703 -0.00933189 0)
(0.988803 0.00510872 0)
(1.00286 0.012782 0)
(1.01176 -0.00492211 0)
(1.00056 -0.00841455 0)
(0.990669 -0.00213444 0)
(0.993396 0.0013717 0)
(0.996117 0.00382533 0)
(0.994588 0.0073223 0)
(0.996269 0.00798194 0)
(0.998669 0.010293 0)
(1.00174 0.0111486 0)
(1.00482 0.00888728 0)
(1.00543 0.00637886 0)
(1.00352 0.00496406 0)
(1.00193 0.00426617 0)
(1.0007 0.00497826 0)
(0.996387 -0.00318859 0)
(1.00246 0.00904172 0)
(1.00808 -0.0114169 0)
(0.993084 -0.00901088 0)
(0.989257 0.00478296 0)
(1.00262 0.0121287 0)
(1.01119 -0.00450705 0)
(1.00068 -0.00812157 0)
(0.990955 -0.00187775 0)
(0.993554 0.00136991 0)
(0.996276 0.00367347 0)
(0.994723 0.00725425 0)
(0.996359 0.00788363 0)
(0.99881 0.00994333 0)
(1.00161 0.0108947 0)
(1.00457 0.00874835 0)
(1.00516 0.0064109 0)
(1.0034 0.0052505 0)
(1.00192 0.00455708 0)
(1.00094 0.00518556 0)
(0.996533 -0.00311226 0)
(1.00231 0.008604 0)
(1.00772 -0.0109265 0)
(0.993491 -0.00869081 0)
(0.989719 0.00446025 0)
(1.00236 0.0114805 0)
(1.01058 -0.00410231 0)
(1.00079 -0.00782259 0)
(0.991268 -0.00163094 0)
(0.993751 0.0013881 0)
(0.996471 0.00351195 0)
(0.994883 0.0071809 0)
(0.996429 0.00779493 0)
(0.998948 0.0095877 0)
(1.00148 0.0106412 0)
(1.0043 0.00863092 0)
(1.0049 0.00641951 0)
(1.00328 0.00551352 0)
(1.00191 0.00485683 0)
(1.00117 0.00534708 0)
(0.996686 -0.00303529 0)
(1.00217 0.0081641 0)
(1.00735 -0.010435 0)
(0.993905 -0.00837233 0)
(0.990187 0.0041416 0)
(1.0021 0.0108408 0)
(1.00997 -0.00370966 0)
(1.00087 -0.00751879 0)
(0.991598 -0.00139576 0)
(0.993966 0.00142538 0)
(0.996685 0.00334513 0)
(0.995059 0.00709846 0)
(0.996482 0.00771852 0)
(0.99908 0.00922928 0)
(1.00136 0.010383 0)
(1.00403 0.00853865 0)
(1.00466 0.00641399 0)
(1.00316 0.00573833 0)
(1.00189 0.00516922 0)
(1.00138 0.00547637 0)
(0.996846 -0.00295828 0)
(1.00201 0.00772471 0)
(1.00699 -0.00994395 0)
(0.994315 -0.00805374 0)
(0.99066 0.00382699 0)
(1.00183 0.0102097 0)
(1.00937 -0.00332857 0)
(1.00095 -0.00721258 0)
(0.991938 -0.00117512 0)
(0.994187 0.00148035 0)
(0.996911 0.0031731 0)
(0.995249 0.00700702 0)
(0.996524 0.00765568 0)
(0.999203 0.00887146 0)
(1.00127 0.0101161 0)
(1.00374 0.00847172 0)
(1.00444 0.00640125 0)
(1.00305 0.00591081 0)
(1.00186 0.0054903 0)
(1.00157 0.00559865 0)
(0.997012 -0.00288184 0)
(1.00186 0.00728789 0)
(1.00664 -0.00945601 0)
(0.994716 -0.0077365 0)
(0.991137 0.00351616 0)
(1.00157 0.00959222 0)
(1.00877 -0.00296195 0)
(1.00102 -0.00690213 0)
(0.992281 -0.000968637 0)
(0.994402 0.00155478 0)
(0.997145 0.00299934 0)
(0.995452 0.00690087 0)
(0.996561 0.00761054 0)
(0.999316 0.00851928 0)
(1.0012 0.00983827 0)
(1.00346 0.00842617 0)
(1.00422 0.00638944 0)
(1.00296 0.00602395 0)
(1.00182 0.00580469 0)
(1.00171 0.0057491 0)
(0.997182 -0.00280591 0)
(1.00169 0.00685574 0)
(1.00629 -0.0089764 0)
(0.995105 -0.00741833 0)
(0.991617 0.0032102 0)
(1.00131 0.00898542 0)
(1.00818 -0.0026096 0)
(1.00108 -0.00658722 0)
(0.992624 -0.000778785 0)
(0.994603 0.00164779 0)
(0.997384 0.00283172 0)
(0.995669 0.00677288 0)
(0.996594 0.00758392 0)
(0.999418 0.008175 0)
(1.00116 0.0095451 0)
(1.00318 0.00839826 0)
(1.00401 0.00639101 0)
(1.00289 0.00608333 0)
(1.00179 0.00608448 0)
(1.00181 0.00595056 0)
(0.997354 -0.00273074 0)
(1.00153 0.00642923 0)
(1.00594 -0.0085044 0)
(0.995479 -0.00710146 0)
(0.992098 0.00291029 0)
(1.00105 0.00838924 0)
(1.0076 -0.00226937 0)
(1.00115 -0.00627267 0)
(0.992966 -0.000609098 0)
(0.994785 0.00175971 0)
(0.997627 0.0026737 0)
(0.995903 0.00661938 0)
(0.996625 0.00757661 0)
(0.999509 0.00784475 0)
(1.00115 0.00923237 0)
(1.00291 0.00838285 0)
(1.0038 0.00641326 0)
(1.00285 0.00609963 0)
(1.00176 0.00630167 0)
(1.00187 0.00620172 0)
(0.997526 -0.00265696 0)
(1.00136 0.00601088 0)
(1.0056 -0.00804176 0)
(0.995838 -0.0067868 0)
(0.992575 0.00261615 0)
(1.00082 0.00780947 0)
(1.00702 -0.00194457 0)
(1.00121 -0.00596189 0)
(0.993308 -0.00046118 0)
(0.994946 0.00188586 0)
(0.997869 0.00252886 0)
(0.996158 0.00643646 0)
(0.996654 0.00758766 0)
(0.999586 0.00753749 0)
(1.00117 0.00889743 0)
(1.00267 0.00837521 0)
(1.00359 0.00646197 0)
(1.00282 0.00608841 0)
(1.00177 0.00644169 0)
(1.00188 0.00647632 0)
(0.997696 -0.00258445 0)
(1.0012 0.00560261 0)
(1.00527 -0.00759329 0)
(0.996181 -0.00647211 0)
(0.993047 0.0023307 0)
(1.0006 0.00723812 0)
(1.00646 -0.00162803 0)
(1.00126 -0.0056506 0)
(0.993651 -0.000334325 0)
(0.995088 0.00202397 0)
(0.998105 0.0024046 0)
(0.996437 0.00622033 0)
(0.99668 0.00760948 0)
(0.999644 0.00726277 0)
(1.00123 0.00853561 0)
(1.00245 0.00836552 0)
(1.00336 0.00654135 0)
(1.00281 0.00606989 0)
(1.00181 0.00650872 0)
(1.00188 0.00672742 0)
(0.997863 -0.00251368 0)
(1.00104 0.00520463 0)
(1.00494 -0.00715725 0)
(0.996507 -0.00616248 0)
(0.993509 0.00205937 0)
(1.0004 0.00667484 0)
(1.0059 -0.00131665 0)
(1.0013 -0.00533605 0)
(0.993998 -0.000229323 0)
(0.995212 0.00217345 0)
(0.99833 0.00230479 0)
(0.996741 0.00596937 0)
(0.996709 0.00763148 0)
(0.999676 0.00703508 0)
(1.0013 0.00814649 0)
(1.00227 0.00833919 0)
(1.00313 0.00664819 0)
(1.00279 0.00605743 0)
(1.00188 0.00652087 0)
(1.00189 0.0069122 0)
(0.998027 -0.0024449 0)
(1.00089 0.00482006 0)
(1.00461 -0.00673649 0)
(0.996819 -0.00585797 0)
(0.993957 0.0018034 0)
(1.00022 0.00612008 0)
(1.00535 -0.00101456 0)
(1.00133 -0.00501854 0)
(0.99435 -0.000147959 0)
(0.995324 0.00233051 0)
(0.998536 0.00223626 0)
(0.997071 0.00568845 0)
(0.996743 0.00763873 0)
(0.999678 0.00686391 0)
(1.0014 0.00773433 0)
(1.00213 0.00828279 0)
(1.00289 0.00678028 0)
(1.00276 0.00605413 0)
(1.00198 0.00650037 0)
(1.00192 0.0070191 0)
(0.998186 -0.00237715 0)
(1.00074 0.00444742 0)
(1.00429 -0.00632998 0)
(0.997116 -0.00556075 0)
(0.99439 0.00156377 0)
(1.00005 0.00557214 0)
(1.00481 -0.000721833 0)
(1.00135 -0.00469259 0)
(0.994706 -9.15921e-05 0)
(0.995428 0.00248735 0)
(0.998719 0.00220489 0)
(0.997421 0.00538449 0)
(0.996791 0.00761786 0)
(0.999644 0.00675688 0)
(1.00151 0.00731176 0)
(1.00203 0.00818116 0)
(1.00264 0.00694165 0)
(1.00271 0.00606448 0)
(1.00209 0.00645752 0)
(1.00198 0.00706544 0)
(0.998341 -0.00231046 0)
(1.0006 0.00408553 0)
(1.00397 -0.00593618 0)
(0.997399 -0.00527635 0)
(0.994806 0.00134677 0)
(0.999904 0.0050276 0)
(1.00429 -0.00044283 0)
(1.00136 -0.00435773 0)
(0.995067 -6.43993e-05 0)
(0.995527 0.00263193 0)
(0.998875 0.00221056 0)
(0.997787 0.00506195 0)
(0.996858 0.00755548 0)
(0.999574 0.00671651 0)
(1.00162 0.00690279 0)
(1.002 0.00801474 0)
(1.00239 0.00712718 0)
(1.00263 0.00610527 0)
(1.00221 0.00638451 0)
(1.00208 0.00706897 0)
(0.99849 -0.00224546 0)
(1.00046 0.00373788 0)
(1.00366 -0.0055564 0)
(0.997668 -0.00500705 0)
(0.995202 0.00115563 0)
(0.999772 0.00448977 0)
(1.00379 -0.000184159 0)
(1.00134 -0.00401071 0)
(0.995431 -5.66662e-05 0)
(0.995627 0.00275659 0)
(0.999001 0.00225319 0)
(0.998163 0.00473205 0)
(0.996954 0.00743876 0)
(0.999467 0.00672993 0)
(1.00171 0.00653429 0)
(1.00202 0.00776593 0)
(1.00216 0.00730852 0)
(1.00251 0.00620157 0)
(1.00233 0.006281 0)
(1.00222 0.00702766 0)
(0.998634 -0.0021804 0)
(1.00033 0.0034016 0)
(1.00335 -0.00518585 0)
(0.997922 -0.00475502 0)
(0.995578 0.000989208 0)
(0.999654 0.00396619 0)
(1.00331 4.47651e-05 0)
(1.00131 -0.00364445 0)
(0.995796 -5.96871e-05 0)
(0.995732 0.00285673 0)
(0.999095 0.00233222 0)
(0.998541 0.00441228 0)
(0.997085 0.00726454 0)
(0.99933 0.00677629 0)
(1.00178 0.00623446 0)
(1.00211 0.00743717 0)
(1.00197 0.00744561 0)
(1.00234 0.00636898 0)
(1.00243 0.00617971 0)
(1.00239 0.00692722 0)
(0.998772 -0.00211472 0)
(1.0002 0.00307487 0)
(1.00304 -0.00482246 0)
(0.998162 -0.00452756 0)
(0.995933 0.000848623 0)
(0.999548 0.00346736 0)
(1.00285 0.00023941 0)
(1.00126 -0.0032595 0)
(0.996159 -7.47676e-05 0)
(0.995845 0.00292738 0)
(0.999157 0.00244225 0)
(0.998912 0.00411673 0)
(0.997255 0.00703747 0)
(0.999173 0.0068329 0)
(1.0018 0.00602094 0)
(1.00224 0.00705522 0)
(1.00184 0.00749997 0)
(1.00213 0.00659386 0)
(1.00248 0.00612847 0)
(1.00259 0.00676211 0)
(0.998903 -0.00204833 0)
(1.00008 0.00275809 0)
(1.00274 -0.00446516 0)
(0.998387 -0.00433102 0)
(0.996267 0.000731114 0)
(0.999453 0.00300297 0)
(1.00242 0.000393207 0)
(1.0012 -0.00286342 0)
(0.996515 -9.36211e-05 0)
(0.995973 0.00296056 0)
(0.999189 0.00257217 0)
(0.999267 0.00385433 0)
(0.997468 0.00676534 0)
(0.999013 0.0068774 0)
(1.00177 0.00588999 0)
(1.0024 0.0066593 0)
(1.00179 0.00744763 0)
(1.0019 0.00683248 0)
(1.00246 0.00616261 0)
(1.0028 0.00655711 0)
(0.999027 -0.00197881 0)
(0.999968 0.0024437 0)
(1.00244 -0.00410283 0)
(0.998598 -0.00416979 0)
(0.996581 0.000630553 0)
(0.999367 0.00258153 0)
(1.00201 0.000498653 0)
(1.00111 -0.00246692 0)
(0.99686 -0.000102271 0)
(0.996116 0.00295585 0)
(0.999195 0.00271076 0)
(0.999597 0.00363003 0)
(0.997722 0.00645626 0)
(0.998863 0.00689426 0)
(1.00167 0.0058287 0)
(1.00257 0.00628563 0)
(1.00181 0.00728846 0)
(1.00169 0.00703383 0)
(1.00236 0.00628536 0)
(1.00299 0.00637452 0)
(0.999144 -0.00190622 0)
(0.999864 0.00213279 0)
(1.00215 -0.00373462 0)
(0.998793 -0.00403716 0)
(0.996879 0.000535764 0)
(0.999286 0.00222042 0)
(1.00163 0.0005624 0)
(1.00101 -0.00207818 0)
(0.997188 -9.57011e-05 0)
(0.996277 0.002922 0)
(0.999179 0.00284951 0)
(0.999894 0.00344469 0)
(0.998012 0.00611874 0)
(0.998738 0.00687374 0)
(1.00152 0.00582714 0)
(1.00272 0.00596202 0)
(1.00192 0.00703899 0)
(1.00152 0.00716334 0)
(1.0022 0.00646424 0)
(1.0031 0.00627398 0)
(0.999252 -0.00183075 0)
(0.99977 0.0018266 0)
(1.00186 -0.00337189 0)
(0.998972 -0.0039112 0)
(0.997163 0.000431089 0)
(0.99921 0.00191636 0)
(1.00128 0.000592822 0)
(1.00089 -0.00170468 0)
(0.997496 -6.4507e-05 0)
(0.996455 0.00286572 0)
(0.999148 0.00298191 0)
(1.00015 0.00330087 0)
(0.99833 0.00576587 0)
(0.998653 0.00680741 0)
(1.00132 0.00586861 0)
(1.00283 0.00570579 0)
(1.00209 0.006719 0)
(1.00142 0.00720252 0)
(1.00199 0.006653 0)
(1.00312 0.00627567 0)
(0.999351 -0.00174955 0)
(0.999688 0.00152095 0)
(1.00158 -0.00301568 0)
(0.999131 -0.00378658 0)
(0.997435 0.000303938 0)
(0.999139 0.00166847 0)
(1.00096 0.000599785 0)
(1.00077 -0.00136335 0)
(0.997781 -1.0272e-05 0)
(0.99665 0.00279176 0)
(0.999107 0.00310335 0)
(1.00037 0.00320034 0)
(0.998667 0.00540854 0)
(0.998616 0.00669178 0)
(1.0011 0.00593362 0)
(1.00288 0.00553225 0)
(1.0023 0.00636189 0)
(1.0014 0.00714233 0)
(1.00178 0.00681241 0)
(1.00304 0.00635377 0)
(0.999442 -0.00166432 0)
(0.999618 0.00121918 0)
(1.0013 -0.00267167 0)
(0.999269 -0.00365238 0)
(0.997698 0.00014311 0)
(0.999074 0.00146704 0)
(1.00066 0.000602355 0)
(1.00064 -0.00105514 0)
(0.998043 6.49092e-05 0)
(0.996858 0.0027147 0)
(0.999061 0.00320928 0)
(1.00054 0.00313804 0)
(0.999013 0.00505338 0)
(0.998633 0.00652401 0)
(1.00086 0.00599575 0)
(1.00285 0.00544081 0)
(1.00252 0.00601022 0)
(1.00148 0.00698146 0)
(1.00159 0.0069193 0)
(1.00287 0.00646857 0)
(0.999525 -0.00157395 0)
(0.999562 0.000921913 0)
(1.00103 -0.00234856 0)
(0.999382 -0.00349459 0)
(0.997953 -4.82294e-05 0)
(0.99902 0.00129952 0)
(1.00038 0.000614059 0)
(1.00052 -0.000783256 0)
(0.998282 0.000152401 0)
(0.997076 0.00263998 0)
(0.999015 0.00329722 0)
(1.00066 0.00311139 0)
(0.999358 0.00471386 0)
(0.998706 0.00631479 0)
(1.00063 0.00603663 0)
(1.00276 0.00541809 0)
(1.00273 0.0057057 0)
(1.00163 0.00673008 0)
(1.00146 0.00695362 0)
(1.00266 0.00657565 0)
(0.999599 -0.00148 0)
(0.99952 0.00063146 0)
(1.00078 -0.00204796 0)
(0.999469 -0.00331002 0)
(0.998202 -0.000253937 0)
(0.998982 0.00114946 0)
(1.00012 0.000640098 0)
(1.00039 -0.00054267 0)
(0.998501 0.000243382 0)
(0.997304 0.00256539 0)
(0.99897 0.00337134 0)
(1.00074 0.0031171 0)
(0.999693 0.00439507 0)
(0.998835 0.00606769 0)
(1.00042 0.00604236 0)
(1.00261 0.00543885 0)
(1.00289 0.00547728 0)
(1.00185 0.00642251 0)
(1.00141 0.00690567 0)
(1.00244 0.00664978 0)
(0.999665 -0.00138173 0)
(0.999494 0.000351624 0)
(1.00055 -0.00178083 0)
(0.999527 -0.00308976 0)
(0.99844 -0.000465141 0)
(0.998964 0.000997307 0)
(0.999889 0.000682899 0)
(1.00026 -0.000319789 0)
(0.9987 0.000329504 0)
(0.997543 0.00248668 0)
(0.998933 0.00342843 0)
(1.00076 0.00315367 0)
(1.00001 0.00410767 0)
(0.999016 0.00578237 0)
(1.00025 0.00600487 0)
(1.00242 0.00547338 0)
(1.00298 0.00532955 0)
(1.0021 0.00610287 0)
(1.00144 0.00677147 0)
(1.00223 0.00668232 0)
(0.999723 -0.00128242 0)
(0.999481 9.19663e-05 0)
(1.00033 -0.00155369 0)
(0.999559 -0.00283465 0)
(0.998665 -0.00067289 0)
(0.998972 0.0008385 0)
(0.999682 0.000746963 0)
(1.00012 -0.000118345 0)
(0.998879 0.000402559 0)
(0.997791 0.00239722 0)
(0.998912 0.00345814 0)
(1.00075 0.00322231 0)
(1.00028 0.00387359 0)
(0.999243 0.00546988 0)
(1.00013 0.00591959 0)
(1.0022 0.00549586 0)
(1.00301 0.00524739 0)
(1.00235 0.00580987 0)
(1.00154 0.00655705 0)
(1.00206 0.00666267 0)
(0.999774 -0.00118471 0)
(0.999482 -0.000142251 0)
(1.00015 -0.001369 0)
(0.999564 -0.00255936 0)
(0.998872 -0.000848437 0)
(0.999009 0.00065728 0)
(0.999502 0.000824173 0)
(0.999985 8.63757e-05 0)
(0.999039 0.000470969 0)
(0.99805 0.00228481 0)
(0.998915 0.00344588 0)
(1.00069 0.00330229 0)
(1.00051 0.00370017 0)
(0.999499 0.00514785 0)
(1.00006 0.00578342 0)
(1.00199 0.00548965 0)
(1.00297 0.00520443 0)
(1.00257 0.00557169 0)
(1.00172 0.00629342 0)
(1.00195 0.00658571 0)
(0.999818 -0.00108797 0)
(0.999495 -0.000351682 0)
(1 -0.00122928 0)
(0.99955 -0.00228038 0)
(0.999054 -0.000966023 0)
(0.999074 0.000451062 0)
(0.999361 0.000892314 0)
(0.999845 0.000313371 0)
(0.99917 0.00055146 0)
(0.998313 0.00215277 0)
(0.998951 0.00338935 0)
(1.00062 0.00337159 0)
(1.00068 0.00358627 0)
(0.999769 0.00483861 0)
(1.00005 0.00560291 0)
(1.00179 0.00544928 0)
(1.00288 0.00516755 0)
(1.00273 0.00538467 0)
(1.00193 0.0060097 0)
(1.00191 0.00644199 0)
(0.999856 -0.000997417 0)
(0.999516 -0.000529489 0)
(0.999883 -0.00113492 0)
(0.999523 -0.00200474 0)
(0.999208 -0.00101935 0)
(0.999165 0.000236543 0)
(0.999266 0.000933003 0)
(0.999709 0.000546425 0)
(0.999268 0.000660925 0)
(0.998573 0.00202054 0)
(0.999023 0.00328761 0)
(1.00055 0.00341835 0)
(1.0008 0.00352463 0)
(1.00003 0.00456038 0)
(1.00009 0.00539216 0)
(1.00162 0.00537812 0)
(1.00277 0.00512176 0)
(1.00284 0.00523719 0)
(1.00215 0.00573519 0)
(1.00195 0.00623934 0)
(0.999889 -0.000913078 0)
(0.999543 -0.000671845 0)
(0.999797 -0.00108177 0)
(0.999492 -0.00174381 0)
(0.999331 -0.00101101 0)
(0.999273 3.18782e-05 0)
(0.999222 0.00091958 0)
(0.999584 0.000772202 0)
(0.999332 0.000811076 0)
(0.998818 0.00191144 0)
(0.99913 0.00314073 0)
(1.00049 0.00342452 0)
(1.00088 0.00349084 0)
(1.00028 0.00432135 0)
(1.00018 0.00516478 0)
(1.00148 0.00527998 0)
(1.00264 0.00506596 0)
(1.0029 0.00512098 0)
(1.00235 0.00549206 0)
(1.00205 0.00599206 0)
(0.999918 -0.000836888 0)
(0.999573 -0.000779342 0)
(0.999741 -0.00106032 0)
(0.999464 -0.00150699 0)
(0.999423 -0.000952638 0)
(0.999385 -0.000139797 0)
(0.999231 0.000843504 0)
(0.999488 0.000966643 0)
(0.999364 0.000992201 0)
(0.999035 0.00184546 0)
(0.999262 0.00298019 0)
(1.00046 0.00338713 0)
(1.00093 0.00346445 0)
(1.0005 0.00412467 0)
(1.00029 0.00493192 0)
(1.00137 0.00515462 0)
(1.00251 0.00499096 0)
(1.00291 0.00501433 0)
(1.00252 0.00528685 0)
(1.00221 0.00571676 0)
(0.999943 -0.000769858 0)
(0.999604 -0.000848758 0)
(0.999714 -0.00106149 0)
(0.999445 -0.00130492 0)
(0.999487 -0.000860312 0)
(0.999492 -0.000258122 0)
(0.999287 0.000726771 0)
(0.999431 0.00110637 0)
(0.999376 0.00118224 0)
(0.999217 0.00181897 0)
(0.999407 0.00282451 0)
(1.00045 0.00330776 0)
(1.00096 0.00342653 0)
(1.0007 0.00396208 0)
(1.00043 0.00470852 0)
(1.0013 0.00501367 0)
(1.00238 0.00490372 0)
(1.0029 0.00490353 0)
(1.00264 0.00511915 0)
(1.00237 0.00545216 0)
(0.999965 -0.000713098 0)
(0.999633 -0.000881947 0)
(0.999709 -0.0010738 0)
(0.99944 -0.00114014 0)
(0.99953 -0.000748487 0)
(0.999583 -0.000315905 0)
(0.999379 0.000589726 0)
(0.999423 0.00117292 0)
(0.999377 0.00136593 0)
(0.999361 0.00184292 0)
(0.999553 0.00268556 0)
(1.00047 0.00320417 0)
(1.00099 0.0033676 0)
(1.00087 0.00381299 0)
(1.00058 0.00449193 0)
(1.00127 0.00485668 0)
(1.00226 0.00480766 0)
(1.00287 0.00478369 0)
(1.00272 0.00496383 0)
(1.00252 0.00522335 0)
(0.999984 -0.00066404 0)
(0.999657 -0.00088632 0)
(0.999721 -0.00108324 0)
(0.999451 -0.0010179 0)
(0.999558 -0.000629452 0)
(0.999654 -0.000313063 0)
(0.999489 0.00046338 0)
(0.999466 0.00115389 0)
(0.999389 0.00151028 0)
(0.999468 0.0019046 0)
(0.999684 0.00257491 0)
(1.00052 0.0030898 0)
(1.00101 0.00329601 0)
(1.00102 0.0036745 0)
(1.00074 0.00428215 0)
(1.00127 0.00468684 0)
(1.00215 0.00470221 0)
(1.00283 0.00466582 0)
(1.00278 0.0048041 0)
(1.00264 0.00502418 0)
(1 -0.00062118 0)
(0.999677 -0.00086833 0)
(0.999743 -0.00108044 0)
(0.999478 -0.000932648 0)
(0.999581 -0.000518579 0)
(0.999703 -0.000264643 0)
(0.999598 0.000377204 0)
(0.999552 0.00107641 0)
(0.999428 0.00159316 0)
(0.999549 0.00197482 0)
(0.999793 0.00250514 0)
(1.00057 0.00296854 0)
(1.00104 0.00320899 0)
(1.00115 0.00354479 0)
(1.00091 0.00407725 0)
(1.00131 0.00450518 0)
(1.00205 0.00458279 0)
(1.00277 0.00455324 0)
(1.00281 0.00464841 0)
(1.00273 0.00483916 0)
(1.00002 -0.000584362 0)
(0.999693 -0.000833455 0)
(0.999769 -0.00106241 0)
(0.999517 -0.000872015 0)
(0.999604 -0.000425737 0)
(0.999735 -0.000191301 0)
(0.999694 0.000345364 0)
(0.999665 0.00098042 0)
(0.999501 0.00160022 0)
(0.99962 0.00202897 0)
(0.999874 0.00247334 0)
(1.00062 0.00286433 0)
(1.00108 0.00310761 0)
(1.00126 0.00342002 0)
(1.00107 0.00388022 0)
(1.00138 0.00431067 0)
(1.00199 0.00444711 0)
(1.0027 0.00443436 0)
(1.00283 0.00450072 0)
(1.00279 0.00466465 0)
(1.00003 -0.000549726 0)
(0.999706 -0.000791409 0)
(0.999794 -0.00102654 0)
(0.999565 -0.00083022 0)
(0.999633 -0.000353428 0)
(0.999759 -0.000109985 0)
(0.99977 0.00036241 0)
(0.999782 0.000899045 0)
(0.999606 0.00154479 0)
(0.999701 0.00204487 0)
(0.999938 0.00244902 0)
(1.00066 0.00278572 0)
(1.00111 0.0030056 0)
(1.00136 0.00329557 0)
(1.00122 0.0036966 0)
(1.00146 0.00410916 0)
(1.00194 0.0042971 0)
(1.00263 0.0043081 0)
(1.00283 0.00434915 0)
(1.00282 0.00450335 0)
(1.00004 -0.000516177 0)
(0.999717 -0.000748475 0)
(0.999816 -0.000974625 0)
(0.999617 -0.000795242 0)
(0.999668 -0.000300728 0)
(0.999781 -3.3121e-05 0)
(0.999829 0.000402486 0)
(0.999891 0.000851541 0)
(0.999731 0.00146442 0)
(0.999798 0.00201603 0)
(0.999994 0.00241996 0)
(1.00068 0.00271999 0)
(1.00113 0.00291417 0)
(1.00144 0.00317241 0)
(1.00135 0.00351986 0)
(1.00157 0.00390511 0)
(1.00193 0.0041279 0)
(1.00256 0.00417965 0)
(1.00282 0.00418779 0)
(1.00284 0.0043434 0)
(1.00005 -0.000482447 0)
(0.999728 -0.000707476 0)
(0.999834 -0.000912194 0)
(0.999669 -0.000758892 0)
(0.999709 -0.000264403 0)
(0.999805 3.43118e-05 0)
(0.999875 0.000449019 0)
(0.999983 0.000835941 0)
(0.999862 0.00138265 0)
(0.999915 0.00194124 0)
(1.00005 0.00237712 0)
(1.0007 0.00265704 0)
(1.00114 0.00282955 0)
(1.00151 0.00306099 0)
(1.00147 0.00335389 0)
(1.00167 0.00370314 0)
(1.00195 0.00393977 0)
(1.00249 0.00404522 0)