/*--------------------------------*- C++ -*----------------------------------*\
| =========                 |                                                 |
| \\      /  F ield         | OpenFOAM: The Open Source CFD Toolbox           |
|  \\    /   O peration     | Version:  v1912                                 |
|   \\  /    A nd           | Website:  www.openfoam.com                      |
|    \\/     M anipulation  |                                                 |
\*---------------------------------------------------------------------------*/
FoamFile
{
    version     2.0;
    format      ascii;
    class       volScalarField;
    location    "9.25";
    object      p;
}
// * * * * * * * * * * * * * * * * * * * * * * * * * * * * * * * * * * * * * //

dimensions      [0 2 -2 0 0 0 0];


internalField   nonuniform List<scalar> 
9600
(
-5.46408e-10
-0.000653815
-0.00342567
-0.000678213
-0.00734209
-0.00693549
-0.00550322
-0.00665991
-0.00224727
-0.00184734
-0.00222389
-0.0025997
-0.00199713
-0.00169351
-0.00293776
-0.00413863
-0.0061656
-0.0065094
-0.00775422
-0.00812306
5.58898e-06
-0.00070397
-0.00342615
-0.000684525
-0.00731628
-0.00697925
-0.00550798
-0.0063925
-0.00226095
-0.00185044
-0.0022258
-0.00260631
-0.00198337
-0.00173105
-0.00291248
-0.00421423
-0.00611634
-0.00655435
-0.0077177
-0.0081272
1.07335e-05
-0.000739078
-0.00342546
-0.000694282
-0.00729466
-0.00700112
-0.00549028
-0.00627715
-0.0022888
-0.00185469
-0.00222663
-0.00262432
-0.00197168
-0.001783
-0.00288324
-0.00429849
-0.0060459
-0.00661897
-0.007658
-0.0081286
1.30239e-05
-0.000772597
-0.0034239
-0.000710232
-0.00727345
-0.00697218
-0.00546102
-0.00617754
-0.00232113
-0.00186005
-0.00222743
-0.00265503
-0.00195975
-0.00185058
-0.00287067
-0.00438313
-0.00599515
-0.00667398
-0.0076116
-0.0081435
1.29795e-05
-0.000803877
-0.00342127
-0.00073261
-0.00724341
-0.0069007
-0.00542775
-0.00609455
-0.00235584
-0.00186618
-0.00223043
-0.0026934
-0.00194048
-0.00193711
-0.00286629
-0.00447287
-0.00595027
-0.00671485
-0.00758924
-0.00812768
1.131e-05
-0.000832641
-0.00341772
-0.000760267
-0.00720174
-0.00679903
-0.00539996
-0.00602305
-0.00238971
-0.00187305
-0.00223751
-0.00273222
-0.0019145
-0.00203487
-0.00286257
-0.00456233
-0.00589826
-0.00675325
-0.00757476
-0.00807991
8.49538e-06
-0.000859491
-0.00341388
-0.000792008
-0.00714789
-0.00668015
-0.00538413
-0.00595789
-0.00242135
-0.00188085
-0.00224866
-0.00276855
-0.00188552
-0.00213561
-0.00285874
-0.00464732
-0.00585048
-0.00678575
-0.00756119
-0.00802324
4.97981e-06
-0.000885374
-0.00341037
-0.00082668
-0.00708312
-0.0065555
-0.0053816
-0.00589624
-0.00245098
-0.00189
-0.00226305
-0.00280259
-0.00185552
-0.00223619
-0.00285488
-0.00472966
-0.00581374
-0.0068041
-0.00755742
-0.00796435
1.16022e-06
-0.000911083
-0.00340742
-0.000863568
-0.00700973
-0.00643232
-0.00539059
-0.00583672
-0.00247938
-0.00190104
-0.00227953
-0.0028353
-0.00182512
-0.00233707
-0.00285138
-0.00480963
-0.00578832
-0.00680887
-0.00756921
-0.00789786
-2.67027e-06
-0.000937037
-0.00340471
-0.000902427
-0.00692986
-0.00631444
-0.00540806
-0.00577852
-0.00250753
-0.00191432
-0.00229707
-0.00286735
-0.0017944
-0.00243989
-0.00284983
-0.00488564
-0.00577756
-0.00680287
-0.00759513
-0.00782393
-6.31477e-06
-0.000963337
-0.00340158
-0.000943253
-0.00684521
-0.00620333
-0.0054305
-0.0057212
-0.00253645
-0.00192983
-0.00231511
-0.00289904
-0.00176423
-0.00254637
-0.00285227
-0.00495666
-0.00578515
-0.00678653
-0.00763342
-0.00774978
-9.64623e-06
-0.000989934
-0.00339722
-0.000986033
-0.0067571
-0.00609859
-0.00545337
-0.00566462
-0.0025669
-0.00194706
-0.00233318
-0.0029307
-0.00173673
-0.00265369
-0.00286058
-0.00502149
-0.00581133
-0.00675995
-0.00768238
-0.00768248
-1.26092e-05
-0.00101677
-0.00339096
-0.00103057
-0.00666651
-0.00599847
-0.00547141
-0.00560867
-0.00259927
-0.0019656
-0.00235045
-0.00296259
-0.00171459
-0.00275628
-0.0028768
-0.00507787
-0.00585246
-0.00672341
-0.00773764
-0.0076264
-1.52169e-05
-0.00104385
-0.00338247
-0.00107645
-0.00657391
-0.00590064
-0.00547998
-0.00555311
-0.00263303
-0.00198358
-0.00236599
-0.00299455
-0.00169863
-0.00284884
-0.00290236
-0.00512217
-0.00590227
-0.00667664
-0.00779163
-0.00758395
-1.75154e-05
-0.00107124
-0.00337177
-0.00112311
-0.00647926
-0.00580299
-0.00547624
-0.00549766
-0.00266708
-0.00200053
-0.00237926
-0.00302624
-0.00168971
-0.00292637
-0.00293713
-0.0051501
-0.00595397
-0.00661897
-0.00783578
-0.00755607
-1.95613e-05
-0.00109904
-0.00335914
-0.00117
-0.00638202
-0.00570419
-0.0054594
-0.00544205
-0.00270035
-0.0020159
-0.00238994
-0.00305732
-0.00168754
-0.00298579
-0.00297993
-0.0051582
-0.00600222
-0.00655068
-0.00786269
-0.00754198
-2.141e-05
-0.0011274
-0.003345
-0.0012167
-0.00628153
-0.00560393
-0.00543013
-0.00538603
-0.00273233
-0.00202936
-0.00239785
-0.00308749
-0.00169153
-0.00302602
-0.00302917
-0.00514539
-0.00604367
-0.00647417
-0.00786614
-0.00753924
-2.31037e-05
-0.00115649
-0.00332975
-0.00126288
-0.00617715
-0.00550268
-0.00538999
-0.00532959
-0.00276241
-0.00204068
-0.00240327
-0.00311681
-0.0017013
-0.00304769
-0.00308326
-0.00511263
-0.00607603
-0.00639327
-0.00784059
-0.00754409
-2.46741e-05
-0.00118647
-0.00331374
-0.00130838
-0.00606843
-0.00540132
-0.0053409
-0.00527273
-0.00279159
-0.00205007
-0.00240655
-0.00314546
-0.00171672
-0.00305248
-0.00314089
-0.00506208
-0.00609704
-0.0063117
-0.00778164
-0.00755177
-2.61517e-05
-0.00121745
-0.00329723
-0.0013531
-0.00595512
-0.00530099
-0.0052846
-0.00521537
-0.00282015
-0.00205783
-0.00240788
-0.00317378
-0.0017377
-0.00304249
-0.00320107
-0.00499665
-0.00610431
-0.00623254
-0.0076872
-0.00755676
-2.75682e-05
-0.00124949
-0.00328043
-0.00139701
-0.00583717
-0.00520282
-0.00522242
-0.00515731
-0.00284855
-0.00206422
-0.00240729
-0.00320213
-0.00176414
-0.00302
-0.00326287
-0.0049196
-0.00609616
-0.0061588
-0.00755842
-0.00755268
-2.89609e-05
-0.00128259
-0.00326348
-0.00144
-0.00571473
-0.00510773
-0.00515539
-0.00509804
-0.00287764
-0.00206979
-0.00240452
-0.00323062
-0.00179613
-0.00298692
-0.00332497
-0.00483503
-0.00607206
-0.00609362
-0.00739985
-0.00753251
-3.03847e-05
-0.0013167
-0.00324656
-0.00148192
-0.00558804
-0.00501631
-0.0050843
-0.00503691
-0.00290801
-0.00207514
-0.00239892
-0.00325942
-0.00183379
-0.00294401
-0.00338669
-0.00474799
-0.00603176
-0.00603937
-0.007219
-0.00748901
-3.19039e-05
-0.00135169
-0.00322981
-0.00152259
-0.00545743
-0.00492881
-0.00500981
-0.00497327
-0.00294105
-0.00208095
-0.00238978
-0.00328842
-0.00187728
-0.00289176
-0.00344756
-0.00466328
-0.00597429
-0.0059969
-0.00702551
-0.00741516
-3.35807e-05
-0.00138741
-0.00321334
-0.00156172
-0.00532331
-0.00484511
-0.00493267
-0.0049065
-0.00297412
-0.00208814
-0.00237618
-0.00331699
-0.00192743
-0.00283092
-0.00350593
-0.00458506
-0.00589846
-0.00596483
-0.00683013
-0.00730559
-3.55024e-05
-0.00142363
-0.0031973
-0.00159904
-0.0051861
-0.0047649
-0.00485359
-0.00483604
-0.00300789
-0.00209763
-0.00235717
-0.00334432
-0.00198514
-0.00276211
-0.00355973
-0.0045176
-0.00580363
-0.00593904
-0.00664359
-0.00715892
-3.77678e-05
-0.0014601
-0.00318182
-0.0016342
-0.00504628
-0.0046878
-0.00477314
-0.00476143
-0.00304175
-0.00211041
-0.0023324
-0.00336926
-0.00205116
-0.00268613
-0.00360649
-0.00446492
-0.00569042
-0.00591275
-0.00647494
-0.00697897
-4.04693e-05
-0.00149648
-0.00316707
-0.00166681
-0.00490441
-0.00461326
-0.00469187
-0.00468251
-0.00307476
-0.00212752
-0.0023021
-0.00339031
-0.00212645
-0.00260426
-0.00364238
-0.00442949
-0.0055614
-0.0058779
-0.0063297
-0.00677423
-4.37199e-05
-0.00153242
-0.00315321
-0.00169657
-0.00476099
-0.00454062
-0.00461023
-0.00459947
-0.00310572
-0.00215002
-0.00226682
-0.00340514
-0.00221182
-0.00251868
-0.00366282
-0.00441209
-0.00542153
-0.00582587
-0.00620889
-0.0065582
-4.76418e-05
-0.0015675
-0.00314043
-0.00172315
-0.00461654
-0.00446932
-0.00452839
-0.00451278
-0.00313317
-0.00217855
-0.0022274
-0.00341091
-0.00230756
-0.00243127
-0.00366281
-0.00441108
-0.00527806
-0.00574891
-0.00610791
-0.0063479
-5.23876e-05
-0.00160128
-0.00312892
-0.00174623
-0.00447153
-0.00439885
-0.00444629
-0.0044234
-0.0031557
-0.00221278
-0.00218605
-0.00340518
-0.00241267
-0.00235034
-0.00363788
-0.00442236
-0.00513962
-0.00564247
-0.00601727
-0.00615988
-5.8135e-05
-0.00163325
-0.00311885
-0.0017656
-0.00432636
-0.00432875
-0.00436354
-0.00433282
-0.00317205
-0.0022517
-0.00214556
-0.0033857
-0.00252455
-0.0022808
-0.00358657
-0.0044398
-0.00501404
-0.00550691
-0.00592449
-0.00600534
-6.50356e-05
-0.00166292
-0.00311039
-0.00178099
-0.00418146
-0.00425881
-0.00427922
-0.00424266
-0.00318138
-0.00229391
-0.00210929
-0.00335108
-0.00263898
-0.00222745
-0.00351062
-0.00445512
-0.00490686
-0.00534835
-0.00581528
-0.00588509
-7.32693e-05
-0.00168981
-0.00310373
-0.00179219
-0.00403702
-0.00418908
-0.0041923
-0.00415412
-0.00318362
-0.00233712
-0.00208029
-0.00330165
-0.00274995
-0.00219328
-0.00341391
-0.00445977
-0.00481924
-0.00517597
-0.00567767
-0.0057876
-8.30369e-05
-0.00171331
-0.00309903
-0.00179934
-0.00389295
-0.00411975
-0.00410171
-0.00406753
-0.0031801
-0.0023776
-0.00205621
-0.0032389
-0.00285178
-0.0021795
-0.00330226
-0.00444763
-0.00474786
-0.00499916
-0.00550708
-0.00569416
-9.45572e-05
-0.00173283
-0.0030963
-0.00180266
-0.00374903
-0.00405125
-0.00400681
-0.00398248
-0.00317271
-0.00241302
-0.00204501
-0.00316583
-0.00294043
-0.00218632
-0.00318227
-0.00441531
-0.00468729
-0.0048257
-0.00530706
-0.00558329
-0.00010801
-0.00174779
-0.00309551
-0.00180261
-0.00360471
-0.00398398
-0.00390762
-0.00389774
-0.00316391
-0.00244095
-0.00204117
-0.00308748
-0.00302955
-0.00220995
-0.00305928
-0.00436227
-0.00463237
-0.00465905
-0.00508745
-0.00543621
-0.000123653
-0.00175757
-0.00309646
-0.00180003
-0.00345915
-0.00391832
-0.0038046
-0.00381127
-0.00315613
-0.00246075
-0.0020423
-0.00300869
-0.00308045
-0.00224405
-0.00293554
-0.00428797
-0.00458121
-0.00449856
-0.00485676
-0.00524973
-0.000141739
-0.00176159
-0.00309888
-0.00179599
-0.00331115
-0.0038542
-0.00369938
-0.0037203
-0.0031504
-0.00247316
-0.00204539
-0.00293306
-0.00311187
-0.0022843
-0.00281443
-0.00419153
-0.00453156
-0.00434069
-0.00461324
-0.00503137
-0.000162421
-0.0017592
-0.00310228
-0.00179238
-0.00315946
-0.00379085
-0.00359409
-0.00362192
-0.00314673
-0.00248211
-0.00204576
-0.00286218
-0.00313079
-0.0023279
-0.00270022
-0.00407497
-0.00448133
-0.00418623
-0.00435004
-0.00478122
-0.000185904
-0.00175
-0.0031059
-0.00179079
-0.00300318
-0.00372757
-0.00349157
-0.00351304
-0.00314386
-0.00249132
-0.00203974
-0.00279556
-0.00314042
-0.00237133
-0.00259438
-0.00394342
-0.00443045
-0.00404066
-0.00406579
-0.00449412
-0.000212404
-0.00173363
-0.00310875
-0.00179337
-0.00284167
-0.00366192
-0.00339541
-0.00339224
-0.00313899
-0.00250454
-0.00202574
-0.0027263
-0.00314607
-0.00241604
-0.00249236
-0.00379918
-0.00438436
-0.00391466
-0.0037652
-0.00416113
-0.000242004
-0.0017101
-0.00310944
-0.00180212
-0.0026752
-0.00359092
-0.00330793
-0.00325949
-0.00312757
-0.0025263
-0.00200628
-0.00264695
-0.00314311
-0.00246431
-0.0023934
-0.00364025
-0.00434321
-0.00382858
-0.00347409
-0.00378045
-0.000274594
-0.00167958
-0.00310664
-0.00181803
-0.00250475
-0.00351118
-0.003231
-0.00311668
-0.00310415
-0.00255778
-0.00198497
-0.00255712
-0.00312422
-0.00251228
-0.00230275
-0.00344188
-0.00425315
-0.00377241
-0.00322941
-0.00342429
-0.000310326
-0.00164211
-0.00309835
-0.00184357
-0.00233246
-0.0034179
-0.00316548
-0.00296857
-0.00306245
-0.00259768
-0.00196884
-0.00245315
-0.00308851
-0.00255648
-0.00221154
-0.00321388
-0.00412089
-0.00373636
-0.00305934
-0.00310801
-0.000349076
-0.00159821
-0.00308252
-0.00187891
-0.00216175
-0.00330778
-0.00310981
-0.00282048
-0.00299746
-0.00264182
-0.00196816
-0.00233894
-0.00302325
-0.00259235
-0.0021306
-0.00297119
-0.00394774
-0.00370304
-0.00296777
-0.00285312
-0.000390986
-0.00154849
-0.00305607
-0.0019253
-0.00199716
-0.00317717
-0.00306347
-0.002679
-0.00290466
-0.00268355
-0.00198583
-0.0022174
-0.00292132
-0.00261741
-0.00207818
-0.0027472
-0.00377406
-0.00369247
-0.00294828
-0.0026193
-0.000436043
-0.00149386
-0.00301638
-0.00198133
-0.00184363
-0.00302535
-0.00301974
-0.00254795
-0.0027836
-0.00271173
-0.00202366
-0.00210308
-0.00278754
-0.00261626
-0.00205042
-0.00252414
-0.00354116
-0.00363398
-0.00296032
-0.00248899
-0.000483557
-0.0014356
-0.00296133
-0.00204413
-0.00170647
-0.00285327
-0.00297284
-0.00243511
-0.00263721
-0.00271174
-0.00207774
-0.00200865
-0.00262683
-0.00258567
-0.00205445
-0.00234242
-0.0032848
-0.00353766
-0.0029799
-0.00241749
-0.000532947
-0.00137515
-0.00288879
-0.00211037
-0.00159131
-0.0026647
-0.00291515
-0.00234152
-0.00247272
-0.00267815
-0.00214299
-0.00194194
-0.00245658
-0.00253183
-0.00206669
-0.00219342
-0.00302577
-0.0033952
-0.00296023
-0.00237464
-0.000583032
-0.00131457
-0.00279761
-0.0021745
-0.0015037
-0.00246583
-0.00284077
-0.002265
-0.00230498
-0.0026082
-0.00220105
-0.00190905
-0.00229301
-0.0024425
-0.00206825
-0.00208068
-0.00277201
-0.00320828
-0.00290173
-0.00233394
-0.000632344
-0.00125618
-0.00268706
-0.0022303
-0.00144714
-0.00226467
-0.0027549
-0.00220239
-0.00214274
-0.00250379
-0.002241
-0.0019054
-0.00214542
-0.00232045
-0.00204806
-0.00199225
-0.0025298
-0.00298664
-0.00280209
-0.00227107
-0.000679507
-0.00120141
-0.00255826
-0.00227227
-0.00142255
-0.00206974
-0.00263626
-0.0021476
-0.00199232
-0.00237099
-0.0022552
-0.00191692
-0.00201904
-0.00217948
-0.0019931
-0.00190831
-0.0023139
-0.00274478
-0.00265733
-0.00219608
-0.000722799
-0.00115114
-0.00241439
-0.00229584
-0.0014273
-0.00188884
-0.00249759
-0.002095
-0.00185727
-0.00221634
-0.00223451
-0.00193161
-0.00191903
-0.00203001
-0.00190275
-0.00181429
-0.00212032
-0.00250896
-0.00248807
-0.00210675
-0.000760977
-0.00110586
-0.00225979
-0.00229757
-0.00145395
-0.00172913
-0.00234324
-0.00203888
-0.00173841
-0.00204815
-0.00217721
-0.0019394
-0.00184099
-0.00187973
-0.00178645
-0.00170517
-0.00193883
-0.00229344
-0.00230653
-0.00197576
-0.000792945
-0.00106516
-0.00210089
-0.00227583
-0.00149102
-0.00159433
-0.00218152
-0.00197698
-0.0016355
-0.00187408
-0.00208309
-0.0019268
-0.001778
-0.00174135
-0.00165631
-0.00158425
-0.00175568
-0.00207831
-0.00211762
-0.00180823
-0.000817828
-0.00102867
-0.00194416
-0.00222925
-0.00152913
-0.00148675
-0.00201956
-0.00190898
-0.00154677
-0.00169791
-0.00195496
-0.00188789
-0.00172519
-0.00162057
-0.00151497
-0.00145043
-0.00156865
-0.00184785
-0.00192739
-0.0016406
-0.000835137
-0.000995716
-0.00179215
-0.00215863
-0.00156056
-0.00140525
-0.00186096
-0.00183349
-0.00147211
-0.00152687
-0.00179785
-0.00181741
-0.0016702
-0.00151627
-0.00137468
-0.00130561
-0.00138555
-0.00160771
-0.00172316
-0.00148129
-0.000844584
-0.000965378
-0.00164773
-0.00206766
-0.00157934
-0.00134443
-0.00170913
-0.00175084
-0.00141005
-0.00136806
-0.00161589
-0.00171157
-0.00160439
-0.00142542
-0.00124718
-0.00115209
-0.00120199
-0.00136723
-0.00149051
-0.00131237
-0.000846093
-0.000936559
-0.00151286
-0.00196114
-0.00158389
-0.00129743
-0.00156485
-0.0016595
-0.00135673
-0.00122683
-0.00141886
-0.00157136
-0.00152083
-0.00133925
-0.00113173
-0.000999623
-0.00101655
-0.00113651
-0.00124018
-0.00112023
-0.000839982
-0.000908154
-0.00138894
-0.00183977
-0.00157262
-0.00126001
-0.00142829
-0.001556
-0.00130871
-0.00110828
-0.00121904
-0.0014002
-0.00141153
-0.00124891
-0.00102557
-0.00085866
-0.000832846
-0.000914731
-0.000986405
-0.000895391
-0.000827069
-0.000879272
-0.00127641
-0.00171408
-0.00154451
-0.00122849
-0.00130201
-0.00143767
-0.00125848
-0.00101429
-0.00102901
-0.0012034
-0.00127246
-0.0011484
-0.000925132
-0.000730124
-0.00065484
-0.000696969
-0.000739228
-0.000651998
-0.000808235
-0.000849204
-0.00117479
-0.00158616
-0.00149968
-0.00119852
-0.00118762
-0.00130805
-0.00119439
-0.000939063
-0.000862199
-0.000993341
-0.00110272
-0.00102814
-0.000822521
-0.000612672
-0.000490285
-0.000484935
-0.000502409
-0.000407737
-0.000784308
-0.00081742
-0.00108304
-0.00145939
-0.0014394
-0.00116589
-0.00108578
-0.00117242
-0.00111085
-0.000873101
-0.000723596
-0.000787198
-0.000908216
-0.000881505
-0.000707951
-0.000502252
-0.000344339
-0.000283509
-0.000271462
-0.000167276
-0.000756145
-0.000783566
-0.00100006
-0.00133639
-0.00136579
-0.0011272
-0.000995319
-0.00103685
-0.00100837
-0.000803265
-0.000608071
-0.000597531
-0.000700206
-0.000711365
-0.000573939
-0.000387333
-0.000214132
-9.96156e-05
-4.69189e-05
6.79833e-05
-0.000724607
-0.000747508
-0.000924599
-0.00121924
-0.00128182
-0.00108028
-0.000913516
-0.000906939
-0.000890957
-0.000720929
-0.000508971
-0.000430493
-0.000490597
-0.000523187
-0.000420688
-0.000256889
-8.97475e-05
6.30929e-05
0.000163937
0.000296333
-0.000690849
-0.000709419
-0.000855406
-0.0011093
-0.00119067
-0.0010243
-0.000837227
-0.000786209
-0.000764816
-0.000621629
-0.000415498
-0.000287494
-0.000289741
-0.000322334
-0.000253215
-0.000109338
4.1845e-05
0.000209574
0.000355491
0.000514314
-0.000656004
-0.000669698
-0.000791206
-0.00100781
-0.00109554
-0.000959471
-0.000763359
-0.00067513
-0.000636737
-0.000507824
-0.000315882
-0.000161674
-0.000108037
-0.000115857
-7.23562e-05
5.02303e-05
0.000188224
0.000351548
0.000528597
0.000717347
-0.000621067
-0.000629015
-0.000731138
-0.000915204
-0.00100002
-0.000887203
-0.000689919
-0.000572079
-0.000510979
-0.000385782
-0.000205907
-4.2118e-05
5.1083e-05
8.23009e-05
0.000119799
0.000219009
0.000348196
0.000500873
0.000691119
0.000907213
-0.000587208
-0.00058874
-0.000674309
-0.000831435
-0.000906823
-0.000809495
-0.000616264
-0.000476432
-0.000389058
-0.000259655
-8.83355e-05
8.19343e-05
0.000198673
0.000260687
0.000311573
0.000394064
0.000512985
0.000656889
0.00084744
0.00108349
-0.0005552
-0.000549528
-0.000621305
-0.000756825
-0.000818678
-0.000728409
-0.000541947
-0.000387808
-0.00027369
-0.000133323
3.27368e-05
0.000210574
0.000347604
0.000429854
0.000497745
0.000575725
0.000681234
0.00081556
0.000996885
0.00124116
-0.000526711
-0.000513756
-0.000571484
-0.000690221
-0.000738409
-0.000647713
-0.000466142
-0.000303826
-0.000167549
-1.14279e-05
0.000154978
0.000337081
0.000495976
0.000599274
0.000682327
0.000766607
0.000862389
0.000985919
0.00115253
0.00139063
-0.000502088
-0.000482697
-0.000527402
-0.000631018
-0.000665867
-0.000571844
-0.000392652
-0.000222625
-7.08268e-05
0.000100818
0.000278143
0.000463441
0.000637318
0.000765286
0.000863749
0.000960167
0.00105783
0.00117587
0.00133066
0.00155335
-0.00048289
-0.000457286
-0.000490744
-0.000581086
-0.000601989
-0.000501469
-0.000324437
-0.000146043
1.84606e-05
0.000199557
0.000393798
0.000589516
0.000775159
0.000927498
0.00104485
0.00115559
0.00126068
0.00137942
0.0015335
0.00174906
-0.000472087
-0.000440737
-0.000461786
-0.000539347
-0.000548604
-0.000439635
-0.000263148
-7.7756e-05
0.000100442
0.000288256
0.000495541
0.000707733
0.000904518
0.00107683
0.00121243
0.00133407
0.00144653
0.00156807
0.00171992
0.00194262
-0.000469947
-0.000433804
-0.000444819
-0.000507693
-0.00050447
-0.000388771
-0.000212866
-2.24088e-05
0.000173499
0.000389904
0.000631668
0.000882503
0.00111899
0.00131573
0.00146629
0.00159534
0.00169398
0.00176262
0.00182613
0.00193742
-0.000479032
-0.000438211
-0.000440161
-0.000488238
-0.000468038
-0.000346681
-0.000191099
-4.06262e-05
9.72391e-05
0.000283574
0.000574232
0.000899791
0.00121769
0.00148764
0.00169826
0.00194467
0.00224604
0.00259099
0.00294501
0.00326864
-0.000512518
-0.000456991
-0.000437233
-0.00046463
-0.000424775
-0.000283245
-0.000102329
9.97955e-05
0.000305921
0.000517989
0.000797987
0.0010841
0.00133756
0.0015897
0.00177718
0.00190974
0.00199989
0.00204845
0.00207741
0.00212552
-0.000584077
-0.000535646
-0.000466478
-0.000436026
-0.000358973
-0.000208142
-3.88604e-05
0.000135385
0.000314494
0.00049143
0.000727751
0.00103011
0.0013088
0.00160019
0.00191655
0.00224157
0.002592
0.00294907
0.00328837
0.00355569
-0.000626354
-0.000575565
-0.000495677
-0.000447369
-0.000354609
-0.000197449
-2.93814e-05
0.000142215
0.000323641
0.000516321
0.000763621
0.00107861
0.00139289
0.00169041
0.00199791
0.00229325
0.00256759
0.00281181
0.00301437
0.00315237
-0.00932898
-0.00794156
-0.0123842
-0.0162074
-0.0157481
-0.0129374
-0.009873
-0.0073532
-0.00547901
-0.00406515
-0.00283291
-0.00181703
-0.00113972
-0.000355386
0.00080634
0.0018677
0.00270107
0.00368934
0.00457445
0.0047271
0.00433814
0.00407868
0.0037985
0.00346471
0.00456838
0.00751988
0.0101867
0.0112731
0.0117039
0.0124043
0.0132621
0.0139271
0.0147007
0.0159492
0.0171897
0.0172209
0.0158658
0.0152297
0.017019
0.0197032
0.0212153
0.0216267
0.0218085
0.0221957
0.0230858
0.0245036
0.0259311
0.0269277
0.0275288
0.028062
0.0288687
0.0300293
0.0313117
0.0325152
0.0336203
0.0347349
0.0358912
0.0370748
0.0382829
0.039506
0.0406821
0.0418261
0.0430315
0.0443004
0.0455673
0.0468557
0.0482195
0.0496022
0.0509988
0.0524181
0.0538822
0.0553835
0.0568378
0.0583445
0.0598868
0.0614852
0.0631609
0.064869
0.0665085
0.0681607
0.0698844
0.0716384
0.0734638
0.075302
0.0771697
0.0790385
0.0810055
0.0829426
0.0849663
0.0869918
0.0890557
0.0911786
0.0933054
0.0955679
0.0977142
0.100045
0.102405
0.104688
0.107225
0.109638
-0.00921769
-0.00799288
-0.0122711
-0.0160753
-0.0156745
-0.0128998
-0.00984979
-0.00733754
-0.00546732
-0.00405474
-0.0028223
-0.00180646
-0.00113113
-0.000349081
0.000812226
0.00187336
0.00270533
0.00369321
0.00457929
0.00473181
0.00434134
0.00408179
0.00380193
0.00346557
0.00456746
0.00752136
0.0101908
0.0112766
0.0117059
0.0124061
0.0132644
0.0139289
0.0147017
0.0159503
0.0171922
0.0172245
0.0158676
0.0152289
0.0170183
0.0197048
0.0212171
0.021628
0.0218094
0.0221962
0.023086
0.024504
0.0259318
0.0269285
0.0275295
0.0280625
0.028869
0.0300296
0.0313121
0.0325157
0.0336207
0.0347353
0.0358915
0.0370751
0.0382832
0.0395063
0.0406824
0.0418264
0.0430318
0.0443007
0.0455676
0.0468559
0.0482198
0.0496025
0.050999
0.0524184
0.0538824
0.0553837
0.056838
0.0583447
0.059887
0.0614853
0.0631611
0.0648692
0.0665087
0.0681608
0.0698845
0.0716385
0.073464
0.0753021
0.0771698
0.0790386
0.0810056
0.0829427
0.0849664
0.0869919
0.0890558
0.0911787
0.0933055
0.095568
0.0977143
0.100045
0.102406
0.104689
0.107225
0.109639
-0.00930581
-0.00810589
-0.0120194
-0.0157945
-0.0155356
-0.0128433
-0.00982177
-0.00731997
-0.00545623
-0.00404772
-0.002816
-0.00179869
-0.0011227
-0.000341593
0.000818781
0.00187901
0.00270984
0.00369782
0.004585
0.00473689
0.0043439
0.00408382
0.00380425
0.00346427
0.00456447
0.00752307
0.0101959
0.01128
0.0117073
0.0124075
0.0132664
0.0139304
0.0147022
0.0159513
0.0171953
0.0172286
0.0158684
0.015226
0.0170171
0.019707
0.0212195
0.0216293
0.02181
0.0221962
0.0230858
0.0245043
0.0259327
0.0269295
0.0275302
0.0280627
0.028869
0.0300298
0.0313125
0.0325161
0.0336211
0.0347355
0.0358918
0.0370754
0.0382835
0.0395066
0.0406827
0.0418266
0.043032
0.0443009
0.0455678
0.0468561
0.0482199
0.0496026
0.0509992
0.0524185
0.0538825
0.0553839
0.0568381
0.0583448
0.0598872
0.0614855
0.0631612
0.0648694
0.0665089
0.0681609
0.0698846
0.0716386
0.0734641
0.0753022
0.0771699
0.0790387
0.0810057
0.0829428
0.0849664
0.086992
0.0890559
0.0911788
0.0933056
0.095568
0.0977144
0.100045
0.102406
0.104689
0.107225
0.109639
-0.00941187
-0.00816818
-0.0116824
-0.0154271
-0.0153431
-0.0127626
-0.00977882
-0.0072911
-0.00543936
-0.00404043
-0.00281214
-0.00179194
-0.00111131
-0.00032948
0.000827862
0.00188502
0.00271444
0.00370332
0.00459244
0.00474382
0.00434749
0.00408632
0.00380686
0.00346223
0.00456056
0.00752527
0.0102017
0.0112834
0.0117084
0.0124087
0.0132686
0.0139319
0.0147029
0.0159525
0.0171992
0.0172337
0.0158689
0.0152217
0.0170155
0.0197103
0.0212227
0.0216307
0.0218106
0.0221961
0.0230853
0.0245047
0.0259339
0.0269307
0.0275309
0.0280628
0.0288689
0.0300299
0.031313
0.0325166
0.0336215
0.0347358
0.0358921
0.0370757
0.0382838
0.0395069
0.040683
0.0418269
0.0430322
0.0443012
0.045568
0.0468563
0.0482201
0.0496029
0.0509994
0.0524187
0.0538827
0.0553841
0.0568383
0.058345
0.0598873
0.0614856
0.0631613
0.0648695
0.066509
0.068161
0.0698847
0.0716387
0.0734642
0.0753023
0.0771701
0.0790388
0.0810058
0.0829429
0.0849665
0.0869921
0.089056
0.0911789
0.0933056
0.0955681
0.0977145
0.100045
0.102406
0.104689
0.107225
0.10964
-0.00947947
-0.00821801
-0.0113302
-0.0150219
-0.0151207
-0.012666
-0.00972595
-0.00725471
-0.00541809
-0.0040321
-0.00280946
-0.00178568
-0.00109645
-0.000311638
0.000840719
0.00189236
0.00271922
0.00370849
0.00459975
0.00475105
0.00435129
0.00408942
0.00381108
0.0034616
0.00455756
0.00752844
0.0102079
0.0112867
0.0117093
0.0124096
0.0132704
0.0139332
0.0147036
0.0159541
0.0172036
0.0172394
0.0158694
0.015217
0.0170144
0.0197145
0.0212263
0.0216323
0.0218114
0.022196
0.0230849
0.0245053
0.0259355
0.0269321
0.0275316
0.028063
0.0288688
0.0300301
0.0313135
0.0325172
0.0336219
0.0347362
0.0358924
0.037076
0.0382842
0.0395073
0.0406834
0.0418271
0.0430324
0.0443014
0.0455683
0.0468565
0.0482204
0.0496031
0.0509996
0.0524189
0.0538829
0.0553843
0.0568385
0.0583451
0.0598875
0.0614857
0.0631614
0.0648697
0.0665092
0.0681612
0.0698849
0.0716388
0.0734643
0.0753024
0.0771702
0.0790389
0.0810059
0.082943
0.0849666
0.0869922
0.089056
0.091179
0.0933057
0.0955682
0.0977145
0.100045
0.102406
0.104689
0.107225
0.109642
-0.0095449
-0.00829403
-0.0109771
-0.0145862
-0.0148741
-0.012559
-0.00966833
-0.00721505
-0.00539456
-0.00402286
-0.00280694
-0.00177912
-0.00107862
-0.000289194
0.000856717
0.00190092
0.00272394
0.00371235
0.00460528
0.00475637
0.00435267
0.00409069
0.00381583
0.00346358
0.00455782
0.00753397
0.0102147
0.0112901
0.0117107
0.0124107
0.0132716
0.0139335
0.0147037
0.0159555
0.0172081
0.0172457
0.0158704
0.0152127
0.017014
0.0197197
0.0212301
0.0216341
0.0218126
0.0221962
0.0230846
0.0245062
0.0259374
0.0269337
0.0275325
0.0280631
0.0288687
0.0300303
0.0313142
0.0325179
0.0336225
0.0347366
0.0358927
0.0370764
0.0382847
0.0395078
0.0406837
0.0418274
0.0430327
0.0443017
0.0455685
0.0468567
0.0482206
0.0496033
0.0509998
0.0524191
0.0538831
0.0553846
0.0568387
0.0583453
0.0598877
0.0614858
0.0631616
0.06487
0.0665094
0.0681613
0.069885
0.071639
0.0734644
0.0753026
0.0771703
0.079039
0.081006
0.0829431
0.0849667
0.0869923
0.0890561
0.091179
0.0933058
0.0955683
0.0977146
0.100045
0.102406
0.104689
0.107225
0.109643
-0.00961294
-0.00837987
-0.0106146
-0.0141253
-0.0146089
-0.0124446
-0.009608
-0.00717332
-0.00536904
-0.00401209
-0.00280335
-0.00177153
-0.00105904
-0.000264565
0.000874089
0.00190987
0.00272827
0.00371475
0.00460826
0.00475816
0.00434914
0.00408687
0.00381779
0.00346606
0.00456186
0.00754401
0.0102235
0.0112941
0.0117133
0.0124129
0.013273
0.0139328
0.0147022
0.0159551
0.0172114
0.017252
0.0158724
0.0152094
0.0170148
0.0197254
0.0212339
0.0216363
0.0218146
0.0221968
0.0230847
0.0245075
0.0259397
0.0269356
0.0275336
0.0280635
0.0288687
0.0300306
0.0313149
0.0325187
0.0336231
0.0347371
0.0358932
0.0370769
0.0382852
0.0395083
0.0406842
0.0418278
0.043033
0.044302
0.0455688
0.0468569
0.0482209
0.0496036
0.0510001
0.0524193
0.0538833
0.0553849
0.0568389
0.0583454
0.0598879
0.061486
0.0631617
0.0648702
0.0665097
0.0681614
0.0698852
0.0716391
0.0734646
0.0753028
0.0771705
0.0790391
0.0810061
0.0829433
0.0849668
0.0869924
0.0890562
0.0911792
0.0933059
0.0955684
0.0977147
0.100045
0.102406
0.104689
0.107225
0.109645
-0.00966414
-0.00846438
-0.0102539
-0.0136501
-0.0143275
-0.0123225
-0.00954429
-0.00712892
-0.00534082
-0.00399901
-0.00279807
-0.00176293
-0.00103875
-0.000239424
0.000891517
0.00191828
0.00273161
0.00371565
0.00460876
0.0047562
0.00434019
0.00407654
0.00381343
0.00346414
0.00456663
0.00755931
0.0102362
0.0112993
0.0117169
0.0124169
0.013276
0.013932
0.0146985
0.015951
0.0172115
0.0172572
0.015875
0.0152079
0.0170172
0.0197314
0.0212371
0.0216387
0.0218175
0.0221982
0.0230851
0.0245092
0.0259423
0.0269377
0.027535
0.0280643
0.0288689
0.030031
0.0313158
0.0325196
0.033624
0.0347378
0.0358937
0.0370775
0.038286
0.039509
0.0406847
0.0418282
0.0430335
0.0443024
0.0455692
0.0468573
0.0482212
0.0496039
0.0510004
0.0524196
0.0538836
0.0553852
0.0568392
0.0583456
0.0598881
0.0614861
0.0631619
0.0648705
0.0665099
0.0681616
0.0698853
0.0716392
0.0734648
0.0753029
0.0771706
0.0790392
0.0810063
0.0829434
0.0849669
0.0869926
0.0890563
0.0911793
0.0933059
0.0955686
0.0977147
0.100045
0.102406
0.104689
0.107226
0.109648
-0.00968841
-0.00855356
-0.0099076
-0.013164
-0.0140271
-0.0121904
-0.00947614
-0.00708137
-0.00530965
-0.0039835
-0.00279111
-0.00175356
-0.00101823
-0.000214385
0.000908432
0.00192554
0.00273338
0.00371465
0.00460667
0.00475061
0.0043265
0.00406058
0.00380175
0.00345307
0.00456618
0.00757785
0.0102539
0.0113062
0.0117205
0.0124218
0.0132808
0.0139316
0.0146923
0.0159418
0.0172062
0.0172592
0.0158769
0.0152077
0.0170218
0.0197379
0.0212392
0.021641
0.0218216
0.0222008
0.0230862
0.0245111
0.0259449
0.02694
0.0275369
0.0280657
0.0288698
0.0300317
0.0313167
0.0325207
0.0336249
0.0347386
0.0358943
0.0370783
0.0382869
0.0395098
0.0406854
0.0418289
0.0430341
0.0443029
0.0455696
0.0468577
0.0482216
0.0496043
0.0510007
0.0524199
0.0538839
0.0553856
0.0568394
0.0583458
0.0598884
0.0614864
0.0631621
0.0648709
0.0665103
0.0681618
0.0698855
0.0716394
0.073465
0.0753032
0.0771708
0.0790394
0.0810065
0.0829436
0.0849671
0.0869928
0.0890564
0.0911794
0.093306
0.0955687
0.0977148
0.100045
0.102406
0.104689
0.107226
0.109651
-0.00968507
-0.00865048
-0.00957932
-0.0126661
-0.0137054
-0.0120477
-0.00940356
-0.00703084
-0.00527582
-0.00396565
-0.00278237
-0.00174325
-0.00099745
-0.000189401
0.000924704
0.00193125
0.00273311
0.00371138
0.00460185
0.00474067
0.00430868
0.00404036
0.00378385
0.0034306
0.00455448
0.00759481
0.0102762
0.011315
0.0117233
0.0124256
0.0132858
0.0139305
0.0146826
0.0159253
0.0171944
0.0172561
0.0158756
0.0152069
0.017029
0.0197462
0.0212403
0.0216421
0.0218262
0.0222046
0.0230884
0.0245133
0.0259472
0.0269417
0.0275388
0.0280679
0.0288714
0.0300329
0.0313178
0.0325217
0.0336261
0.0347395
0.0358951
0.0370793
0.0382881
0.0395107
0.0406862
0.0418299
0.043035
0.0443036
0.0455702
0.0468582
0.0482221
0.0496048
0.0510011