/*--------------------------------*- C++ -*----------------------------------*\
| =========                 |                                                 |
| \\      /  F ield         | OpenFOAM: The Open Source CFD Toolbox           |
|  \\    /   O peration     | Version:  v1912                                 |
|   \\  /    A nd           | Website:  www.openfoam.com                      |
|    \\/     M anipulation  |                                                 |
\*---------------------------------------------------------------------------*/
FoamFile
{
    version     2.0;
    format      ascii;
    class       surfaceScalarField;
    location    "9.25";
    object      phi;
}
// * * * * * * * * * * * * * * * * * * * * * * * * * * * * * * * * * * * * * //

dimensions      [0 3 -1 0 0 0 0];
oriented        oriented;


internalField   nonuniform List<scalar> 
19000
(
1.20589e-06
1.00312e-06
1.12652e-06
-5.26999e-08
1.1392e-06
-1.09788e-06
1.13435e-06
-2.15693e-07
1.22194e-06
4.53707e-07
1.06434e-06
1.05185e-06
1.05742e-06
-1.1401e-06
1.20782e-06
1.92602e-08
1.16829e-06
-4.61773e-07
1.1752e-06
-6.99082e-08
1.17254e-06
-3.65183e-07
1.1862e-06
-2.14718e-07
1.21149e-06
4.52252e-07
1.1876e-06
1.20906e-07
1.23522e-06
9.58365e-07
1.18942e-06
2.4281e-07
1.23574e-06
6.75394e-07
1.20545e-06
4.62215e-07
1.20722e-06
4.67254e-07
5.54926e-07
1.20147e-06
1.25761e-06
9.69768e-07
1.1825e-06
2.24044e-08
1.19747e-06
-1.11285e-06
1.18853e-06
-2.06754e-07
1.27842e-06
3.6382e-07
1.15255e-06
1.17771e-06
1.13984e-06
-1.12739e-06
1.27424e-06
-1.15135e-07
1.24046e-06
-4.28001e-07
1.24407e-06
-7.35202e-08
1.23999e-06
-3.61095e-07
1.25034e-06
-2.25066e-07
1.26903e-06
4.33556e-07
1.25039e-06
1.39543e-07
1.28379e-06
9.24965e-07
1.2578e-06
2.68807e-07
1.27621e-06
6.56979e-07
1.28369e-06
4.54742e-07
1.23981e-06
5.11129e-07
5.05969e-07
1.28877e-06
1.30996e-06
9.42587e-07
1.24438e-06
8.79904e-08
1.25784e-06
-1.12631e-06
1.24905e-06
-1.97965e-07
1.33297e-06
2.79896e-07
1.25307e-06
1.25762e-06
1.22466e-06
-1.09898e-06
1.33473e-06
-2.25203e-07
1.30872e-06
-4.01987e-07
1.31382e-06
-7.86282e-08
1.30611e-06
-3.53385e-07
1.31945e-06
-2.38402e-07
1.33512e-06
4.17886e-07
1.32254e-06
1.52124e-07
1.34545e-06
9.0205e-07
1.33524e-06
2.79022e-07
1.33676e-06
6.55457e-07
1.35406e-06
4.37444e-07
1.3172e-06
5.47986e-07
4.98241e-07
1.32493e-06
1.36436e-06
9.22327e-07
1.31131e-06
1.41043e-07
1.31972e-06
-1.13471e-06
1.31344e-06
-1.91689e-07
1.38635e-06
2.06981e-07
1.35278e-06
1.29119e-06
1.30639e-06
-1.05259e-06
1.38294e-06
-3.01757e-07
1.36687e-06
-3.85911e-07
1.37336e-06
-8.51244e-08
1.36401e-06
-3.44026e-07
1.3832e-06
-2.57597e-07
1.40566e-06
3.95422e-07
1.40047e-06
1.57314e-07
1.41932e-06
8.8321e-07
1.41601e-06
2.82322e-07
1.41421e-06
6.57259e-07
1.42468e-06
4.26979e-07
1.40675e-06
5.65914e-07
5.11342e-07
1.39365e-06
1.42232e-06
9.08364e-07
1.38084e-06
1.82519e-07
1.38277e-06
-1.13664e-06
1.38101e-06
-1.89924e-07
1.43836e-06
1.49625e-07
1.44121e-06
1.28834e-06
1.38279e-06
-9.94161e-07
1.42232e-06
-3.4129e-07
1.41537e-06
-3.78962e-07
1.42224e-06
-9.19917e-08
1.41574e-06
-3.37531e-07
1.4399e-06
-2.81755e-07
1.47354e-06
3.61788e-07
1.47792e-06
1.52926e-07
1.49644e-06
8.6469e-07
1.49418e-06
2.84585e-07
1.49465e-06
6.56786e-07
1.49704e-06
4.24598e-07
1.4903e-06
5.72649e-07
5.30231e-07
1.47141e-06
1.48526e-06
8.9878e-07
1.45117e-06
2.16609e-07
1.44822e-06
-1.13369e-06
1.45171e-06
-1.93412e-07
1.49101e-06
1.10318e-07
1.51686e-06
1.26249e-06
1.45766e-06
-9.34958e-07
1.46439e-06
-3.48023e-07
1.46097e-06
-3.7554e-07
1.4677e-06
-9.87218e-08
1.4679e-06
-3.37728e-07
1.49505e-06
-3.08906e-07
1.53651e-06
3.20327e-07
1.55102e-06
1.38418e-07
1.5718e-06
8.43905e-07
1.56926e-06
2.87131e-07
1.57192e-06
6.54127e-07
1.56778e-06
4.28733e-07
1.56572e-06
5.74706e-07
5.51229e-07
1.54473e-06
1.55398e-06
8.91016e-07
1.52222e-06
2.48375e-07
1.51786e-06
-1.12934e-06
1.52626e-06
-2.01806e-07
1.54723e-06
8.93447e-08
1.58443e-06
1.22529e-06
1.53577e-06
-8.86301e-07
1.52081e-06
-3.3306e-07
1.5128e-06
-3.67533e-07
1.51739e-06
-1.03311e-07
1.52483e-06
-3.45163e-07
1.5538e-06
-3.37881e-07
1.59853e-06
2.75596e-07
1.62124e-06
1.15716e-07
1.64658e-06
8.18565e-07
1.6447e-06
2.89008e-07
1.64804e-06
6.50786e-07
1.63758e-06
4.39196e-07
1.63675e-06
5.75538e-07
5.73268e-07
1.61471e-06
1.6284e-06
8.82743e-07
1.59537e-06
2.81409e-07
1.59266e-06
-1.12663e-06
1.60549e-06
-2.14641e-07
1.60939e-06
8.54505e-08
1.64896e-06
1.18571e-06
1.61863e-06
-8.55961e-07
1.59626e-06
-3.10695e-07
1.57742e-06
-3.48693e-07
1.57536e-06
-1.01248e-07
1.5866e-06
-3.56408e-07
1.61742e-06
-3.687e-07
1.66437e-06
2.28643e-07
1.69333e-06
8.67607e-08
1.72474e-06
7.87156e-07
1.72462e-06
2.89127e-07
1.72781e-06
6.47596e-07
1.71074e-06
4.56269e-07
1.70903e-06
5.77245e-07
5.95386e-07
1.68691e-06
1.70791e-06
8.72403e-07
1.67254e-06
3.1678e-07
1.67237e-06
-1.12646e-06
1.68963e-06
-2.31904e-07
1.67886e-06
9.62205e-08
1.71402e-06
1.15056e-06
1.70497e-06
-8.46919e-07
1.68757e-06
-2.93289e-07
1.65596e-06
-3.17089e-07
1.64275e-06
-8.80369e-08
1.65196e-06
-3.65612e-07
1.68463e-06
-4.01368e-07
1.73558e-06
1.77692e-07
1.77087e-06
5.14677e-08
1.80946e-06
7.48561e-07
1.81146e-06
2.87131e-07
1.81475e-06
6.44305e-07
1.79143e-06
4.79593e-07
1.78735e-06
5.8132e-07
6.17208e-07
1.76553e-06
1.79187e-06
8.59259e-07
1.75528e-06
3.53363e-07
1.75622e-06
-1.1274e-06
1.77809e-06
-2.53773e-07
1.75627e-06
1.18041e-07
1.78266e-06
1.12417e-06
1.79321e-06
-8.57467e-07
1.78757e-06
-2.87651e-07
1.74507e-06
-2.74585e-07
1.7196e-06
-6.25683e-08
1.72163e-06
-3.67641e-07
1.75475e-06
-4.34483e-07
1.81076e-06
1.21675e-07
1.85368e-06
8.55441e-09
1.90064e-06
7.01596e-07
1.90466e-06
2.83116e-07
1.90905e-06
6.39913e-07
1.88076e-06
5.07881e-07
1.87355e-06
5.8853e-07
6.39107e-07
1.85165e-06
1.87978e-06
8.43224e-07
1.8443e-06
3.88844e-07
1.84365e-06
-1.12675e-06
1.86982e-06
-2.79939e-07
1.84174e-06
1.46123e-07
1.8581e-06
1.1078e-06
1.8825e-06
-8.81865e-07
1.88949e-06
-2.94643e-07
1.84005e-06
-2.25144e-07
1.80543e-06
-2.79513e-08
1.7984e-06
-3.60604e-07
1.82924e-06
-4.65328e-07
1.88828e-06
6.2639e-08
1.93867e-06
-4.18395e-08
1.99455e-06
6.45719e-07
2.00048e-06
2.77185e-07
2.00729e-06
6.331e-07
1.97611e-06
5.39066e-07
1.96609e-06
5.98553e-07
6.61366e-07
1.94383e-06
1.97134e-06
8.24724e-07
1.93951e-06
4.20671e-07
1.93459e-06
-1.12183e-06
1.96375e-06
-3.09104e-07
1.93477e-06
1.75106e-07
1.9429e-06
1.09968e-06
1.97275e-06
-9.11718e-07
1.98919e-06
-3.11083e-07
1.93755e-06
-1.73503e-07
1.89928e-06
1.03174e-08
1.88468e-06
-3.46009e-07
1.91052e-06
-4.91162e-07
1.96795e-06
5.20553e-09
2.0226e-06
-9.64859e-08
2.08606e-06
5.82255e-07
2.09377e-06
2.69476e-07
2.10425e-06
6.22621e-07
2.07274e-06
5.70573e-07
2.06132e-06
6.09972e-07
6.83183e-07
2.03951e-06
2.06632e-06
8.04597e-07
2.04031e-06
4.46676e-07
2.02938e-06
-1.1109e-06
2.05926e-06
-3.3898e-07
2.03413e-06
2.00238e-07
2.03789e-06
1.09591e-06
2.06437e-06
-9.38196e-07
2.08553e-06
-3.3224e-07
2.03635e-06
-1.24327e-07
1.99987e-06
4.68014e-08
1.98082e-06
-3.26956e-07
1.99988e-06
-5.10227e-07
2.05086e-06
-4.57787e-08
2.10419e-06
-1.49808e-07
2.17181e-06
5.14628e-07
2.18084e-06
2.6045e-07
2.19575e-06
6.07712e-07
2.16666e-06
5.99661e-07
2.15586e-06
6.20768e-07
7.02548e-07
2.1365e-06
2.16468e-06
7.83919e-07
2.14592e-06
4.65432e-07
2.12858e-06
-1.09356e-06
2.15639e-06
-3.66783e-07
2.13811e-06
2.18521e-07
2.14204e-06
1.09198e-06
2.15824e-06
-9.54394e-07
2.17972e-06
-3.53719e-07
2.13689e-06
-8.14983e-08
2.10609e-06
7.76026e-08
2.0853e-06
-3.06165e-07
2.0969e-06
-5.2183e-07
2.13831e-06
-8.71844e-08
2.18463e-06
-1.96127e-07
2.25203e-06
4.47222e-07
2.26157e-06
2.50907e-07
2.28099e-06
5.883e-07
2.25679e-06
6.23859e-07
2.24848e-06
6.29081e-07
7.17006e-07
2.23402e-06
2.26668e-06
7.63724e-07
2.2557e-06
4.76412e-07
2.23269e-06
-1.07055e-06
2.25587e-06
-3.89968e-07
2.24526e-06
2.29135e-07
2.25326e-06
1.08398e-06
2.25557e-06
-9.56708e-07
2.27422e-06
-3.72367e-07
2.24022e-06
-4.75024e-08
2.21719e-06
1.00639e-07
2.19617e-06
-2.85151e-07
2.2003e-06
-5.25961e-07
2.23119e-06
-1.18065e-07
2.26665e-06
-2.31591e-07
2.33004e-06
3.8383e-07
2.33923e-06
2.4172e-07
2.36264e-06
5.64886e-07
2.34512e-06
6.41381e-07
2.34036e-06
6.33838e-07
7.2467e-07
2.3327e-06
2.37285e-06
7.44749e-07
2.36932e-06
4.7994e-07
2.34199e-06
-1.04322e-06
2.35882e-06
-4.06796e-07
2.35494e-06
2.33009e-07
2.36959e-06
1.06934e-06
2.3577e-06
-9.44819e-07
2.3717e-06
-3.8637e-07
2.34733e-06
-2.31327e-08
2.33267e-06
1.15297e-07
2.31203e-06
-2.64513e-07
2.3091e-06
-5.23029e-07
2.33003e-06
-1.38996e-07
2.35319e-06
-2.5475e-07
2.41021e-06
3.26814e-07
2.41833e-06
2.33596e-07
2.44489e-06
5.38331e-07
2.43492e-06
6.51349e-07
2.43379e-06
6.34964e-07
7.24788e-07
2.43367e-06
2.48383e-06
7.27317e-07
2.4868e-06
4.76972e-07
2.4566e-06
-1.01302e-06
2.46635e-06
-4.16551e-07
2.46739e-06
2.31976e-07
2.48986e-06
1.04686e-06
2.46573e-06
-9.20691e-07
2.47433e-06
-3.94973e-07
2.45884e-06
-7.6435e-09
2.45214e-06
1.22001e-07
2.4322e-06
-2.44573e-07
2.42299e-06
-5.13813e-07
2.43523e-06
-1.51238e-07
2.4464e-06
-2.65921e-07
2.49594e-06
2.77267e-07
2.50242e-06
2.27118e-07
2.53095e-06
5.09804e-07
2.52851e-06
6.53786e-07
2.53046e-06
6.33019e-07
7.17767e-07
2.53748e-06
2.60023e-06
7.11378e-07
2.6084e-06
4.68807e-07
2.57654e-06
-9.81163e-07
2.57942e-06
-4.19431e-07
2.5834e-06
2.27997e-07
2.61373e-06
1.01654e-06
2.58037e-06
-8.87341e-07
2.58358e-06
-3.98183e-07
2.57522e-06
7.23557e-10
2.57532e-06
1.21902e-07
2.55646e-06
-2.25715e-07
2.54208e-06
-4.99438e-07
2.54709e-06
-1.56245e-07
2.54747e-06
-2.66303e-07
2.58911e-06
2.3563e-07
2.59328e-06
2.22952e-07
2.6222e-06
4.8088e-07
2.62654e-06
6.49445e-07
2.63089e-06
6.28668e-07
7.04705e-07
2.64395e-06
2.72256e-06
6.96644e-07
2.73455e-06
4.56823e-07
2.70192e-06
-9.48539e-07
2.69877e-06
-4.16275e-07
2.70407e-06
2.22694e-07
2.74139e-06
9.79225e-07
2.70191e-06
-8.47866e-07
2.7003e-06
-3.96571e-07
2.69698e-06
4.04116e-09
2.70222e-06
1.16661e-07
2.68481e-06
-2.08298e-07
2.66658e-06
-4.81215e-07
2.66588e-06
-1.5554e-07
2.65702e-06
-2.57445e-07
2.69062e-06
2.0203e-07
2.69172e-06
2.2185e-07
2.71912e-06
4.53481e-07
2.72899e-06
6.39571e-07
2.73527e-06
6.22397e-07
6.86833e-07
2.75314e-06
2.85118e-06
6.82728e-07
2.86572e-06
4.42288e-07
2.83293e-06
-9.15753e-07
2.82492e-06
-4.08258e-07
2.83043e-06
2.17179e-07
2.87333e-06
9.36328e-07
2.83036e-06
-8.049e-07
2.82488e-06
-3.91086e-07
2.8248e-06
4.11909e-09
2.83332e-06
1.08141e-07
2.81743e-06
-1.92404e-07
2.79659e-06
-4.60379e-07
2.79167e-06
-1.50616e-07
2.77536e-06
-2.41143e-07
2.80123e-06
1.76167e-07
2.79878e-06
2.24301e-07
2.82282e-06
4.29438e-07
2.8368e-06
6.25594e-07
2.84469e-06
6.14505e-07
6.65265e-07
2.86626e-06
2.98636e-06
6.69259e-07
3.00239e-06
4.2626e-07
2.96987e-06
-8.8323e-07
2.9582e-06
-3.96593e-07
2.9633e-06
2.12079e-07
3.01017e-06
8.89458e-07
2.96567e-06
-7.60401e-07
2.9574e-06
-3.82807e-07
2.9593e-06
2.20982e-09
2.96938e-06
9.80644e-08
2.95472e-06
-1.77744e-07
2.93222e-06
-4.37878e-07
2.9244e-06
-1.42797e-07
2.90259e-06
-2.19334e-07
2.92166e-06
1.57103e-07
2.91584e-06
2.30116e-07
2.93539e-06
4.0989e-07
2.9522e-06
6.08781e-07
2.96157e-06
6.05132e-07
6.41153e-07
2.98569e-06
3.12833e-06
6.55937e-07
3.14503e-06
4.09558e-07
3.11308e-06
-8.5128e-07
3.09879e-06
-3.82305e-07
3.10322e-06
2.07656e-07
3.15257e-06
8.40106e-07
3.10785e-06
-7.15684e-07
3.09772e-06
-3.72681e-07
3.1009e-06
-9.68427e-10
3.11125e-06
8.77193e-08
3.09728e-06
-1.6378e-07
3.07372e-06
-4.14317e-07
3.06403e-06
-1.33103e-07
3.03853e-06
-1.9384e-07
3.05224e-06
1.43393e-07
3.04403e-06
2.38329e-07
3.05894e-06
3.9498e-07
3.07773e-06
5.89995e-07
3.08851e-06
5.94348e-07
6.15739e-07
3.11393e-06
3.27732e-06
6.42529e-07
3.29407e-06
3.92806e-07
3.26293e-06
-8.20138e-07
3.24676e-06
-3.66139e-07
3.25047e-06
2.03952e-07
3.30111e-06
7.89465e-07
3.25699e-06
-6.71567e-07
3.24568e-06
-3.61372e-07
3.24977e-06
-5.05322e-09
3.25962e-06
7.78679e-08
3.24581e-06
-1.49971e-07
3.22152e-06
-3.90024e-07
3.21063e-06
-1.22218e-07
3.18292e-06
-1.66126e-07
3.19278e-06
1.3353e-07
3.18357e-06
2.47537e-07
3.19452e-06
3.84036e-07
3.21478e-06
5.69734e-07
3.22699e-06
5.82139e-07
5.90243e-07
3.25248e-06
3.43362e-06
6.28845e-07
3.44994e-06
3.76486e-07
3.41977e-06
-7.8997e-07
3.40221e-06
-3.48583e-07
3.40529e-06
2.00868e-07
3.45633e-06
7.38426e-07
3.41329e-06
-6.28525e-07
3.40117e-06
-3.49253e-07
3.40596e-06
-9.83953e-09
3.41502e-06
6.88043e-08
3.40097e-06
-1.35919e-07
3.37613e-06
-3.65189e-07
3.36451e-06
-1.10598e-07
3.33557e-06
-1.37178e-07
3.34274e-06
1.26352e-07
3.33389e-06
2.5639e-07
3.34186e-06
3.76072e-07
3.36327e-06
5.48323e-07
3.37699e-06
5.68418e-07
5.65681e-07
3.40155e-06
3.59755e-06
6.14704e-07
3.61306e-06
3.60979e-07
3.58394e-06
-7.60847e-07
3.56532e-06
-3.29963e-07
3.56797e-06
1.98213e-07
3.61872e-06
6.87673e-07
3.577e-06
-5.86803e-07
3.56423e-06
-3.36478e-07
3.56958e-06
-1.51911e-08
3.57785e-06
6.05336e-08
3.56336e-06
-1.2143e-07
3.53813e-06
-3.39955e-07
3.52613e-06
-9.86066e-08
3.49654e-06
-1.07579e-07
3.50168e-06
1.21208e-07
3.49417e-06
2.63898e-07
3.50004e-06
3.70208e-07
3.5222e-06
5.26154e-07
3.53756e-06
5.53067e-07
5.42683e-07
3.56055e-06
3.76948e-06
5.99925e-07
3.78389e-06
3.46576e-07
3.75579e-06
-7.32746e-07
3.73634e-06
-3.10519e-07
3.73885e-06
1.95705e-07
3.78874e-06
6.3778e-07
3.74841e-06
-5.46473e-07
3.73502e-06
-3.23087e-07
3.74078e-06
-2.09479e-08
3.74844e-06
5.28757e-08
3.73351e-06
-1.06499e-07
3.70799e-06
-3.14442e-07
3.696e-06
-8.66118e-08
3.66613e-06
-7.77111e-08
3.66945e-06
1.17885e-07
3.66385e-06
2.69504e-07
3.66823e-06
3.65823e-07
3.6906e-06
5.03784e-07
3.70766e-06
5.36012e-07
5.21427e-07
3.72891e-06
3.94977e-06
5.84343e-07
3.96288e-06
3.33462e-07
3.93569e-06
-7.05551e-07
3.91563e-06
-2.90463e-07
3.91834e-06
1.93e-07
3.96685e-06
5.89272e-07
3.92786e-06
-5.07491e-07
3.91386e-06
-3.09084e-07
3.91976e-06
-2.68429e-08
3.92713e-06
4.55042e-08
3.91186e-06
-9.12314e-08
3.88618e-06
-2.8876e-07
3.87456e-06
-7.49952e-08
3.84478e-06
-4.79317e-08
3.84623e-06
1.16438e-07
3.84275e-06
2.72981e-07
3.84606e-06
3.62519e-07
3.86798e-06
4.81866e-07
3.88665e-06
5.17335e-07
5.01737e-07
3.90634e-06
4.13876e-06
5.67834e-07
4.1505e-06
3.21717e-07
4.12405e-06
-6.79096e-07
4.10358e-06
-2.69992e-07
4.10684e-06
1.8974e-07
4.15348e-06
5.42627e-07
4.11573e-06
-4.69738e-07
4.10115e-06
-2.94504e-07
4.10677e-06
-3.24608e-08
4.11426e-06
3.80132e-08
4.09882e-06
-7.57914e-08
4.07308e-06
-2.63025e-07
4.06219e-06
-6.40967e-08
4.03294e-06
-1.86815e-08
4.03234e-06
1.17038e-07
4.03102e-06
2.74296e-07
4.0336e-06
3.59935e-07
4.05433e-06
4.61138e-07
4.07443e-06
4.97238e-07
4.83183e-07
4.09298e-06
4.3368e-06
5.50338e-07
4.34719e-06
3.11324e-07
4.3213e-06
-6.53208e-07
4.3006e-06
-2.49286e-07
4.30472e-06
1.8562e-07
4.3491e-06
4.9824e-07
4.31243e-06
-4.33065e-07
4.29739e-06
-2.79459e-07
4.30218e-06
-3.72586e-08
4.31015e-06
3.00442e-08
4.2948e-06
-6.04357e-08
4.26905e-06
-2.37274e-07
4.25915e-06
-5.41966e-08
4.23099e-06
9.47419e-09
4.22816e-06
1.19863e-07
4.22896e-06
2.73505e-07
4.23123e-06
3.57664e-07
4.25019e-06
4.42179e-07
4.27122e-06
4.76202e-07
4.65109e-07
4.2893e-06
4.54426e-06
5.31856e-07
4.55338e-06
3.02199e-07
4.52793e-06
-6.27754e-07
4.50714e-06
-2.28496e-07
4.51231e-06
1.80449e-07
4.55416e-06
4.56386e-07
4.51843e-06
-3.9733e-07
4.50315e-06
-2.64182e-07
4.50648e-06
-4.05894e-08
4.51515e-06
2.13705e-08
4.50022e-06
-4.55028e-08
4.47443e-06
-2.11477e-07
4.46569e-06
-4.54576e-08
4.43926e-06
3.59012e-08
4.43422e-06
1.249e-07
4.43691e-06
2.70822e-07
4.43938e-06
3.55194e-07
4.45624e-06
4.25312e-07
4.47758e-06
4.54866e-07
4.46901e-07
4.49579e-06
4.76153e-06
5.12444e-07
4.7695e-06
2.94228e-07
4.74441e-06
-6.02666e-07
4.72366e-06
-2.07746e-07
4.72991e-06
1.74197e-07
4.76911e-06
4.17186e-07
4.73422e-06
-3.62435e-07
4.71901e-06
-2.48975e-07
4.72036e-06
-4.19382e-08
4.72963e-06
1.20997e-08
4.71554e-06
-3.14099e-08
4.68962e-06
-1.85561e-07
4.68202e-06
-3.78579e-08
4.65801e-06
5.99093e-08
4.65095e-06
1.31964e-07
4.65514e-06
2.66629e-07
4.6584e-06
3.51935e-07
4.6732e-06
4.10516e-07
4.69416e-06
4.33904e-07
4.28197e-07
4.71286e-06
4.98906e-06
4.92182e-07
4.99598e-06
2.87304e-07
4.97127e-06
-5.77953e-07
4.95065e-06
-1.87125e-07
4.95783e-06
1.67016e-07
4.99444e-06
3.80578e-07
4.96031e-06
-3.28303e-07
4.94552e-06
-2.34191e-07
4.94465e-06
-4.10672e-08
4.95401e-06
2.74229e-09
4.94122e-06
-1.8622e-08
4.91512e-06
-1.59455e-07
4.90842e-06
-3.11636e-08
4.88746e-06
8.08709e-08
4.87873e-06
1.40694e-07
4.88389e-06
2.61467e-07
4.88847e-06
3.47359e-07
4.90159e-06
3.97394e-07
4.9214e-06
4.14093e-07
4.08889e-07
4.94071e-06
5.22735e-06
4.7115e-07
5.2333e-06
2.81348e-07
5.20902e-06
-5.53671e-07
5.18861e-06
-1.66714e-07
5.1964e-06
1.59225e-07
5.23065e-06
3.46331e-07
5.1972e-06
-2.94856e-07
5.18316e-06
-2.2015e-07
5.1802e-06
-3.81043e-08
5.18884e-06
-5.90446e-09
5.17779e-06
-7.56303e-09
5.15151e-06
-1.33178e-07
5.14526e-06
-2.49194e-08
5.12781e-06
9.83256e-08
5.11788e-06
1.5062e-07
5.12342e-06
2.55935e-07
5.12964e-06
3.41136e-07
5.14163e-06
3.85402e-07
5.15989e-06
3.95838e-07
3.89439e-07
5.17934e-06
5.47692e-06
4.49415e-07
5.48195e-06
2.76319e-07
5.45818e-06
-5.29898e-07
5.43808e-06
-1.4661e-07
5.44603e-06
1.51271e-07
5.47829e-06
3.1407e-07
5.44545e-06
-2.62016e-07
5.43227e-06
-2.06964e-07
5.42773e-06
-3.35706e-08
5.43481e-06
-1.2979e-08
5.42574e-06
1.50233e-09
5.39948e-06
-1.0692e-07
5.39309e-06
-1.8529e-08
5.37927e-06
1.12143e-07
5.36877e-06
1.61121e-07
5.37415e-06
2.50564e-07
5.38196e-06
3.33317e-07
5.3934e-06
3.73965e-07
5.41e-06
3.79238e-07
3.70524e-07
5.42892e-06
5.73835e-06
4.27024e-07
5.74247e-06
2.72193e-07
5.71927e-06
-5.06694e-07
5.69961e-06
-1.26951e-07
5.7072e-06
1.43679e-07
5.73792e-06
2.83349e-07
5.70571e-06
-2.29799e-07
5.69324e-06
-1.94492e-07
5.68789e-06
-2.82248e-08
5.69261e-06
-1.77017e-08
5.68559e-06
8.52417e-09
5.65974e-06
-8.1066e-08
5.65258e-06
-1.13681e-08
5.64222e-06
1.22504e-07
5.63178e-06
1.71553e-07
5.63661e-06
2.45732e-07
5.6457e-06
3.24228e-07
5.65703e-06
3.62638e-07
5.67226e-06
3.64008e-07
3.52864e-07
5.68992e-06
6.0122e-06
4.04016e-07
6.01544e-06
2.68955e-07
5.99284e-06
-4.84094e-07
5.9738e-06
-1.07914e-07
5.98049e-06
1.36991e-07
6.01012e-06
2.5372e-07
5.9786e-06
-1.98278e-07
5.96653e-06
-1.82426e-07
5.9612e-06
-2.28962e-08
5.96307e-06
-1.95625e-08
5.95782e-06
1.37684e-08
5.93293e-06
-5.61766e-08
5.92454e-06
-2.98058e-09
5.91713e-06
1.29915e-07
5.90737e-06
1.81312e-07
5.91143e-06
2.4168e-07
5.9214e-06
3.1425e-07
5.93272e-06
3.51321e-07
5.94714e-06
3.49589e-07
3.36879e-07
5.96313e-06
6.29908e-06
3.80427e-07
6.30146e-06
2.66575e-07
6.27946e-06
-4.62094e-07
6.26127e-06
-8.97274e-08
6.26653e-06
1.31731e-07
6.29548e-06
2.24768e-07
6.26477e-06
-1.67566e-07
6.25266e-06
-1.70316e-07
6.2481e-06
-1.83392e-08
6.24702e-06
-1.84822e-08
6.24295e-06
1.78361e-08
6.21966e-06
-3.288e-08
6.20988e-06
6.79324e-09
6.2047e-06
1.35098e-07
6.1961e-06
1.89918e-07
6.19929e-06
2.38485e-07
6.2098e-06
3.03739e-07
6.22101e-06
3.4011e-07
6.23487e-06
3.35732e-07
3.22233e-07
6.24952e-06
6.59959e-06
3.5631e-07
6.60117e-06
2.64991e-07
6.57973e-06
-4.40652e-07
6.56266e-06
-7.26614e-08
6.56602e-06
1.28369e-07
6.59454e-06
1.96255e-07
6.5649e-06
-1.37927e-07
6.55215e-06
-1.57565e-07
6.54898e-06
-1.517e-08
6.5453e-06
-1.48025e-08
6.54161e-06
2.1528e-08
6.52051e-06
-1.17795e-08
6.50944e-06
1.78605e-08
6.5057e-06
1.38836e-07
6.49857e-06
1.97052e-07
6.50101e-06
2.36043e-07
6.51172e-06
2.93026e-07
6.52269e-06
3.29144e-07
6.53595e-06
3.22469e-07
3.0844e-07
6.54974e-06
6.91436e-06
3.31736e-07
6.91524e-06
2.64115e-07
6.89425e-06
-4.19658e-07
6.87866e-06
-5.70724e-08
6.87975e-06
1.27273e-07
6.90778e-06
1.68226e-07
6.87965e-06
-1.09796e-07
6.8657e-06
-1.43614e-07
6.86418e-06
-1.3649e-08
6.85866e-06
-9.28241e-09
6.85455e-06
2.56407e-08
6.83593e-06
6.83447e-09
6.82412e-06
2.96727e-08
6.82101e-06
1.41946e-07
6.81542e-06
2.0264e-07
6.8172e-06
2.34267e-07
6.82794e-06
2.82288e-07
6.8387e-06
3.18381e-07
6.85114e-06
3.10033e-07
2.95043e-07
6.86453e-06
7.24406e-06
3.06809e-07
7.24438e-06
2.63802e-07
7.22364e-06
-3.9892e-07
7.20994e-06
-4.33705e-08
7.20853e-06
1.28677e-07
7.23576e-06
1.40997e-07
7.20976e-06
-8.379e-08
7.19419e-06
-1.28049e-07
7.19417e-06
-1.36269e-08
7.18778e-06
-2.89829e-09
7.18263e-06
3.07969e-08
7.16647e-06
2.29907e-08
7.15464e-06
4.15098e-08
7.15176e-06
1.44816e-07
7.1475e-06
2.06903e-07
7.14861e-06
2.33157e-07
7.15891e-06
2.71988e-07
7.16974e-06
3.0755e-07
7.18119e-06
2.98588e-07
2.81928e-07
7.1943e-06
7.58939e-06
2.81649e-07
7.58929e-06
2.63896e-07
7.56855e-06
-3.78178e-07
7.55717e-06
-3.19929e-08
7.5533e-06
1.32549e-07
7.57913e-06
1.15167e-07
7.55596e-06
-6.06182e-08
7.53861e-06
-1.10705e-07
7.53952e-06
-1.45314e-08
7.53326e-06
3.35923e-09
7.52682e-06
3.72341e-08
7.51265e-06
3.71639e-08
7.50155e-06
5.26078e-08
7.49909e-06
1.47273e-07
7.49585e-06
2.10146e-07
7.49621e-06
2.32802e-07
7.50538e-06
2.62815e-07
7.51624e-06
2.96692e-07
7.52653e-06
2.88301e-07
2.69061e-07
7.53939e-06
7.95105e-06
2.56411e-07
7.95077e-06
2.64173e-07
7.92973e-06
-3.57135e-07
7.92101e-06
-2.32705e-08
7.91495e-06
1.38606e-07
7.93859e-06
9.15317e-08
7.91907e-06
-4.11068e-08
7.89996e-06
-9.15887e-08
7.90094e-06
-1.55105e-08
7.89558e-06
8.71269e-09
7.88814e-06
4.46764e-08
7.87527e-06
5.0037e-08
7.86517e-06
6.27046e-08
7.86378e-06
1.48665e-07
7.8623e-06
2.11621e-07
7.86186e-06
2.33244e-07
7.86822e-06
2.56462e-07
7.87804e-06
2.86872e-07
7.88682e-06
2.79515e-07
2.55634e-07
7.90025e-06
8.32984e-06
2.31258e-07
8.32956e-06
2.64448e-07
8.30797e-06
-3.3554e-07
8.30219e-06
-1.74979e-08
8.29442e-06
1.46383e-07
8.3149e-06
7.10471e-08
8.29976e-06
-2.59651e-08
8.27912e-06
-7.09526e-08
8.27927e-06
-1.56619e-08
8.27535e-06
1.26378e-08
8.26738e-06
5.26445e-08
8.25515e-06
6.22635e-08
8.24618e-06
7.1679e-08
8.24571e-06
1.49139e-07
8.2474e-06
2.09929e-07
8.25294e-06
2.27699e-07
8.26847e-06
2.40931e-07
8.28573e-06
2.69618e-07
8.29627e-06
2.68976e-07
2.50169e-07
8.30173e-06
8.72655e-06
2.06372e-07
8.72649e-06
2.64503e-07
8.70411e-06
-3.13159e-07
8.70138e-06
-1.47707e-08
8.69257e-06
1.55195e-07
8.70903e-06
5.45943e-08
8.69854e-06
-1.54757e-08
8.67702e-06
-4.94398e-08
8.67542e-06
-1.40622e-08
8.67322e-06
1.48427e-08
8.66554e-06
6.03275e-08
8.6535e-06
7.43007e-08
8.6455e-06
7.96758e-08
8.64684e-06
1.47804e-07
8.6507e-06
2.06072e-07
8.65567e-06
2.22727e-07
8.66772e-06
2.28876e-07
8.68346e-06
2.5388e-07
8.69418e-06
2.58259e-07
2.43852e-07
8.70049e-06
9.14204e-06
1.81947e-07
9.14226e-06
2.64281e-07
9.11905e-06
-2.89941e-07
9.11944e-06
-1.51609e-08
9.11036e-06
1.64267e-07
9.12201e-06
4.29525e-08
9.11589e-06
-9.35579e-09
9.0946e-06
-2.81566e-08
9.09048e-06
-9.94173e-09
9.08985e-06
1.54755e-08
9.08316e-06
6.70172e-08
9.07157e-06
8.58871e-08
9.06427e-06
8.69788e-08
9.06616e-06
1.45916e-07
9.07036e-06
2.0187e-07
9.07506e-06
2.18023e-07
9.08785e-06
2.16095e-07
9.10431e-06
2.37416e-07
9.11594e-06
2.46626e-07
2.39945e-07
9.11985e-06
9.5772e-06
1.5821e-07
9.57781e-06
2.63666e-07
9.55372e-06
-2.65852e-07
9.557e-06
-1.84394e-08
9.54869e-06
1.72575e-07
9.55517e-06
3.64764e-08
9.55252e-06
-6.70361e-09
9.53265e-06
-8.28555e-09
9.52569e-06
-2.98394e-09
9.52599e-06
1.51772e-08
9.52119e-06
7.18131e-08
9.51033e-06
9.67504e-08
9.50336e-06
9.39458e-08
9.50559e-06
1.43685e-07
9.50745e-06
2.00012e-07
9.50454e-06
2.20932e-07
9.50459e-06
2.16048e-07
9.51187e-06
2.30135e-07
9.52282e-06
2.35673e-07
2.27698e-07
9.53507e-06
1.00329e-05
1.35409e-07
1.00342e-05
2.62383e-07
1.00091e-05
-2.40778e-07
1.0015e-05
-2.42809e-08
1.00085e-05
1.79052e-07
1.00097e-05
3.53052e-08
1.00093e-05
-6.35131e-09
9.99203e-06
9.01355e-09
9.98224e-06
6.8105e-09
9.98249e-06
1.4921e-08
9.98e-06
7.43026e-08
9.96987e-06
1.06878e-07
9.96166e-06
1.02156e-07
9.96454e-06
1.40808e-07
9.97288e-06
1.91669e-07
9.97997e-06
2.13845e-07
9.99179e-06
2.04233e-07
1.00077e-05
2.14216e-07
1.00195e-05
2.23917e-07
2.24541e-07
1.00226e-05
1.05102e-05
1.13844e-07
1.05128e-05
2.59746e-07
1.04864e-05
-2.14319e-07
1.04941e-05
-3.20405e-08
1.04906e-05
1.82562e-07
1.04869e-05
3.90826e-08
1.04872e-05
-6.7033e-09
1.04733e-05
2.29128e-08
1.04611e-05
1.89684e-08
1.04604e-05
1.5684e-08
1.04602e-05
7.4469e-08
1.04519e-05
1.15149e-07
1.04434e-05
1.1074e-07
1.04442e-05
1.40009e-07
1.04482e-05
1.87652e-07
1.04481e-05
2.13931e-07
1.04483e-05
2.04009e-07
1.04552e-05
2.07349e-07
1.04655e-05
2.13629e-07
2.11395e-07
1.04786e-05
1.10101e-05
9.38086e-08
1.10145e-05
2.55265e-07
1.09866e-05
-1.86338e-07
1.09955e-05
-4.09909e-08
1.09958e-05
1.82216e-07
1.09877e-05
4.72624e-08
1.09875e-05
-6.52607e-09
1.09772e-05
3.31761e-08
1.09638e-05
3.24314e-08
1.09604e-05
1.9062e-08
1.0962e-05
7.28859e-08
1.09557e-05
1.21401e-07
1.09462e-05
1.20218e-07
1.0945e-05
1.41247e-07
1.09498e-05
1.82817e-07
1.09527e-05
2.11044e-07
1.09551e-05
2.0161e-07
1.09635e-05
1.98988e-07
1.09746e-05
2.02524e-07
2.01046e-07
1.09849e-05
1.15336e-05
7.55895e-08
1.15403e-05
2.48527e-07
1.15109e-05
-1.56893e-07
1.15201e-05
-5.01691e-08
1.15248e-05
1.77481e-07
1.15134e-05
5.86381e-08
1.15116e-05
-4.73585e-09
1.15045e-05
4.03254e-08
1.14909e-05
4.60559e-08
1.1484e-05
2.59379e-08
1.14861e-05
7.07453e-08
1.14821e-05
1.25408e-07
1.14729e-05
1.29405e-07
1.14705e-05
1.43647e-07
1.14761e-05
1.77234e-07
1.14815e-05
2.05682e-07
1.14844e-05
1.98714e-07
1.14913e-05
1.92069e-07
1.15018e-05
1.92049e-07
1.90804e-07
1.1512e-05
1.2082e-05
5.94275e-08
1.20912e-05
2.39341e-07
1.20607e-05
-1.26407e-07
1.20692e-05
-5.86474e-08
1.20781e-05
1.68553e-07
1.20652e-05
7.15541e-08
1.20609e-05
-4.17652e-10
1.20563e-05
4.488e-08
1.20434e-05
5.89418e-08
1.20336e-05
3.57466e-08
1.20343e-05
7.00285e-08
1.20328e-05
1.26881e-07
1.20255e-05
1.36741e-07
1.20226e-05
1.46578e-07
1.2028e-05
1.71816e-07
1.20349e-05
1.98829e-07
1.20386e-05
1.94937e-07
1.20444e-05
1.863e-07
1.20537e-05
1.82795e-07
1.81163e-07
1.20633e-05
1.26566e-05
4.54646e-08
1.26682e-05
2.277e-07
1.26375e-05
-9.56701e-08
1.26439e-05
-6.51247e-08
1.26566e-05
1.55842e-07
1.26439e-05
8.42909e-08
1.26369e-05
6.54939e-09
1.2634e-05
4.77765e-08
1.26225e-05
7.05036e-08
1.26107e-05
4.74903e-08
1.26095e-05
7.12869e-08
1.26102e-05
1.26132e-07
1.26053e-05
1.41722e-07
1.26023e-05
1.49527e-07
1.26068e-05
1.67366e-07
1.26142e-05
1.91373e-07
1.26192e-05
1.89955e-07
1.26243e-05
1.81193e-07
1.26324e-05
1.74732e-07
1.72117e-07
1.26414e-05
1.32586e-05
3.37562e-08
1.32725e-05
2.13871e-07
1.32425e-05
-6.57415e-08
1.32459e-05
-6.84403e-08
1.32616e-05
1.4008e-07
1.32506e-05
9.5332e-08
1.32412e-05
1.59127e-08
1.32391e-05
4.98904e-08
1.32294e-05
8.02175e-08
1.32168e-05
6.00592e-08
1.32136e-05
7.45433e-08
1.32154e-05
1.24281e-07
1.32128e-05
1.44287e-07
1.32104e-05
1.51979e-07
1.3214e-05
1.63781e-07
1.32214e-05
1.83951e-07
1.32273e-05
1.84063e-07
1.32325e-05
1.75967e-07
1.32397e-05
1.67595e-07
1.63755e-07
1.3248e-05
1.38897e-05
2.42467e-08
1.39052e-05
1.98315e-07
1.38772e-05
-3.77477e-08
1.38764e-05
-6.76004e-08
1.38943e-05
1.22179e-07
1.38861e-05
1.03481e-07
1.38751e-05
2.69545e-08
1.3873e-05
5.19543e-08
1.38653e-05
8.797e-08
1.38527e-05
7.26015e-08
1.38478e-05
7.94652e-08
1.385e-05
1.22106e-07
1.38496e-05
1.44661e-07
1.3848e-05
1.53622e-07
1.38508e-05
1.60923e-07
1.38578e-05
1.76992e-07
1.38642e-05
1.77662e-07
1.38699e-05
1.70318e-07
1.38765e-05
1.60955e-07
1.56385e-07
1.38839e-05
1.45511e-05
1.67969e-08
1.45678e-05
1.81678e-07
1.45426e-05
-1.2596e-08
1.45373e-05
-6.23194e-08
1.45562e-05
1.03278e-07
1.45516e-05
1.08102e-07
1.45398e-05
3.88007e-08
1.45373e-05
5.44332e-08
1.45313e-05
9.39242e-08
1.45195e-05
8.43901e-08
1.45135e-05
8.54711e-08
1.45153e-05
1.20287e-07
1.45166e-05
1.43449e-07
1.4516e-05
1.54211e-07
1.45185e-05
1.58399e-07
1.45251e-05
1.704e-07
1.45317e-05
1.71082e-07
1.45374e-05
1.64567e-07
1.45439e-05
1.54428e-07
1.49998e-07
1.45503e-05
1.52445e-05
1.1219e-08
1.52615e-05
1.6462e-07
1.52398e-05
9.13853e-09
1.52306e-05
-5.31192e-08
1.52489e-05
8.49375e-08
1.52479e-05
1.0913e-07
1.52362e-05
5.05127e-08
1.52332e-05
5.74039e-08
1.52289e-05
9.82038e-08
1.52182e-05
9.5079e-08
1.52116e-05
9.20867e-08
1.52127e-05
1.19191e-07
1.52151e-05
1.41043e-07
1.5216e-05
1.53325e-07
1.52183e-05
1.56075e-07
1.52244e-05
1.64367e-07
1.52309e-05
1.64543e-07
1.52363e-05
1.59181e-07
1.52428e-05
1.47978e-07
1.43859e-07
1.52489e-05
1.59713e-05
7.27909e-09
1.59881e-05
1.47796e-07
1.59701e-05
2.71679e-08
1.59578e-05
-4.08884e-08
1.59742e-05
6.86077e-08
1.59761e-05
1.07169e-07
1.59656e-05
6.10637e-08
1.59622e-05
6.08202e-08
1.59595e-05
1.00891e-07
1.59502e-05
1.04395e-07
1.59434e-05
9.88304e-08
1.59439e-05
1.187e-07
1.59469e-05
1.38005e-07
1.59491e-05
1.51144e-07
1.59515e-05
1.53659e-07
1.59568e-05
1.59083e-07
1.59635e-05
1.57895e-07
1.59687e-05
1.53927e-07
1.59748e-05
1.41935e-07
1.37347e-07
1.59813e-05
1.67332e-05
4.72997e-09
1.67492e-05
1.31723e-07
1.67348e-05
4.15561e-08
1.67208e-05
-2.68511e-08
1.67338e-05
5.55902e-08
1.67379e-05
1.03093e-07
1.67291e-05
6.98934e-08
1.67255e-05
6.44001e-08
1.67244e-05
1.01929e-07
1.67169e-05
1.11926e-07
1.67103e-05
1.05424e-07
1.67102e-05
1.18817e-07
1.67135e-05
1.34728e-07
1.67167e-05
1.47945e-07
1.67198e-05
1.50511e-07
1.67244e-05
1.54458e-07
1.67309e-05
1.51437e-07
1.67364e-05
1.48422e-07
1.67416e-05
1.36739e-07
1.30848e-07
1.67481e-05
1.75318e-05
3.32108e-09
1.75466e-05
1.16854e-07
1.75357e-05
5.25327e-08
1.7521e-05
-1.21572e-08
1.75301e-05
4.64811e-08
1.75355e-05
9.7685e-08
1.75284e-05
7.69479e-08
1.75248e-05
6.80017e-08
1.75254e-05
1.01392e-07
1.752e-05
1.17254e-07
1.75139e-05
1.11569e-07
1.75132e-05
1.1952e-07
1.75166e-05
1.31316e-07
1.75205e-05
1.44053e-07
1.75244e-05
1.4657e-07
1.75289e-05
1.5004e-07
1.75346e-05
1.45699e-07
1.75405e-05
1.4249e-07
1.75451e-05
1.32124e-07
1.24757e-07
1.75512e-05
1.83689e-05
2.81023e-09
1.83822e-05
1.03531e-07
1.83743e-05
6.0383e-08
1.83598e-05
2.37112e-09
1.83652e-05
4.10453e-08
1.83712e-05
9.17311e-08
1.83659e-05
8.22792e-08
1.83621e-05
7.17729e-08
1.83639e-05
9.95622e-08
1.83611e-05
1.20064e-07
1.83559e-05
1.16814e-07
1.83547e-05
1.20654e-07
1.83579e-05
1.2815e-07
1.83624e-05
1.39589e-07
1.83668e-05
1.42102e-07
1.83717e-05
1.45168e-07
1.83768e-05
1.40602e-07
1.83828e-05
1.36497e-07
1.83875e-05
1.27387e-07
1.19516e-07
1.83928e-05
1.92462e-05
2.96744e-09
1.92578e-05
9.19407e-08
1.92527e-05
6.55119e-08
1.9239e-05
1.60948e-08
1.92414e-05
3.85957e-08
1.92472e-05
8.59788e-08
1.92435e-05
8.59344e-08
1.92396e-05