/*--------------------------------*- C++ -*----------------------------------*\
| =========                 |                                                 |
| \\      /  F ield         | OpenFOAM: The Open Source CFD Toolbox           |
|  \\    /   O peration     | Version:  v1912                                 |
|   \\  /    A nd           | Website:  www.openfoam.com                      |
|    \\/     M anipulation  |                                                 |
\*---------------------------------------------------------------------------*/
FoamFile
{
    version     2.0;
    format      ascii;
    class       volScalarField;
    location    "1.1";
    object      p;
}
// * * * * * * * * * * * * * * * * * * * * * * * * * * * * * * * * * * * * * //

dimensions      [0 2 -2 0 0 0 0];


internalField   nonuniform List<scalar> 
9600
(
1.64536e-10
0.00030395
-0.00424617
-0.00163911
0.00296507
-0.000646519
-0.00203811
0.00187348
-0.000127318
-0.000771039
-0.00125554
0.000418557
0.000656607
0.000228356
0.00105282
0.00278616
0.00323014
0.00605652
0.00765539
0.0142721
3.32055e-06
0.000286341
-0.00421709
-0.0016285
0.00291351
-0.000646027
-0.0019981
0.00184366
-0.000113763
-0.000788399
-0.00124915
0.000432345
0.000644869
0.000233589
0.00105856
0.00278041
0.00324608
0.00602334
0.0076768
0.013476
5.08611e-06
0.000266205
-0.00419168
-0.00161877
0.0028702
-0.000641128
-0.00197155
0.00180591
-9.48616e-05
-0.000807202
-0.00122827
0.000450831
0.000623616
0.00025473
0.00105947
0.00277497
0.0032681
0.00597636
0.00767183
0.0128502
4.49524e-06
0.000243094
-0.00416103
-0.00160451
0.00282113
-0.000635186
-0.00194646
0.00176103
-7.62276e-05
-0.000823898
-0.00119727
0.00046752
0.000594058
0.000283215
0.00105619
0.00276571
0.00329378
0.00591116
0.00765271
0.0122243
1.96011e-06
0.000217817
-0.00412163
-0.00158809
0.0027633
-0.000624649
-0.00192032
0.00170666
-5.66486e-05
-0.000839544
-0.00115992
0.000477993
0.000557911
0.00031434
0.00105327
0.00275225
0.00331975
0.00583366
0.00761439
0.0116407
-2.19696e-06
0.000191522
-0.00407271
-0.00157368
0.00269899
-0.00060923
-0.0018933
0.00164452
-3.45494e-05
-0.000855148
-0.00112013
0.000482316
0.000520614
0.000346296
0.00105409
0.00273417
0.00334615
0.00574638
0.00755608
0.0110789
-7.60986e-06
0.000164986
-0.0040152
-0.00156268
0.0026305
-0.000590286
-0.00186531
0.0015775
-9.96683e-06
-0.00087097
-0.00108027
0.000483659
0.000484854
0.000377588
0.00105942
0.00271213
0.00337194
0.00565012
0.00747505
0.0105406
-1.38853e-05
0.000138405
-0.00395105
-0.00155501
0.00255951
-0.000569592
-0.0018365
0.00150765
1.67494e-05
-0.000887019
-0.00104133
0.000484256
0.000450998
0.000407194
0.00106881
0.00268661
0.00339512
0.00554584
0.00736996
0.0100269
-2.07011e-05
0.000111589
-0.00388236
-0.00154996
0.00248689
-0.000548684
-0.00180707
0.00143612
4.53937e-05
-0.000903268
-0.00100377
0.000484884
0.000419254
0.000434514
0.00108128
0.00265812
0.00341379
0.00543473
0.00724049
0.00953669
-2.78302e-05
8.42169e-05
-0.00381077
-0.0015466
0.0024128
-0.000528486
-0.00177708
0.00136342
7.57355e-05
-0.000919665
-0.000967925
0.000485878
0.000389834
0.000459122
0.00109582
0.00262735
0.00342609
0.00531755
0.0070873
0.00906699
-3.51229e-05
5.5996e-05
-0.00373722
-0.00154414
0.00233713
-0.000509312
-0.00174655
0.00128965
0.000107437
-0.00093611
-0.00093404
0.000487473
0.000362672
0.000480941
0.00111134
0.00259481
0.00343047
0.00519468
0.00691171
0.00861414
-4.24766e-05
2.6721e-05
-0.00366218
-0.00154202
0.00225982
-0.000491065
-0.00171547
0.00121479
0.000140113
-0.000952462
-0.000902317
0.000489785
0.000337482
0.000500166
0.00112658
0.00256079
0.00342597
0.00506613
0.00671561
0.00817465
-4.98092e-05
-3.73007e-06
-0.00358581
-0.00153985
0.00218094
-0.000473473
-0.00168389
0.00113883
0.000173402
-0.000968503
-0.000873009
0.000492864
0.000313838
0.000517036
0.0011405
0.00252548
0.00341205
0.0049313
0.00650155
0.00774599
-5.70473e-05
-3.5417e-05
-0.00350819
-0.00153737
0.00210064
-0.000456267
-0.0016519
0.00106184
0.000206996
-0.000983939
-0.000846506
0.000496832
0.000291296
0.00053179
0.00115227
0.00248865
0.00338862
0.00478929
0.00627231
0.00732696
-6.41288e-05
-6.83592e-05
-0.00342936
-0.00153442
0.00201905
-0.000439272
-0.00161963
0.000983927
0.000240603
-0.000998437
-0.000823264
0.000501974
0.000269353
0.000544574
0.00116126
0.00244954
0.00335627
0.00463883
0.00603064
0.00691792
-7.10064e-05
-0.000102549
-0.00334939
-0.00153091
0.00193626
-0.000422423
-0.00158726
0.00090522
0.0002739
-0.00101166
-0.000803721
0.00050864
0.000247494
0.000555411
0.00116721
0.00240677
0.00331621
0.00447853
0.00577965
0.00651962
-7.76517e-05
-0.000137957
-0.00326838
-0.00152688
0.00185227
-0.000405723
-0.00155498
0.000825897
0.00030652
-0.00102327
-0.000788355
0.000517172
0.000225341
0.000564013
0.00117048
0.00235838
0.00326957
0.00430817
0.0055183
0.00613342
-8.40546e-05
-0.000174536
-0.00318647
-0.00152237
0.00176704
-0.000389213
-0.00152303
0.000746178
0.000338058
-0.00103287
-0.000777693
0.00052785
0.000202667
0.000569775
0.00117189
0.00230223
0.00321691
0.00412895
0.00524584
0.0057605
-9.02184e-05
-0.000212226
-0.00310385
-0.00151746
0.00168053
-0.000372931
-0.00149163
0.000666305
0.000368068
-0.00104009
-0.000772217
0.000540786
0.000179451
0.00057185
0.00117254
0.00223631
0.00315788
0.00394339
0.00496027
0.00540096
-9.61569e-05
-0.000250948
-0.00302077
-0.00151216
0.00159266
-0.000356866
-0.00146101
0.000586519
0.000396094
-0.00104459
-0.000772338
0.000555956
0.000155951
0.000568804
0.00117405
0.00215958
0.00309104
0.00375507
0.00465986
0.00505331
-0.000101895
-0.000290596
-0.00293747
-0.00150644
0.00150336
-0.000340938
-0.00143136
0.000507007
0.000421732
-0.00104608
-0.000778391
0.000573165
0.000132826
0.00055879
0.00117775
0.00207228
0.00301362
0.00356791
0.00434484
0.0047145
-0.000107465
-0.000331046
-0.00285426
-0.00150023
0.00141255
-0.000325023
-0.00140284
0.000427911
0.000444575
-0.00104428
-0.000790609
0.0005919
0.000111163
0.000539896
0.00118396
0.00197569
0.00292182
0.00338566
0.00401781
0.00437941
-0.000112916
-0.000372141
-0.00277144
-0.00149342
0.00132014
-0.000309009
-0.00137553
0.000349364
0.000464221
-0.00103898
-0.000809137
0.000611314
9.2285e-05
0.000510328
0.00119209
0.00187231
0.0028118
0.00321103
0.00368336
0.00404125
-0.000118312
-0.000413699
-0.00268938
-0.00148582
0.00122605
-0.000292813
-0.00134953
0.000271417
0.000480429
-0.0010301
-0.000833943
0.000630462
7.75656e-05
0.000468649
0.00120306
0.00176564
0.00268043
0.00304443
0.00334767
0.00369306
-0.000123727
-0.00045551
-0.00260843
-0.00147725
0.00113017
-0.000276423
-0.00132481
0.000194053
0.000492997
-0.00101775
-0.000864717
0.000648247
6.83094e-05
0.000414014
0.00120994
0.00165963
0.00252591
0.00288476
0.00301896
0.00332994
-0.000129261
-0.000497321
-0.00252901
-0.0014675
0.00103244
-0.000259889
-0.00130125
0.000117156
0.000501722
-0.00100205
-0.000900989
0.00066315
6.57566e-05
0.000346207
0.00121088
0.00155833
0.00234781
0.00272465
0.00270651
0.00295078
-0.000135037
-0.000538856
-0.00245154
-0.00145639
0.000932859
-0.00024329
-0.00127872
4.04508e-05
0.000506627
-0.000983027
-0.000942445
0.000673479
7.10701e-05
0.000265362
0.00120219
0.00146581
0.0021479
0.00255805
0.00241876
0.0025596
-0.000141192
-0.000579823
-0.00237647
-0.00144372
0.00083149
-0.000226845
-0.00125692
-3.64423e-05
0.000507787
-0.00096072
-0.000988796
0.000677613
8.50041e-05
0.00017248
0.00117947
0.00138511
0.00192987
0.00237703
0.00216125
0.00216646
-0.000147895
-0.000619866
-0.00230429
-0.00142937
0.0007285
-0.000210853
-0.00123532
-0.000113987
0.000505073
-0.000935143
-0.00103955
0.000673816
0.000107872
6.95769e-05
0.00113838
0.00131765
0.00170171
0.00217381
0.00193415
0.00178556
-0.000155343
-0.000658589
-0.00223543
-0.00141329
0.000624125
-0.000195717
-0.00121332
-0.000192749
0.000498258
-0.000906189
-0.00109428
0.000660295
0.00013984
-4.08749e-05
0.00107481
0.00126429
0.00147069
0.00194254
0.00173044
0.00143315
-0.000163753
-0.000695569
-0.00217033
-0.00139542
0.000518774
-0.000182127
-0.0011902
-0.000273256
0.000486881
-0.000873609
-0.00115247
0.000635223
0.000180686
-0.000155942
0.000985354
0.00122004
0.00124602
0.00168156
0.00153857
0.00112514
-0.000173365
-0.000730361
-0.00210938
-0.00137593
0.000412999
-0.00017084
-0.00116504
-0.000355723
0.000470177
-0.000837134
-0.00121344
0.000596498
0.000229478
-0.000271955
0.00086771
0.00118176
0.00103652
0.001394
0.00134307
0.000869659
-0.000184434
-0.00076254
-0.00205291
-0.00135508
0.000307478
-0.000162669
-0.00113692
-0.000440059
0.000447071
-0.000796715
-0.00127621
0.000542209
0.000284606
-0.000384466
0.000720234
0.00114339
0.000850132
0.00108751
0.00112818
0.000660882
-0.00019725
-0.000791651
-0.00200121
-0.0013332
0.000203217
-0.000158852
-0.00110518
-0.000525543
0.000416031
-0.000752574
-0.00133921
0.000470685
0.00034339
-0.000488436
0.000542711
0.0010971
0.000692378
0.000772206
0.000883712
0.000483547
-0.000212097
-0.000817272
-0.0019544
-0.00131091
0.000101346
-0.000160651
-0.00106929
-0.000610872
0.000375162
-0.000705204
-0.00140057
0.000380326
0.000402198
-0.000578443
0.000336959
0.00103417
0.000565649
0.00045916
0.000607089
0.000318049
-0.000229247
-0.000839056
-0.00191241
-0.00128904
3.18037e-06
-0.000169088
-0.00102935
-0.00069433
0.000322757
-0.000655847
-0.00145828
0.00027043
0.000456652
-0.00064944
0.000106591
0.000945636
0.000469588
0.00015981
0.000301562
0.000144199
-0.000248988
-0.000856654
-0.00187509
-0.00126861
-8.96255e-05
-0.000184978
-0.000986619
-0.000773604
0.000257844
-0.000606657
-0.00150998
0.000141388
0.000501305
-0.000697443
-0.000142467
0.000822543
0.000400429
-0.000114246
-2.66189e-05
-5.25521e-05
-0.000271561
-0.000869856
-0.001842
-0.00125096
-0.000175709
-0.000208813
-0.000942969
-0.000846387
0.000180329
-0.000560357
-0.00155356
-5.42209e-06
0.000530287
-0.000720266
-0.000401862
0.000657389
0.000350296
-0.000351396
-0.000368986
-0.000280461
-0.00029716
-0.000878635
-0.0018122
-0.00123754
-0.00025443
-0.000240558
-0.000898457
-0.000910749
9.08396e-05
-0.000520033
-0.00158734
-0.00016725
0.000537834
-0.000718416
-0.000661471
0.000446356
0.000306803
-0.000540903
-0.000713567
-0.000543516
-0.000325898
-0.000883195
-0.00178436
-0.00122977
-0.00032608
-0.000281092
-0.000859118
-0.000965436
-8.93021e-06
-0.000488715
-0.0016104
-0.000340451
0.000518867
-0.00069523
-0.000909924
0.000190487
0.000253527
-0.000676697
-0.00104499
-0.000842596
-0.000357815
-0.000883926
-0.00175689
-0.00122903
-0.00039181
-0.000323097
-0.000825123
-0.00101001
-0.000116518
-0.000469151
-0.00162307
-0.000520718
0.000469726
-0.000656583
-0.00113614
-0.000103948
0.000172617
-0.000761792
-0.00134443
-0.001173
-0.000392856
-0.000881424
-0.00172815
-0.00123623
-0.000453354
-0.00036669
-0.000798566
-0.00104126
-0.000228893
-0.000463317
-0.00162646
-0.000703763
0.000387807
-0.000610149
-0.0013303
-0.000426588
4.85779e-05
-0.000808475
-0.00159174
-0.00152032
-0.000430866
-0.000876471
-0.00169673
-0.00125154
-0.000512767
-0.000410626
-0.00078045
-0.00106767
-0.000343156
-0.000471917
-0.00162203
-0.000885968
0.000271672
-0.000564414
-0.00148494
-0.00076435
-0.000128292
-0.000835579
-0.00177312
-0.0018623
-0.000471552
-0.0008694
-0.00166156
-0.00127402
-0.000572544
-0.000453978
-0.000770668
-0.0010897
-0.00045707
-0.000494857
-0.00161146
-0.00106402
0.000122017
-0.000528314
-0.00159662
-0.00110241
-0.000359645
-0.000866631
-0.00188913
-0.00217195
-0.000514517
-0.00086372
-0.00162183
-0.00130182
-0.000635382
-0.000496591
-0.000768654
-0.00110993
-0.000569183
-0.000531226
-0.00159654
-0.00123502
-5.84962e-05
-0.000510961
-0.00166655
-0.00142462
-0.000639459
-0.000924075
-0.00195367
-0.00242539
-0.000559324
-0.00085935
-0.00157713
-0.00133274
-0.000703538
-0.000539035
-0.000773363
-0.00113056
-0.000678705
-0.000579917
-0.00157864
-0.00139594
-0.00026546
-0.000521198
-0.00170095
-0.00171509
-0.000955576
-0.00102378
-0.0019858
-0.00261362
-0.000605318
-0.000857392
-0.00152787
-0.00136418
-0.000778479
-0.000583113
-0.000783286
-0.00115309
-0.000786603
-0.000640478
-0.00155886
-0.00154297
-0.000492738
-0.000566346
-0.00170982
-0.00196182
-0.00129251
-0.00117333
-0.00200659
-0.00274228
-0.000651667
-0.000859011
-0.0014755
-0.00139314
-0.000860616
-0.000631355
-0.000796922
-0.00117786
-0.000894611
-0.000712802
-0.00153905
-0.00167172
-0.000733085
-0.000650879
-0.00170625
-0.00215937
-0.00163224
-0.00137307
-0.00203518
-0.00282232
-0.000697492
-0.000865128
-0.0014222
-0.00141695
-0.000948959
-0.000686807
-0.000813534
-0.00120462
-0.00100376
-0.000797643
-0.00152234
-0.00177852
-0.000977646
-0.000775192
-0.00170498
-0.00230939
-0.00195632
-0.00161633
-0.00208893
-0.00286665
-0.00074196
-0.0008763
-0.00137058
-0.00143347
-0.00104127
-0.000752697
-0.000833727
-0.00123081
-0.00111355
-0.000896616
-0.00151285
-0.0018623
-0.00121601
-0.000934456
-0.00172042
-0.00241975
-0.00224897
-0.00188853
-0.00218118
-0.00289329
-0.000784526
-0.000892804
-0.00131987
-0.00144131
-0.00113435
-0.000832206
-0.000858923
-0.00125273
-0.00122282
-0.00101068
-0.00151631
-0.00192609
-0.00143831
-0.00112014
-0.00176196
-0.00250269
-0.0025026
-0.00217157
-0.00231441
-0.00292359
-0.000824837
-0.000914271
-0.00127987
-0.00144016
-0.00122406
-0.000926026
-0.000893634
-0.00126919
-0.00132635
-0.00113814
-0.00153973
-0.00197469
-0.00163833
-0.00132123
-0.00183101
-0.00257181
-0.00271955
-0.00245109
-0.00247959
-0.00297234
-0.000862633
-0.000940062
-0.00124996
-0.00143166
-0.00130615
-0.00103324
-0.000944547
-0.00128185
-0.00141675
-0.00127544
-0.00158811
-0.00201615
-0.00181451
-0.00152709
-0.00192455
-0.00263548
-0.00290353
-0.00272062
-0.0026672
-0.00304187
-0.000897866
-0.00096929
-0.00123133
-0.00141914
-0.00137724
-0.00114978
-0.00101588
-0.0012948
-0.00149058
-0.00141491
-0.00166169
-0.00206168
-0.00196871
-0.00172886
-0.00203893
-0.00269922
-0.00305567
-0.00297466
-0.00287357
-0.00312911
-0.000930822
-0.0010007
-0.00122444
-0.00140698
-0.00143535
-0.00126873
-0.0011083
-0.00131674
-0.0015493
-0.0015461
-0.00175597
-0.00212029
-0.00210649
-0.00192098
-0.00216816
-0.00276986
-0.00317968
-0.00320356
-0.00309503
-0.00323473
-0.000962137
-0.00103318
-0.00122928
-0.00139985
-0.0014807
-0.00138263
-0.00121994
-0.00135618
-0.00159592
-0.00166334
-0.00186326
-0.00219427
-0.0022374
-0.00210288
-0.00230411
-0.00284991
-0.00328494
-0.00339944
-0.00332174
-0.00336323
-0.000992654
-0.00106594
-0.00124429
-0.00140074
-0.00151566
-0.00148624
-0.00134549
-0.00141791
-0.00163768
-0.00176487
-0.00197412
-0.00228095
-0.00236744
-0.00227875
-0.00244264
-0.00293579
-0.00338092
-0.00356276
-0.00354034
-0.00351759
-0.0010232
-0.00109858
-0.0012673
-0.00141141
-0.00154495
-0.00157678
-0.00147635
-0.00150239
-0.00168535
-0.00185183
-0.00208121
-0.00237644
-0.00249656
-0.0024524
-0.00258563
-0.00302406
-0.00347114
-0.0036994
-0.00373827
-0.00369431
-0.00105456
-0.00113105
-0.00129589
-0.00143235
-0.00157391
-0.00165436
-0.00160393
-0.0016067
-0.00174733
-0.00192853
-0.00217974
-0.00247558
-0.00262441
-0.00262255
-0.00273613
-0.00311643
-0.0035561
-0.00381628
-0.00390616
-0.00387888
-0.00108736
-0.00116371
-0.00132802
-0.00146302
-0.00160668
-0.00172075
-0.00172273
-0.00172521
-0.00182692
-0.00200336
-0.00226921
-0.00257248
-0.00275003
-0.00278716
-0.00289249
-0.00321731
-0.00363777
-0.00392096
-0.00404299
-0.00404997
-0.00112202
-0.0011971
-0.00136248
-0.001502
-0.0016455
-0.00178006
-0.0018305
-0.00184982
-0.00192355
-0.00208367
-0.00235171
-0.00266294
-0.00287035
-0.00294606
-0.00305123
-0.00332714
-0.00371856
-0.00401932
-0.00415911
-0.00419317
-0.00115863
-0.00123199
-0.00139864
-0.001547
-0.00169136
-0.00183706
-0.00192752
-0.00197291
-0.00203437
-0.00217402
-0.00243222
-0.00274737
-0.00298117
-0.00309662
-0.00321106
-0.00344521
-0.00379878
-0.004112
-0.00426661
-0.00431117
-0.00119722
-0.00126912
-0.00143641
-0.00159583
-0.00174406
-0.00189565
-0.00201548
-0.00208963
-0.00215414
-0.00227626
-0.00251507
-0.00282744
-0.00308225
-0.0032333
-0.00336795
-0.00357354
-0.00388025
-0.00419513
-0.00436936
-0.00441558
-0.00123768
-0.00130889
-0.00147622
-0.00164687
-0.00180257
-0.00195798
-0.00209765
-0.0021985
-0.00227576
-0.00238879
-0.00260414
-0.00290501
-0.00317648
-0.00335467
-0.00351243
-0.00370992
-0.00397032
-0.00426828
-0.00446328
-0.00451298
-0.00127992
-0.00135139
-0.00151856
-0.00169929
-0.0018655
-0.00202482
-0.00217748
-0.00230052
-0.0023942
-0.00250761
-0.00270206
-0.00298247
-0.00326404
-0.0034662
-0.00363866
-0.00384202
-0.00407348
-0.00433851
-0.0045449
-0.00460316
-0.00132393
-0.00139663
-0.00156378
-0.00175288
-0.00193127
-0.00209627
-0.00225728
-0.00239671
-0.00250771
-0.00262761
-0.0028074
-0.00306421
-0.00334412
-0.00356936
-0.00375214
-0.00395829
-0.00418102
-0.00441363
-0.00461639
-0.00468526
-0.00136964
-0.00144438
-0.00161215
-0.00180782
-0.00199833
-0.00217152
-0.00233909
-0.00248886
-0.0026157
-0.00274513
-0.00291579
-0.00315277
-0.00342017
-0.00366005
-0.00385791
-0.00405954
-0.00427997
-0.00449263
-0.00468123
-0.00475899
-0.00141705
-0.00149419
-0.00166353
-0.00186459
-0.00206618
-0.00224915
-0.00242337
-0.00257984
-0.002719
-0.00285852
-0.00302343
-0.00324504
-0.00349781
-0.00373773
-0.00395151
-0.00415218
-0.00436472
-0.0045673
-0.00473939
-0.00482205
-0.00146609
-0.00154586
-0.00171757
-0.00192319
-0.00213486
-0.00232873
-0.00250964
-0.00267095
-0.00281899
-0.00296784
-0.00312917
-0.00333648
-0.00357704
-0.00380769
-0.00402701
-0.00423447
-0.00443781
-0.00463174
-0.00478974
-0.00487122
-0.00151655
-0.00159909
-0.00177391
-0.00198381
-0.00220418
-0.00240938
-0.00259823
-0.00276312
-0.00291674
-0.00307286
-0.00323288
-0.00342576
-0.00365342
-0.00387476
-0.00408629
-0.00429839
-0.00449846
-0.00468286
-0.00483033
-0.00490466
-0.00156824
-0.00165338
-0.00183169
-0.00204638
-0.00227499
-0.00249059
-0.00268805
-0.00285756
-0.00301466
-0.00317401
-0.00333347
-0.00351348
-0.00372313
-0.0039365
-0.00413551
-0.00433965
-0.00453957
-0.00471553
-0.00485518
-0.00492108
-0.00162075
-0.00170837
-0.00189041
-0.00211029
-0.00234706
-0.00257317
-0.002779
-0.00295372
-0.00311477
-0.00327441
-0.0034312
-0.0036013
-0.00378758
-0.00398555
-0.0041736
-0.00435887
-0.00455172
-0.00472114
-0.00485306
-0.00491312
-0.00167341
-0.00176334
-0.00194976
-0.00217558
-0.00241993
-0.00265643
-0.00287218
-0.00305295
-0.00321761
-0.003378
-0.00352933
-0.00368994
-0.00385305
-0.00402101
-0.00419256
-0.00435363
-0.00452497
-0.00468476
-0.00480661
-0.00486249
-0.00172524
-0.00181774
-0.00200932
-0.00224123
-0.00249373
-0.00274037
-0.00296699
-0.00315694
-0.00332555
-0.00348828
-0.00363529
-0.00378383
-0.00392806
-0.0040532
-0.00418597
-0.00431296
-0.00444143
-0.00457847
-0.00468659
-0.00473847
-0.0017747
-0.00187125
-0.00206872
-0.00230581
-0.00256689
-0.00282502
-0.00306387
-0.00326684
-0.00344137
-0.00360614
-0.00375296
-0.00388932
-0.00402271
-0.00411608
-0.00418825
-0.0042446
-0.00427871
-0.00432358
-0.00436454
-0.00438555
-0.00182187
-0.00192323
-0.00212515
-0.00236846
-0.00263825
-0.00290846
-0.0031627
-0.00338483
-0.00357245
-0.00374107
-0.00388224
-0.0039939
-0.00410955
-0.0041974
-0.00424871
-0.00427032
-0.00418891
-0.00399795
-0.00376454
-0.00357901
-0.00186704
-0.00197118
-0.00217772
-0.00242815
-0.00270735
-0.00298882
-0.0032561
-0.00350116
-0.00372448
-0.00394153
-0.00413356
-0.00423157
-0.00422411
-0.0040995
-0.00386778
-0.00363966
-0.00344839
-0.00329843
-0.00321709
-0.00323488
-0.00190732
-0.00201274
-0.00222533
-0.00248484
-0.0027762
-0.00307164
-0.00334937
-0.00359602
-0.00379258
-0.00394368
-0.00407663
-0.00415355
-0.00418217
-0.00419546
-0.00411642
-0.00393162
-0.00368429
-0.00342269
-0.003223
-0.00315241
-0.0019406
-0.00204712
-0.00226238
-0.00252666
-0.00282505
-0.00313186
-0.00342622
-0.0036968
-0.00393332
-0.0041203
-0.00424687
-0.00425888
-0.00411453
-0.00389971
-0.00365741
-0.00340464
-0.00320234
-0.0030753
-0.0030356
-0.00309798
-0.00196794
-0.00207969
-0.00230279
-0.00257594
-0.00288379
-0.00320028
-0.00350196
-0.00377306
-0.00399783
-0.00416038
-0.00426411
-0.00428092
-0.00415547
-0.00391881
-0.00366009
-0.00341648
-0.00323004
-0.00312587
-0.00311195
-0.00319944
0.0165571
0.00908615
-3.68095e-05
-0.00657876
-0.00866349
-0.00812912
-0.00740576
-0.00728382
-0.00748752
-0.00749203
-0.00719203
-0.00689163
-0.0068153
-0.00685609
-0.00696785
-0.00723072
-0.00742296
-0.00736311
-0.00731137
-0.00742752
-0.00756239
-0.00766138
-0.00774947
-0.00783276
-0.00799295
-0.00822597
-0.00839986
-0.00848501
-0.00856823
-0.00868813
-0.00881551
-0.00892912
-0.00904607
-0.00918929
-0.00933621
-0.00946532
-0.00958217
-0.0096994
-0.00984628
-0.0100212
-0.0102001
-0.0103938
-0.0106029
-0.0108001
-0.0109727
-0.0111292
-0.0112926
-0.0114567
-0.0115992
-0.0117502
-0.0119278
-0.0121157
-0.0123135
-0.0125293
-0.0127372
-0.0129248
-0.0131224
-0.0133198
-0.0135161
-0.0137207
-0.0139329
-0.0141449
-0.0143562
-0.0145692
-0.0147759
-0.0149881
-0.0152204
-0.015452
-0.0156891
-0.0159273
-0.0161611
-0.0163972
-0.0166322
-0.0168781
-0.0171326
-0.0173972
-0.0176714
-0.0179204
-0.0181685
-0.0184364
-0.0186852
-0.0189609
-0.0192466
-0.0195065
-0.0197846
-0.0200801
-0.020337
-0.0206106
-0.0209161
-0.0212009
-0.0214795
-0.0217713
-0.0220751
-0.0223581
-0.0226523
-0.0229454
-0.0232434
-0.0235168
-0.0238272
-0.024163
0.0156912
0.0089445
5.21987e-05
-0.00643132
-0.00857148
-0.00808279
-0.00737798
-0.00726684
-0.00747702
-0.00748469
-0.00718567
-0.00688531
-0.0068092
-0.00685028
-0.0069623
-0.00722609
-0.00741949
-0.00735989
-0.00730807
-0.0074246
-0.00755987
-0.00765909
-0.00774743
-0.00783078
-0.007991
-0.00822426
-0.00839838
-0.00848357
-0.00856677
-0.00868673
-0.00881419
-0.00892788
-0.00904486
-0.00918814
-0.00933515
-0.00946433
-0.00958123
-0.0096985
-0.0098454
-0.0100203
-0.0101993
-0.0103931
-0.0106022
-0.0107995
-0.0109721
-0.0111286
-0.0112921
-0.0114562
-0.0115988
-0.0117497
-0.0119274
-0.0121152
-0.0123131
-0.0125289
-0.0127368
-0.0129245
-0.0131221
-0.0133195
-0.0135157
-0.0137204
-0.0139327
-0.0141446
-0.0143559
-0.0145689
-0.0147756
-0.0149879
-0.0152201
-0.0154517
-0.0156889
-0.0159271
-0.0161609
-0.016397
-0.0166321
-0.0168779
-0.0171324
-0.0173971
-0.0176712
-0.0179203
-0.0181684
-0.0184362
-0.0186851
-0.0189608
-0.0192465
-0.0195064
-0.0197845
-0.02008
-0.0203369
-0.0206105
-0.020916
-0.0212009
-0.0214794
-0.0217712
-0.0220751
-0.0223581
-0.0226523
-0.0229454
-0.0232433
-0.0235168
-0.0238272
-0.024163
0.0149657
0.0088273
0.000237353
-0.00616608
-0.00842687
-0.00803004
-0.00734885
-0.00724359
-0.00745934
-0.00747228
-0.00717721
-0.00687937
-0.0068046
-0.00684583
-0.00695741
-0.00722157
-0.00741585
-0.00735663
-0.00730503
-0.007422
-0.00755752
-0.00765691
-0.00774554
-0.00782904
-0.00798938
-0.0082229
-0.00839719
-0.00848237
-0.00856558
-0.00868559
-0.00881311
-0.00892683
-0.00904385
-0.0091872
-0.00933429
-0.0094635
-0.00958045
-0.00969773
-0.00984465
-0.0100197
-0.0101987
-0.0103925
-0.0106016
-0.0107989
-0.0109717
-0.0111281
-0.0112916
-0.0114558
-0.0115984
-0.0117493
-0.011927
-0.0121149
-0.0123127
-0.0125286
-0.0127366
-0.0129242
-0.0131218
-0.0133192
-0.0135155
-0.0137202
-0.0139324
-0.0141444
-0.0143557
-0.0145687
-0.0147754
-0.0149877
-0.0152199
-0.0154516
-0.0156888
-0.0159269
-0.0161607
-0.0163968
-0.0166319
-0.0168777
-0.0171323
-0.017397
-0.0176711
-0.0179202
-0.0181682
-0.0184361
-0.018685
-0.0189607
-0.0192464
-0.0195063
-0.0197845
-0.0200799
-0.0203368
-0.0206105
-0.020916
-0.0212009
-0.0214794
-0.0217712
-0.022075
-0.0223581
-0.0226523
-0.0229453
-0.0232433
-0.0235167
-0.0238272
-0.024163
0.0142643
0.00869336
0.00045062
-0.00584379
-0.00823127
-0.00795272
-0.00730264
-0.00720444
-0.00742692
-0.00744821
-0.00716209
-0.00687118
-0.00680006
-0.00684194
-0.00695221
-0.00721514
-0.00740983
-0.00735213
-0.00730186
-0.00741914
-0.00755422
-0.00765357
-0.00774284
-0.00782692
-0.00798753
-0.00822126
-0.00839572
-0.00848108
-0.0085644
-0.0086844
-0.0088119
-0.00892569
-0.0090428
-0.00918622
-0.00933334
-0.00946257
-0.00957957
-0.00969687
-0.00984381
-0.0100189
-0.0101979
-0.0103918
-0.010601
-0.0107984
-0.0109711
-0.0111276
-0.0112911
-0.0114554
-0.0115979
-0.0117488
-0.0119266
-0.0121145
-0.0123124
-0.0125283
-0.0127362
-0.0129239
-0.0131215
-0.0133189
-0.0135152
-0.0137199
-0.0139322
-0.0141442
-0.0143555
-0.0145685
-0.0147752
-0.0149875
-0.0152198
-0.0154514
-0.0156886
-0.0159267
-0.0161606
-0.0163967
-0.0166318
-0.0168776
-0.0171322
-0.0173968
-0.017671
-0.0179201
-0.0181681
-0.018436
-0.0186849
-0.0189606
-0.0192464
-0.0195062
-0.0197844
-0.0200799
-0.0203368
-0.0206104
-0.0209159
-0.0212008
-0.0214794
-0.0217712
-0.022075
-0.022358
-0.0226522
-0.0229453
-0.0232433
-0.0235167
-0.0238271
-0.0241631
0.0135576
0.00852731
0.000664549
-0.00550489
-0.00801424
-0.00786336
-0.00724792
-0.00715367
-0.00738039
-0.00741128
-0.00713845
-0.006859
-0.00679437
-0.00683826
-0.0069467
-0.00720619
-0.00740017
-0.00734557
-0.00729853
-0.00741627
-0.00755005
-0.00764875
-0.00773882
-0.00782403
-0.00798508
-0.0082188
-0.00839353
-0.00847948
-0.00856315
-0.00868305
-0.00881043
-0.00892436
-0.0090417
-0.00918519
-0.00933224
-0.00946144
-0.0095785
-0.00969585
-0.0098428
-0.0100179
-0.010197
-0.010391
-0.0106003
-0.0107978
-0.0109705
-0.011127
-0.0112905
-0.0114549
-0.0115974
-0.0117483
-0.0119261
-0.012114
-0.0123119
-0.0125279
-0.0127359
-0.0129235
-0.0131212
-0.0133186
-0.0135149
-0.0137196
-0.0139319
-0.0141439
-0.0143552
-0.0145683
-0.014775
-0.0149872
-0.0152195
-0.0154512
-0.0156884
-0.0159265
-0.0161604
-0.0163965
-0.0166316
-0.0168774
-0.017132
-0.0173967
-0.0176709
-0.01792
-0.018168
-0.0184359
-0.0186848
-0.0189605
-0.0192463
-0.0195061
-0.0197843
-0.0200798
-0.0203367
-0.0206103
-0.0209159
-0.0212008
-0.0214793
-0.0217711
-0.022075
-0.022358
-0.0226522
-0.0229453
-0.0232432
-0.0235167
-0.0238271
-0.0241632
0.0128449
0.00833231
0.000873414
-0.0051615
-0.00778601
-0.00776896
-0.00719206
-0.00709879
-0.00732627
-0.00736588
-0.00710821
-0.00684305
-0.00678703
-0.00683423
-0.00694066
-0.00719469
-0.0073868
-0.00733675
-0.00729485
-0.00741348
-0.00754532
-0.00764279
-0.00773374
-0.00782051
-0.00798184
-0.00821497
-0.00839004
-0.00847731
-0.00856177
-0.00868145
-0.00880851
-0.00892273
-0.00904055
-0.00918418
-0.00933103
-0.00946011
-0.00957727
-0.00969467
-0.00984157
-0.0100167
-0.0101959
-0.01039
-0.0105994
-0.010797
-0.0109698
-0.0111263
-0.0112898
-0.0114542
-0.0115968
-0.0117477
-0.0119255
-0.0121135
-0.0123114
-0.0125275
-0.0127355
-0.0129231
-0.0131208
-0.0133182
-0.0135145
-0.0137192
-0.0139316
-0.0141436
-0.014355
-0.014568
-0.0147747
-0.014987
-0.0152193
-0.0154509
-0.0156881
-0.0159263
-0.0161602
-0.0163963
-0.0166314
-0.0168772
-0.0171318
-0.0173965
-0.0176707
-0.0179198
-0.0181678
-0.0184358
-0.0186846
-0.0189604
-0.0192462
-0.019506
-0.0197842
-0.0200797
-0.0203366
-0.0206102
-0.0209158
-0.0212007
-0.0214792
-0.0217711
-0.0220749
-0.0223579
-0.0226521
-0.0229453
-0.0232432
-0.0235167
-0.0238271
-0.0241634
0.0121349
0.00811317
0.00107262
-0.00481813
-0.00754807
-0.00766966
-0.00713621
-0.00704253
-0.00726836
-0.00731581
-0.00707383
-0.00682428
-0.00677806
-0.00682944
-0.00693382
-0.00718123
-0.00737078
-0.00732619
-0.00729061
-0.00741045
-0.0075402
-0.00763628
-0.00772833
-0.00781698
-0.0079781
-0.00820962
-0.00838483
-0.00847418
-0.00856006
-0.00867947
-0.00880599
-0.00892059
-0.0090392
-0.00918311
-0.00932973
-0.00945867
-0.00957597
-0.00969343
-0.00984015
-0.0100152
-0.0101945
-0.0103887
-0.0105982
-0.0107959
-0.0109688
-0.0111255
-0.011289
-0.0114534
-0.011596
-0.0117469
-0.0119247
-0.0121128
-0.0123108
-0.0125269
-0.012735
-0.0129226
-0.0131204
-0.0133178
-0.0135141
-0.0137188
-0.0139312
-0.0141433
-0.0143546
-0.0145676
-0.0147744
-0.0149866
-0.015219
-0.0154507
-0.0156879
-0.0159261
-0.0161599
-0.0163961
-0.0166312
-0.016877
-0.0171316
-0.0173963
-0.0176705
-0.0179196
-0.0181676
-0.0184356
-0.0186845
-0.0189602
-0.019246
-0.0195059
-0.019784
-0.0200796
-0.0203365
-0.0206101
-0.0209157
-0.0212006
-0.0214792
-0.021771
-0.0220749
-0.0223579
-0.0226521
-0.0229452
-0.0232432
-0.0235167
-0.023827
-0.0241636
0.011435
0.00786937
0.00125598
-0.00447746
-0.00729951
-0.00756347
-0.00707979
-0.00698576
-0.00720815
-0.00726273
-0.00703662
-0.00680329
-0.00676757
-0.0068237
-0.0069262
-0.00716655
-0.00735323
-0.00731452
-0.00728575
-0.00740689
-0.00753462
-0.00762958
-0.00772321
-0.00781411
-0.00797446
-0.00820316
-0.00837795
-0.00846985
-0.00855778
-0.00867703
-0.00880287
-0.00891787
-0.00903745
-0.00918177
-0.00932821
-0.00945711
-0.00957471
-0.00969228
-0.00983868
-0.0100134
-0.0101927
-0.0103871
-0.0105966
-0.0107944
-0.0109676
-0.0111244
-0.0112881
-0.0114525
-0.0115952
-0.0117461
-0.0119238
-0.0121119
-0.01231
-0.0125262
-0.0127343
-0.0129221
-0.0131198
-0.0133173
-0.0135135
-0.0137183
-0.0139308
-0.0141429
-0.0143542
-0.0145672
-0.014774
-0.0149863
-0.0152187
-0.0154503
-0.0156876
-0.0159258
-0.0161596
-0.0163958
-0.0166309
-0.0168767
-0.0171313
-0.017396
-0.0176703
-0.0179194
-0.0181674
-0.0184354
-0.0186842
-0.01896
-0.0192458
-0.0195057
-0.0197839
-0.0200794
-0.0203363
-0.02061
-0.0209156
-0.0212005
-0.021479
-0.0217709
-0.0220748
-0.0223578
-0.022652
-0.0229452
-0.0232431
-0.0235167
-0.023827
-0.0241638
0.0107503
0.00759939
0.00141908
-0.0041406
-0.00703883
-0.00744821
-0.00702228
-0.00692931
-0.00714653
-0.00720727
-0.006997
-0.00678026
-0.00675559
-0.00681703
-0.00691798
-0.00715111
-0.00733472
-0.00730206
-0.00728031
-0.00740272
-0.00752852
-0.00762273
-0.00771846
-0.00781201
-0.00797131
-0.00819624
-0.00836991
-0.00846441
-0.00855476
-0.00867407
-0.00879926
-0.00891467
-0.00903526
-0.00917996
-0.00932625
-0.00945531
-0.00957351
-0.00969135
-0.00983735
-0.0100116
-0.0101909
-0.0103853
-0.0105947
-0.0107924
-0.0109658
-0.011123
-0.0112869
-0.0114515
-0.0115943
-0.0117452
-0.0119228
-0.0121109
-0.0123091
-0.0125253
-0.0127335
-0.0129214
-0.0131192
-0.0133166
-0.0135128
-0.0137177
-0.0139302
-0.0141424
-0.0143538
-0.0145668
-0.0147735
-0.0149858
-0.0152183
-0.01545
-0.0156872
-0.0159254
-0.0161593
-0.0163955
-0.0166305
-0.0168763
-0.017131
-0.0173957
-0.01767
-0.0179191
-0.0181671
-0.018435
-0.0186839
-0.0189597
-0.0192456
-0.0195054
-0.0197836
-0.0200792
-0.0203361
-0.0206098
-0.0209154
-0.0212003
-0.0214789