/*--------------------------------*- C++ -*----------------------------------*\
| =========                 |                                                 |
| \\      /  F ield         | OpenFOAM: The Open Source CFD Toolbox           |
|  \\    /   O peration     | Version:  v1912                                 |
|   \\  /    A nd           | Website:  www.openfoam.com                      |
|    \\/     M anipulation  |                                                 |
\*---------------------------------------------------------------------------*/
FoamFile
{
    version     2.0;
    format      ascii;
    class       volVectorField;
    location    "1.1";
    object      U;
}
// * * * * * * * * * * * * * * * * * * * * * * * * * * * * * * * * * * * * * //

dimensions      [0 1 -1 0 0 0 0];


internalField   nonuniform List<vector> 
9600
(
(0.903331 0.00554855 0)
(1.12237 -0.00790988 0)
(0.788536 -0.00149611 0)
(1.24698 0.0137551 0)
(0.832332 0.00135067 0)
(1.04502 -0.00854125 0)
(0.922081 -0.000820841 0)
(1.13035 -0.00751804 0)
(0.822287 0.00931056 0)
(1.17849 0.00350537 0)
(0.784471 0.0050959 0)
(1.16338 0.0191082 0)
(0.832764 0.00952811 0)
(1.10164 0.00805623 0)
(0.87212 -0.00679831 0)
(1.09844 -0.00461468 0)
(0.875624 -0.010717 0)
(1.10693 -0.00357717 0)
(0.865861 -0.00494256 0)
(1.12518 0.000259193 0)
(0.908671 0.00531208 0)
(1.11297 -0.00683648 0)
(0.797258 -0.00306577 0)
(1.23381 0.0134337 0)
(0.859135 0.00350498 0)
(1.03795 -0.00931746 0)
(0.930829 -0.00228404 0)
(1.12044 -0.00599771 0)
(0.836524 0.00852814 0)
(1.15953 0.00456252 0)
(0.810263 0.00507413 0)
(1.13358 0.0186691 0)
(0.881884 0.0105101 0)
(1.05872 0.00747641 0)
(0.932646 -0.00679977 0)
(1.04306 -0.00473621 0)
(0.95068 -0.0107307 0)
(1.02931 -0.00361009 0)
(0.967875 -0.004781 0)
(1.00995 0.00080442 0)
(0.919288 0.00512771 0)
(1.09819 -0.00597219 0)
(0.818229 -0.00404831 0)
(1.20452 0.0132673 0)
(0.899591 0.00475923 0)
(1.02473 -0.00980417 0)
(0.946593 -0.00308819 0)
(1.10029 -0.00480719 0)
(0.869487 0.00773367 0)
(1.12325 0.00514092 0)
(0.861799 0.00514803 0)
(1.07918 0.0177892 0)
(0.939154 0.0115858 0)
(1.01734 0.00666324 0)
(0.973744 -0.00645396 0)
(1.00586 -0.00528251 0)
(0.982209 -0.0100962 0)
(0.995843 -0.00448965 0)
(0.988352 -0.00378996 0)
(0.990379 0.000160291 0)
(0.933781 0.00498832 0)
(1.08017 -0.00522459 0)
(0.84992 -0.00491628 0)
(1.16212 0.012762 0)
(0.942101 0.00609959 0)
(1.00985 -0.00997814 0)
(0.964556 -0.00392682 0)
(1.07371 -0.00399869 0)
(0.912357 0.00737396 0)
(1.0811 0.00530769 0)
(0.916679 0.00569616 0)
(1.02874 0.0167207 0)
(0.975041 0.0123015 0)
(0.999819 0.00621318 0)
(0.988585 -0.0062653 0)
(0.994632 -0.00547823 0)
(0.987391 -0.00983026 0)
(0.989294 -0.0047277 0)
(0.987591 -0.00337933 0)
(0.988389 0.000497258 0)
(0.949908 0.00487184 0)
(1.06135 -0.00460632 0)
(0.886777 -0.0055609 0)
(1.11414 0.0120716 0)
(0.977112 0.00726031 0)
(0.998961 -0.00999458 0)
(0.979125 -0.00461174 0)
(1.04787 -0.00350549 0)
(0.951196 0.00732171 0)
(1.04594 0.00531348 0)
(0.956376 0.00643475 0)
(0.999435 0.015935 0)
(0.990602 0.0125554 0)
(0.99837 0.00603093 0)
(0.994303 -0.00604533 0)
(0.993285 -0.00558706 0)
(0.989171 -0.00943935 0)
(0.988141 -0.00496448 0)
(0.987732 -0.00296132 0)
(0.987126 0.000601909 0)
(0.965222 0.00477681 0)
(1.04425 -0.00415275 0)
(0.922013 -0.00593149 0)
(1.06967 0.0113666 0)
(0.999695 0.00809945 0)
(0.994571 -0.00983679 0)
(0.987686 -0.00510209 0)
(1.02808 -0.0033066 0)
(0.977297 0.00739529 0)
(1.02348 0.0053212 0)
(0.977904 0.00708057 0)
(0.988601 0.0154922 0)
(0.996239 0.0124454 0)
(1.00137 0.00591091 0)
(0.998716 -0.00574836 0)
(0.994658 -0.00562313 0)
(0.991183 -0.00903056 0)
(0.988391 -0.00515457 0)
(0.988215 -0.00259584 0)
(0.987002 0.000786939 0)
(0.977854 0.00469784 0)
(1.03064 -0.00385786 0)
(0.950667 -0.0060546 0)
(1.03545 0.0107278 0)
(1.01035 0.00860038 0)
(0.995348 -0.00955977 0)
(0.991443 -0.00542323 0)
(1.01527 -0.00331506 0)
(0.990122 0.00750442 0)
(1.0119 0.00537499 0)
(0.987239 0.00756942 0)
(0.98677 0.0152152 0)
(0.998661 0.0121658 0)
(1.00414 0.00576027 0)
(1.00237 -0.00541692 0)
(0.997073 -0.00560118 0)
(0.993112 -0.00859901 0)
(0.989314 -0.00524338 0)
(0.988413 -0.00226208 0)
(0.987202 0.00103304 0)
(0.987017 0.00462772 0)
(1.02094 -0.00368787 0)
(0.971019 -0.00599889 0)
(1.01349 0.0102125 0)
(1.01286 0.00881176 0)
(0.998287 -0.00923589 0)
(0.993116 -0.0055998 0)
(1.00752 -0.00341146 0)
(0.993969 0.00760354 0)
(1.00654 0.00544482 0)
(0.990857 0.00794049 0)
(0.987836 0.0149893 0)
(1.00035 0.0118347 0)
(1.00615 0.00556322 0)
(1.00498 -0.00509295 0)
(0.99958 -0.0055273 0)
(0.995027 -0.00812757 0)
(0.990518 -0.00522278 0)
(0.988682 -0.00194747 0)
(0.987336 0.00132565 0)
(0.992964 0.00456224 0)
(1.01453 -0.0036045 0)
(0.983969 -0.00583811 0)
(1.00178 0.0098313 0)
(1.01141 0.00881898 0)
(1.00106 -0.00891915 0)
(0.994581 -0.00565822 0)
(1.00271 -0.00351055 0)
(0.993707 0.00767393 0)
(1.00373 0.00549196 0)
(0.992441 0.00822642 0)
(0.989676 0.0147706 0)
(1.00202 0.0114859 0)
(1.00771 0.0053413 0)
(1.00674 -0.00478066 0)
(1.0016 -0.00541836 0)
(0.996816 -0.0076358 0)
(0.991898 -0.00508895 0)
(0.989266 -0.00164032 0)
(0.987607 0.00165593 0)
(0.996515 0.00450037 0)
(1.01039 -0.0035759 0)
(0.991524 -0.00562859 0)
(0.996689 0.00955977 0)
(1.00898 0.00870646 0)
(1.00283 -0.0086395 0)
(0.996291 -0.00563021 0)
(0.999556 -0.00357406 0)
(0.992481 0.00771724 0)
(1.00178 0.00550027 0)
(0.993386 0.00843353 0)
(0.991726 0.0145359 0)
(1.0037 0.0111307 0)
(1.00897 0.00512491 0)
(1.00786 -0.00447769 0)
(1.00298 -0.00528352 0)
(0.998247 -0.00714702 0)
(0.993288 -0.00486013 0)
(0.99014 -0.00132779 0)
(0.988158 0.00202185 0)
(0.998538 0.00444254 0)
(1.00768 -0.00357868 0)
(0.995586 -0.00540478 0)
(0.995047 0.00936304 0)
(1.00701 0.00853686 0)
(1.00371 -0.00840252 0)
(0.997942 -0.0055431 0)
(0.99747 -0.00359414 0)
(0.991531 0.00774179 0)
(1.0003 0.00547623 0)
(0.994107 0.00856134 0)
(0.9937 0.014276 0)
(1.00524 0.0107768 0)
(1.0099 0.00493175 0)
(1.00849 -0.00418674 0)
(1.00377 -0.00511635 0)
(0.999204 -0.00667821 0)
(0.994471 -0.00456662 0)
(0.991111 -0.00101643 0)
(0.988925 0.00241034 0)
(0.999661 0.00438878 0)
(1.00593 -0.00359632 0)
(0.997476 -0.00518294 0)
(0.994887 0.00920684 0)
(1.00596 0.00834857 0)
(1.00412 -0.00819602 0)
(0.99918 -0.00541684 0)
(0.996121 -0.00357682 0)
(0.99101 0.00775375 0)
(0.999327 0.00543281 0)
(0.994768 0.00861481 0)
(0.995412 0.0139935 0)
(1.00647 0.0104298 0)
(1.01048 0.00477363 0)
(1.00873 -0.0039005 0)
(1.0041 -0.00491597 0)
(0.999708 -0.00623768 0)
(0.995317 -0.00423655 0)
(0.991974 -0.00070748 0)
(0.989751 0.00279663 0)
(1.00025 0.00433778 0)
(1.00489 -0.00361677 0)
(0.998002 -0.00496769 0)
(0.99523 0.00906254 0)
(1.00577 0.0081548 0)
(1.00437 -0.00800218 0)
(0.99988 -0.0052645 0)
(0.995241 -0.00353224 0)
(0.990768 0.00775275 0)
(0.998854 0.00537779 0)
(0.995454 0.008604 0)
(0.996799 0.0136995 0)
(1.00737 0.010089 0)
(1.01073 0.00465676 0)
(1.00869 -0.00361681 0)
(1.0041 -0.00468638 0)
(0.999858 -0.00582223 0)
(0.995823 -0.00389099 0)
(0.992622 -0.000398468 0)
(0.990503 0.00314641 0)
(1.00052 0.00428708 0)
(1.00439 -0.00363091 0)
(0.997713 -0.00475831 0)
(0.995661 0.00890771 0)
(1.00618 0.00795887 0)
(1.00458 -0.00780249 0)
(1.00012 -0.00509271 0)
(0.994632 -0.0034691 0)
(0.990692 0.00773392 0)
(0.99874 0.00531559 0)
(0.996157 0.00853971 0)
(0.997868 0.0134075 0)
(1.00794 0.00974872 0)
(1.01075 0.0045807 0)
(1.00847 -0.00333666 0)
(1.00392 -0.00442838 0)
(0.999781 -0.00541923 0)
(0.996069 -0.00354523 0)
(0.993055 -9.39555e-05 0)
(0.991123 0.00343398 0)
(1.00059 0.00423415 0)
(1.00425 -0.00363309 0)
(0.997046 -0.00455138 0)
(0.996017 0.00872742 0)
(1.00686 0.00775954 0)
(1.00478 -0.00758333 0)
(1.00005 -0.00490495 0)
(0.994196 -0.0033948 0)
(0.990728 0.00769316 0)
(0.998809 0.00524978 0)
(0.996808 0.00843373 0)
(0.998638 0.0131234 0)
(1.00825 0.00940693 0)
(1.0106 0.0045433 0)
(1.00817 -0.00305609 0)
(1.00367 -0.00414385 0)
(0.999603 -0.00501311 0)
(0.996166 -0.00321588 0)
(0.993339 0.000224068 0)
(0.99162 0.00367489 0)
(1.00057 0.00417712 0)
(1.00429 -0.00362105 0)
(0.996347 -0.00434386 0)
(0.996256 0.00851548 0)
(1.00751 0.00755451 0)
(1.00492 -0.00733815 0)
(0.999862 -0.00470472 0)
(0.99391 -0.00331384 0)
(0.990837 0.00762748 0)
(0.998926 0.00518557 0)
(0.997342 0.00829361 0)
(0.999136 0.0128517 0)
(1.00832 0.0090621 0)
(1.01033 0.004534 0)
(1.00784 -0.00277317 0)
(1.00343 -0.00384859 0)
(0.999416 -0.00458454 0)
(0.996214 -0.00291412 0)
(0.993559 0.000555346 0)
(0.992038 0.00389172 0)
(1.00051 0.00411509 0)
(1.00437 -0.00359524 0)
(0.995828 -0.00413404 0)
(0.996402 0.008274 0)
(1.00795 0.00734247 0)
(1.00499 -0.00706621 0)
(0.999668 -0.00449647 0)
(0.993777 -0.00322679 0)
(0.990982 0.00753617 0)
(0.999021 0.0051279 0)
(0.997743 0.00812212 0)
(0.999411 0.0125974 0)
(1.00821 0.00871036 0)
(1.00999 0.0045456 0)
(1.0075 -0.00247918 0)
(1.00324 -0.00355698 0)
(0.999279 -0.00412226 0)
(0.996278 -0.00263534 0)
(0.993785 0.000871175 0)
(0.992422 0.00408598 0)
(1.00046 0.00404785 0)
(1.00442 -0.00355757 0)
(0.995558 -0.00392162 0)
(0.996505 0.00801072 0)
(1.00813 0.00712274 0)
(1.00497 -0.00677072 0)
(0.999539 -0.00428281 0)
(0.993792 -0.00313197 0)
(0.991144 0.00742232 0)
(0.999074 0.00508103 0)
(0.998038 0.00792273 0)
(0.999527 0.0123592 0)
(1.00799 0.00835513 0)
(1.0096 0.00456568 0)
(1.00716 -0.00217277 0)
(1.0031 -0.00327786 0)
(0.99921 -0.00362691 0)
(0.99639 -0.00236674 0)
(0.994054 0.00115865 0)
(0.992805 0.00427665 0)
(1.00042 0.00397577 0)
(1.0044 -0.00351049 0)
(0.995505 -0.00370752 0)
(0.996608 0.00773457 0)
(1.00808 0.00689475 0)
(1.00486 -0.00645539 0)
(0.999487 -0.00406932 0)
(0.99393 -0.00302696 0)
(0.991318 0.00728864 0)
(0.999097 0.00504901 0)
(0.99827 0.00769902 0)
(0.99955 0.0121342 0)
(1.00769 0.00800104 0)
(1.0092 0.0045826 0)
(1.00683 -0.00184382 0)
(1.003 -0.0030247 0)
(0.999206 -0.00310086 0)
(0.996554 -0.00209665 0)
(0.994376 0.00140227 0)
(0.993199 0.00447952 0)
(1.0004 0.00389913 0)
(1.00433 -0.00345529 0)
(0.995595 -0.0034944 0)
(0.996734 0.00745364 0)
(1.00789 0.00665822 0)
(1.00468 -0.00612471 0)
(0.999495 -0.00386116 0)
(0.994152 -0.00290961 0)
(0.991509 0.00713678 0)
(0.999108 0.00503232 0)
(0.998477 0.00745389 0)
(0.999526 0.0119192 0)
(1.00737 0.00765129 0)
(1.00881 0.00458564 0)
(1.0065 -0.00147908 0)
(1.00294 -0.00280313 0)
(0.999248 -0.00256603 0)
(0.996754 -0.0018056 0)
(0.994746 0.00158553 0)
(0.993603 0.00468767 0)
(1.00038 0.00381806 0)
(1.00423 -0.00339255 0)
(0.99576 -0.00328465 0)
(0.996884 0.00717369 0)
(1.00762 0.00641437 0)
(1.00447 -0.00578015 0)
(0.999539 -0.00366107 0)
(0.99442 -0.00277942 0)
(0.991715 0.0069712 0)
(0.999123 0.00502882 0)
(0.99868 0.00719157 0)
(0.999483 0.0117081 0)
(1.00705 0.00731405 0)
(1.00844 0.00455887 0)
(1.00617 -0.00107984 0)
(1.00289 -0.00260522 0)
(0.999322 -0.00204671 0)
(0.996973 -0.00147085 0)
(0.995148 0.00170533 0)
(0.994014 0.0048868 0)
(1.00038 0.00373289 0)
(1.00411 -0.00332263 0)
(0.995956 -0.00307999 0)
(0.997048 0.00689759 0)
(1.00733 0.00616304 0)
(1.00425 -0.00542252 0)
(0.9996 -0.00347027 0)
(0.994707 -0.00263903 0)
(0.991933 0.00679196 0)
(0.999151 0.00503957 0)
(0.998891 0.00691387 0)
(0.99943 0.0114997 0)
(1.00672 0.00699806 0)
(1.00808 0.00449754 0)
(1.00584 -0.000645356 0)
(1.00286 -0.00241555 0)
(0.999415 -0.00155886 0)
(0.997195 -0.00108014 0)
(0.995566 0.00176815 0)
(0.994429 0.00505778 0)
(1.00038 0.00364303 0)
(1.00398 -0.00324406 0)
(0.996161 -0.00288309 0)
(0.997219 0.00662916 0)
(1.00703 0.00590182 0)
(1.00402 -0.00505373 0)
(0.999669 -0.00328896 0)
(0.994997 -0.00248647 0)
(0.992154 0.00659953 0)
(0.999188 0.00506215 0)
(0.999113 0.00662464 0)
(0.999373 0.0112893 0)
(1.0064 0.00671054 0)
(1.00776 0.00440043 0)
(1.00552 -0.000184434 0)
(1.00284 -0.00221988 0)
(0.999526 -0.00111941 0)
(0.997411 -0.00063526 0)
(0.99599 0.00179754 0)
(0.994851 0.00517799 0)
(1.00038 0.00354869 0)
(1.00385 -0.003157 0)
(0.996368 -0.00269536 0)
(0.997389 0.00636978 0)
(1.00674 0.00563017 0)
(1.0038 -0.00467347 0)
(0.999742 -0.00311663 0)
(0.995285 -0.00232257 0)
(0.992374 0.00639731 0)
(0.999229 0.00508931 0)
(0.999345 0.0063349 0)
(0.999315 0.0110667 0)
(1.00608 0.00645532 0)
(1.00745 0.00426377 0)
(1.00519 0.000290037 0)
(1.00283 -0.00199969 0)
(0.999654 -0.000744741 0)
(0.997616 -0.00014936 0)
(0.996408 0.00182646 0)
(0.995287 0.00522209 0)
(1.00037 0.00344972 0)
(1.00372 -0.00306111 0)
(0.996575 -0.00251816 0)
(0.997555 0.00612132 0)
(1.00645 0.00534724 0)
(1.00358 -0.0042841 0)
(0.999815 -0.00294976 0)
(0.995572 -0.00215359 0)
(0.992591 0.00618727 0)
(0.999266 0.00511961 0)
(0.999586 0.00604904 0)
(0.999264 0.010827 0)
(1.00575 0.00624011 0)
(1.00715 0.00409229 0)
(1.00487 0.000760738 0)
(1.0028 -0.00174204 0)
(0.999804 -0.000440963 0)
(0.997814 0.00036225 0)
(0.996812 0.00189163 0)
(0.995743 0.00517805 0)
(1.00037 0.00334564 0)
(1.00359 -0.00295498 0)
(0.996782 -0.00235436 0)
(0.997719 0.00588626 0)
(1.00616 0.00505455 0)
(1.00336 -0.00388853 0)
(0.999888 -0.00278872 0)
(0.995863 -0.00197802 0)
(0.992809 0.00597417 0)
(0.999291 0.00515018 0)
(0.999831 0.00576661 0)
(0.999226 0.0105691 0)
(1.00542 0.00607007 0)
(1.00687 0.00389172 0)
(1.00455 0.00122188 0)
(1.00276 -0.00143487 0)
(0.999976 -0.000201539 0)
(0.99801 0.000871877 0)
(0.997193 0.00201958 0)
(0.996225 0.00504791 0)
(1.00037 0.00323646 0)
(1.00346 -0.0028388 0)
(0.996988 -0.00220349 0)
(0.997878 0.00566566 0)
(1.00587 0.00475334 0)
(1.00315 -0.00348909 0)
(0.999959 -0.00263076 0)
(0.996158 -0.00179879 0)
(0.993033 0.00576373 0)
(0.999299 0.00517188 0)
(1.00008 0.00549178 0)
(0.999207 0.0102942 0)
(1.00509 0.00594287 0)
(1.00661 0.0036727 0)
(1.00424 0.00166136 0)
(1.00269 -0.00106861 0)
(1.00017 -1.53025e-05 0)
(0.998213 0.00134672 0)
(0.997542 0.00222399 0)
(0.996727 0.00485201 0)
(1.00036 0.00312223 0)
(1.00334 -0.0027125 0)
(0.997196 -0.0020667 0)
(0.998034 0.00546238 0)
(1.0056 0.00444344 0)
(1.00293 -0.0030885 0)
(1.00003 -0.0024724 0)
(0.996458 -0.00162392 0)
(0.993266 0.00555926 0)
(0.999292 0.00518473 0)
(1.00032 0.00522647 0)
(0.999208 0.00999665 0)
(1.00474 0.00585643 0)
(1.00637 0.00344709 0)
(1.00395 0.00205495 0)
(1.00259 -0.000647609 0)
(1.00037 0.00013124 0)
(0.998429 0.00176227 0)
(0.997852 0.00250588 0)
(0.997236 0.00463161 0)
(1.00036 0.00300268 0)
(1.00321 -0.00257496 0)
(0.997403 -0.00194683 0)
(0.998185 0.00527489 0)
(1.00532 0.00413183 0)
(1.00272 -0.00269132 0)
(1.00008 -0.00231092 0)
(0.996763 -0.00145679 0)
(0.993513 0.00536376 0)
(0.999274 0.00519027 0)
(1.00056 0.00497162 0)
(0.999228 0.0096776 0)
(1.00439 0.00581122 0)
(1.00615 0.00322409 0)
(1.00369 0.00239589 0)
(1.00246 -0.000177923 0)
(1.00058 0.000259242 0)
(0.998669 0.0020964 0)
(0.998123 0.00284933 0)
(0.99773 0.00444277 0)
(1.00035 0.0028777 0)
(1.00308 -0.00242693 0)
(0.997609 -0.00184258 0)
(0.998333 0.00510256 0)
(1.00506 0.003816 0)
(1.0025 -0.00230078 0)
(1.00013 -0.0021444 0)
(0.99707 -0.00129957 0)
(0.993773 0.00518261 0)
(0.999247 0.00518805 0)
(1.00078 0.00472864 0)
(0.999267 0.0093406 0)
(1.00403 0.00580095 0)
(1.00595 0.00301207 0)
(1.00346 0.00267839 0)
(1.0023 0.000332088 0)
(1.00078 0.000397094 0)
(0.998939 0.00233898 0)
(0.998361 0.00322255 0)
(0.998184 0.00434505 0)
(1.00034 0.00274767 0)
(1.00295 -0.00226839 0)
(0.997815 -0.00175496 0)
(0.998476 0.00494513 0)
(1.0048 0.0035007 0)
(1.0023 -0.00192577 0)
(1.00017 -0.00196511 0)
(0.997379 -0.00115972 0)
(0.994045 0.00501346 0)
(0.999216 0.00518172 0)
(1.001 0.00449639 0)
(0.999322 0.00898347 0)
(1.00365 0.0058232 0)
(1.00576 0.00282299 0)
(1.00328 0.00289735 0)
(1.00212 0.000863099 0)
(1.00096 0.000562576 0)
(0.999241 0.00249494 0)
(0.998584 0.0035801 0)
(0.998574 0.00436455 0)
(1.00033 0.00261264 0)
(1.00282 -0.00209978 0)
(0.998018 -0.00168216 0)
(0.998614 0.0047989 0)
(1.00455 0.00319735 0)
(1.0021 -0.00156709 0)
(1.0002 -0.00177047 0)
(0.997687 -0.00104035 0)
(0.99433 0.00485157 0)
(0.999181 0.00517147 0)
(1.00121 0.00427437 0)
(0.999397 0.00860715 0)
(1.00327 0.00587455 0)
(1.00557 0.00266845 0)
(1.00315 0.00304828 0)
(1.00193 0.00140516 0)
(1.00111 0.000768467 0)
(0.99957 0.00257653 0)
(0.998809 0.00387906 0)
(0.998892 0.00449424 0)
(1.00033 0.00247268 0)
(1.00268 -0.00192239 0)
(0.99822 -0.00162197 0)
(0.998746 0.00466357 0)
(1.00431 0.00290337 0)
(1.0019 -0.00123122 0)
(1.00021 -0.00155819 0)
(0.997992 -0.000936879 0)
(0.994625 0.00469218 0)
(0.999143 0.00516312 0)
(1.00142 0.00406851 0)
(0.999493 0.00820991 0)
(1.00288 0.00594202 0)
(1.00539 0.00255557 0)
(1.00308 0.00312346 0)
(1.00174 0.00194293 0)
(1.00122 0.00102567 0)
(0.99992 0.00261066 0)
(0.999058 0.00409714 0)
(0.999144 0.00469902 0)
(1.00032 0.00232818 0)
(1.00255 -0.00173518 0)
(0.998418 -0.00157691 0)
(0.998871 0.00453578 0)
(1.00408 0.00262657 0)
(1.00173 -0.000929936 0)
(1.00021 -0.00131689 0)
(0.998291 -0.000850842 0)
(0.994931 0.00452871 0)
(0.999102 0.00516063 0)
(1.0016 0.0038772 0)
(0.999614 0.00778983 0)
(1.00249 0.0060193 0)
(1.0052 0.00249735 0)
(1.00307 0.00312816 0)
(1.00156 0.00245406 0)
(1.00128 0.00133484 0)
(1.00028 0.00262285 0)
(0.999341 0.0042309 0)
(0.999353 0.00491819 0)
(1.00031 0.00218007 0)
(1.00241 -0.00154293 0)
(0.998613 -0.00153871 0)
(0.998989 0.00440644 0)
(1.00385 0.00237702 0)
(1.00156 -0.000662852 0)
(1.0002 -0.00105005 0)
(0.998582 -0.000780152 0)
(0.99525 0.00435651 0)
(0.999058 0.00516255 0)
(1.00177 0.00370514 0)
(0.999762 0.00735527 0)
(1.00212 0.00609848 0)
(1.00499 0.00250006 0)
(1.0031 0.00307048 0)
(1.00141 0.00291906 0)
(1.0013 0.00169371 0)
(1.00062 0.00263186 0)
(0.999664 0.00429253 0)
(0.999547 0.00510317 0)
(1.0003 0.00202861 0)
(1.00227 -0.00134488 0)
(0.998805 -0.00150924 0)
(0.999101 0.00427492 0)
(1.00363 0.00215663 0)
(1.00141 -0.000442591 0)
(1.00018 -0.000762273 0)
(0.998861 -0.000710456 0)
(0.995581 0.00416815 0)
(0.999014 0.00516709 0)
(1.00192 0.00356295 0)
(0.999938 0.00690677 0)
(1.00175 0.00616554 0)
(1.00476 0.00256768 0)
(1.00318 0.00296627 0)
(1.0013 0.00331868 0)
(1.00127 0.0021024 0)
(1.00095 0.00265315 0)
(1.00002 0.00429676 0)
(0.99975 0.00523137 0)
(1.00029 0.00187475 0)
(1.00213 -0.00114417 0)
(0.99899 -0.00148455 0)
(0.999208 0.00413683 0)
(1.00342 0.00197336 0)
(1.00127 -0.000271253 0)
(1.00015 -0.000459281 0)
(0.999125 -0.000629688 0)
(0.995924 0.00395991 0)
(0.998972 0.00516753 0)
(1.00205 0.00345197 0)
(1.00014 0.00644744 0)
(1.00142 0.00620988 0)
(1.0045 0.00270128 0)
(1.0033 0.00283383 0)
(1.00125 0.00362988 0)
(1.0012 0.00255185 0)
(1.00123 0.00270192 0)
(1.00041 0.00425162 0)
(0.99998 0.00530409 0)
(1.00028 0.00171966 0)
(1.00199 -0.000943986 0)
(0.999169 -0.00145871 0)
(0.999311 0.00398034 0)
(1.0032 0.0018357 0)
(1.00115 -0.000141885 0)
(1.00012 -0.00015084 0)
(0.99937 -0.000531672 0)
(0.996279 0.00373547 0)
(0.998936 0.00515939 0)
(1.00214 0.0033766 0)
(1.00036 0.00598966 0)
(1.00112 0.006219 0)
(1.0042 0.002894 0)
(1.00343 0.00269852 0)
(1.00127 0.00383696 0)
(1.00109 0.00302239 0)
(1.00145 0.00280152 0)
(1.00082 0.00416217 0)
(1.00025 0.00532778 0)
(1.00028 0.00156466 0)
(1.00184 -0.000747282 0)
(0.99934 -0.00142699 0)
(0.99941 0.00379632 0)
(1.00299 0.00174139 0)
(1.00105 -4.58616e-05 0)
(1.00009 0.000153797 0)
(0.999593 -0.000405725 0)
(0.996643 0.00350211 0)
(0.99891 0.00513581 0)
(1.00221 0.00333965 0)
(1.0006 0.00553852 0)
(1.00087 0.00618351 0)
(1.00388 0.00313412 0)
(1.00357 0.0025884 0)
(1.00136 0.00393581 0)
(1.00098 0.00348145 0)
(1.00161 0.00297157 0)
(1.00122 0.00403962 0)
(1.00056 0.00529886 0)
(1.00027 0.00141121 0)
(1.00169 -0.000558497 0)
(0.999499 -0.00138392 0)
(0.999507 0.00358032 0)
(1.00278 0.00169155 0)
(1.00096 3.03339e-05 0)
(1.00005 0.000437989 0)
(0.999792 -0.00024967 0)
(0.997013 0.00326745 0)
(0.998898 0.0050919 0)
(1.00224 0.00333619 0)
(1.00086 0.00510819 0)
(1.00066 0.00610141 0)
(1.00353 0.00340455 0)
(1.00369 0.0025246 0)
(1.00153 0.0039328 0)
(1.00089 0.00389026 0)
(1.00168 0.00321851 0)
(1.00161 0.00391684 0)
(1.00091 0.00520827 0)
(1.00026 0.00126087 0)
(1.00154 -0.00037962 0)
(0.999644 -0.00132677 0)
(0.999604 0.0033299 0)
(1.00257 0.00167766 0)
(1.00088 9.79352e-05 0)
(1.00002 0.000686318 0)
(0.999964 -6.59598e-05 0)
(0.997384 0.00303712 0)
(0.998903 0.0050209 0)
(1.00225 0.00336089 0)
(1.00111 0.00471239 0)
(1.00052 0.00597021 0)
(1.00317 0.00368514 0)
(1.00378 0.00252334 0)
(1.00176 0.00385031 0)
(1.00083 0.00421919 0)
(1.00168 0.00352807 0)
(1.00195 0.00383698 0)
(1.00131 0.00504895 0)
(1.00025 0.00111539 0)
(1.00139 -0.00021574 0)
(0.999774 -0.00125122 0)
(0.999702 0.00305344 0)
(1.00237 0.00168403 0)
(1.00081 0.000168185 0)
(0.999991 0.000893325 0)
(1.00011 0.000141051 0)
(0.997751 0.00282344 0)
(0.998928 0.00492028 0)
(1.00222 0.00340245 0)
(1.00137 0.00435149 0)
(1.00044 0.00579537 0)
(1.0028 0.00396054 0)
(1.00381 0.00258841 0)
(1.00204 0.00371271 0)
(1.00084 0.00444675 0)
(1.00162 0.00386728 0)
(1.00221 0.00383528 0)
(1.00173 0.00484132 0)
(1.00024 0.000976152 0)
(1.00124 -6.81278e-05 0)
(0.999886 -0.00115503 0)
(0.9998 0.00276264 0)
(1.00218 0.00169452 0)
(1.00074 0.000248356 0)
(0.999969 0.00106142 0)
(1.00023 0.000360616 0)
(0.99811 0.0026372 0)
(0.998973 0.00479585 0)
(1.00217 0.00345375 0)
(1.00161 0.00403213 0)
(1.00042 0.005584 0)
(1.00245 0.00421213 0)
(1.00379 0.00271711 0)
(1.00234 0.00355222 0)
(1.00092 0.00456479 0)
(1.00154 0.00419556 0)
(1.00237 0.00391984 0)
(1.00213 0.00463658 0)
(1.00023 0.000845434 0)
(1.00109 5.71665e-05 0)
(0.999979 -0.00103428 0)
(0.999897 0.00246506 0)
(1.00199 0.00169481 0)
(1.00067 0.000347453 0)
(0.999954 0.00119622 0)
(1.00033 0.000583425 0)
(0.998456 0.00248596 0)
(0.99904 0.00465149 0)
(1.0021 0.00351108 0)
(1.00183 0.00375917 0)
(1.00047 0.00534303 0)
(1.00212 0.00442401 0)
(1.00371 0.0028986 0)
(1.00264 0.00340178 0)
(1.00109 0.00457533 0)
(1.00146 0.0044773 0)
(1.00245 0.00407108 0)
(1.00249 0.00448856 0)
(1.00022 0.000724737 0)
(1.00095 0.000161715 0)
(1.00005 -0.000891614 0)
(0.999991 0.00216905 0)
(1.00183 0.00167841 0)
(1.00061 0.000462959 0)
(0.999944 0.00130517 0)
(1.00041 0.000800851 0)
(0.998785 0.00237256 0)
(0.999127 0.00449487 0)
(1.002 0.00356792 0)
(1.00203 0.00353217 0)
(1.00057 0.005078 0)
(1.00183 0.00458674 0)
(1.00357 0.00312105 0)
(1.00292 0.00329184 0)
(1.00132 0.0044932 0)
(1.00141 0.00468883 0)
(1.00245 0.00425401 0)
(1.00277 0.00441963 0)
(1.00021 0.000614679 0)
(1.00081 0.000242863 0)
(1.0001 -0.000731795 0)
(1.00008 0.00188378 0)
(1.00168 0.0016399 0)
(1.00055 0.000587683 0)
(0.999938 0.00139638 0)
(1.00048 0.00100397 0)
(0.999094 0.00229059 0)
(0.999231 0.00433595 0)
(1.00189 0.00362294 0)
(1.0022 0.00335421 0)
(1.00072 0.00479505 0)
(1.00159 0.00468942 0)
(1.00337 0.00336292 0)
(1.00315 0.00324099 0)
(1.00162 0.00434394 0)
(1.00141 0.0048164 0)
(1.0024 0.00443487 0)
(1.00296 0.00441445 0)
(1.0002 0.000517634 0)
(1.00069 0.000296471 0)
(1.00014 -0.000562848 0)
(1.00016 0.00162513 0)
(1.00155 0.00157311 0)
(1.0005 0.000717318 0)
(0.999936 0.00147696 0)
(1.00053 0.0011833 0)
(0.999383 0.00223308 0)
(0.999353 0.00418053 0)
(1.00178 0.00367608 0)
(1.00233 0.00322639 0)
(1.00091 0.00450197 0)
(1.00141 0.00472777 0)
(1.00315 0.00359943 0)
(1.00331 0.00325589 0)
(1.00195 0.00416585 0)
(1.00148 0.00485492 0)
(1.00233 0.0045955 0)
(1.00307 0.00444284 0)
(1.00019 0.000433267 0)
(1.00057 0.000323767 0)
(1.00015 -0.000387541 0)
(1.00023 0.00140389 0)
(1.00144 0.00148111 0)
(1.00046 0.000842223 0)
(0.999936 0.00155397 0)
(1.00057 0.00133749 0)
(0.999652 0.00219337 0)
(0.999491 0.00402676 0)
(1.00165 0.00372459 0)
(1.00242 0.00314957 0)
(1.00112 0.00421093 0)
(1.00131 0.00470155 0)
(1.00292 0.00380876 0)
(1.0034 0.00332616 0)
(1.00228 0.00399463 0)
(1.00162 0.00480601 0)
(1.00227 0.0047234 0)
(1.00311 0.00449016 0)
(1.00018 0.000362196 0)
(1.00046 0.000326085 0)
(1.00016 -0.000215272 0)
(1.00028 0.00122899 0)
(1.00135 0.00137039 0)
(1.00043 0.000952929 0)
(0.999938 0.00163649 0)
(1.0006 0.00147376 0)
(0.9999 0.0021602 0)
(0.999643 0.00387103 0)
(1.00153 0.00376426 0)
(1.00246 0.00312376 0)
(1.00134 0.00394136 0)
(1.00127 0.00461099 0)
(1.00269 0.00397478 0)
(1.00342 0.00343632 0)
(1.00258 0.00385909 0)
(1.00183 0.00468647 0)
(1.00222 0.00479912 0)
(1.0031 0.00455309 0)
(1.00017 0.0003042 0)
(1.00037 0.000309788 0)
(1.00015 -5.33384e-05 0)
(1.00032 0.00110388 0)
(1.00128 0.00124987 0)
(1.00041 0.00104154 0)
(0.999943 0.00172733 0)
(1.00062 0.00159649 0)
(1.00013 0.00212483 0)
(0.999809 0.00371079 0)
(1.00143 0.0037866 0)
(1.00246 0.00314037 0)
(1.00155 0.00371204 0)
(1.00129 0.00446614 0)
(1.0025 0.00408376 0)
(1.00338 0.00356386 0)
(1.00284 0.003774 0)
(1.00208 0.00452636 0)
(1.00223 0.00480297 0)
(1.00305 0.00461124 0)
(1.00016 0.000256768 0)
(1.00029 0.000282126 0)
(1.00014 9.06759e-05 0)
(1.00034 0.00102702 0)
(1.00122 0.00113011 0)
(1.00042 0.00109844 0)
(0.999953 0.00181961 0)
(1.00062 0.00172022 0)
(1.00033 0.00208958 0)
(0.99999 0.00353636 0)
(1.00134 0.00378126 0)
(1.00243 0.00318699 0)
(1.00174 0.00353655 0)
(1.00136 0.00429519 0)
(1.00235 0.0041305 0)
(1.00331 0.00367869 0)
(1.00304 0.00373624 0)
(1.00234 0.00436502 0)
(1.00229 0.00474572 0)
(1.003 0.00463689 0)
(1.00015 0.000219577 0)
(1.00023 0.00024741 0)
(1.00013 0.000209221 0)
(1.00035 0.000989439 0)
(1.00117 0.00102868 0)
(1.00044 0.00111559 0)
(0.999975 0.00189773 0)
(1.00061 0.00185376 0)
(1.00051 0.00206855 0)
(1.00018 0.00334419 0)
(1.00127 0.00374194 0)
(1.00237 0.00324461 0)
(1.0019 0.00341191 0)
(1.00147 0.00411913 0)
(1.00224 0.00412464 0)
(1.00322 0.00376158 0)
(1.00318 0.0037239 0)
(1.0026 0.00421953 0)
(1.00239 0.0046544 0)
(1.00296 0.00462111 0)
(1.00014 0.000190844 0)
(1.00018 0.000209369 0)
(1.00013 0.000302109 0)
(1.00034 0.000977248 0)
(1.00112 0.000960736 0)
(1.00049 0.00110008 0)
(1.00002 0.00195186 0)
(1.00059 0.00199069 0)
(1.00065 0.00207418 0)
(1.00038 0.0031468 0)
(1.00125 0.00366118 0)
(1.00229 0.0032957 0)
(1.00202 0.0033363 0)
(1.0016 0.00395312 0)
(1.00217 0.00408422 0)
(1.00312 0.00381573 0)
(1.00327 0.00371941 0)
(1.00285 0.00408224 0)
(1.00253 0.00454081 0)
(1.00295 0.00458137 0)
(1.00013 0.00016802 0)
(1.00014 0.000174532 0)
(1.00013 0.000366514 0)
(1.00032 0.000983883 0)
(1.00107 0.000930611 0)
(1.00055 0.00106537 0)
(1.00008 0.00196698 0)
(1.00056 0.00211918 0)
(1.00075 0.00211065 0)
(1.00057 0.00296978 0)
(1.00125 0.00353514 0)
(1.00221 0.00332248 0)
(1.00211 0.00329683 0)
(1.00173 0.00380714 0)
(1.00215 0.00401495 0)
(1.00303 0.0038444 0)
(1.00332 0.00372609 0)
(1.00307 0.00395669 0)
(1.00269 0.0043996 0)
(1.00294 0.00453324 0)
(1.00012 0.000149184 0)
(1.0001 0.000147397 0)
(1.00014 0.000404468 0)
(1.0003 0.000998067 0)
(1.00102 0.000941451 0)
(1.00062 0.00103168 0)
(1.00017 0.00193034 0)
(1.00055 0.00221959 0)
(1.00083 0.00217319 0)
(1.00074 0.00282787 0)
(1.00129 0.0033852 0)
(1.00215 0.00331029 0)
(1.00217 0.00327 0)
(1.00186 0.00368787 0)
(1.00215 0.00392754 0)
(1.00296 0.00383834 0)
(1.00333 0.00373735 0)
(1.00324 0.00385831 0)
(1.00289 0.00422778 0)
(1.00296 0.00446281 0)
(1.00011 0.000132209 0)
(1.00008 0.000132142 0)
(1.00015 0.000422778 0)
(1.00029 0.00100978 0)
(1.00097 0.000979298 0)
(1.00068 0.00101808 0)
(1.00028 0.00185787 0)
(1.00056 0.00227959 0)
(1.00087 0.00224781 0)
(1.00088 0.00271847 0)
(1.00135 0.00323537 0)
(1.00212 0.00326047 0)
(1.00222 0.00323709 0)
(1.00197 0.0035883 0)
(1.00218 0.00384257 0)
(1.00291 0.00380155 0)
(1.00332 0.00373089 0)
(1.00336 0.00379529 0)
(1.00309 0.00404966 0)
(1.00302 0.00435405 0)
(1.00011 0.000116681 0)
(1.00006 0.000128345 0)
(1.00017 0.000426876 0)
(1.00028 0.00101471 0)
(1.00091 0.00102958 0)
(1.00074 0.00103136 0)
(1.00041 0.00176718 0)
(1.00059 0.00229014 0)
(1.0009 0.00231848 0)
(1.001 0.00265071 0)
(1.00142 0.00309372 0)
(1.0021 0.00318803 0)
(1.00226 0.00318781 0)
(1.00209 0.0034865 0)
(1.00222 0.00375757 0)
(1.00287 0.00375365 0)
(1.00331 0.00369307 0)
(1.00344 0.00375117 0)
(1.00328 0.00389404 0)
(1.00313 0.00420236 0)
(1.0001 0.00010192 0)
(1.00004 0.000134119 0)
(1.0002 0.000423564 0)
(1.00028 0.00100616 0)
(1.00085 0.00108378 0)
(1.00078 0.0010728 0)
(1.00054 0.00167891 0)
(1.00065 0.00224893 0)
(1.00093 0.00236513 0)
(1.00109 0.00261719 0)
(1.00149 0.0029698 0)
(1.00209 0.00310336 0)
(1.0023 0.00313053 0)
(1.0022 0.00338189 0)
(1.00227 0.00366005 0)
(1.00283 0.0037073 0)
(1.0033 0.00363713 0)
(1.00349 0.00370076 0)
(1.00342 0.00377402 0)
(1.00328 0.00401487 0)
(1.0001 8.81377e-05 0)
(1.00003 0.000146302 0)
(1.00022 0.000419328 0)
(1.00028 0.000984017 0)
(1.00081 0.00113055 0)
(1.0008 0.00113353 0)
(1.00067 0.00161055 0)
(1.00073 0.00217304 0)
(1.00097 0.00237912 0)
(1.00116 0.00259416 0)
(1.00154 0.00287355 0)
(1.0021 0.00301056 0)
(1.00234 0.00306492 0)
(1.0023 0.00327897 0)
(1.00235 0.00354262 0)
(1.00281 0.00364776 0)
(1.00328 0.00357994 0)
(1.00352 0.00363196 0)
(1.00352 0.00368952 0)
(1.00344 0.00382329 0)
(1.00009 7.56864e-05 0)
(1.00001 0.000161605 0)
(1.00024 0.000417802 0)
(1.00029 0.000954019 0)
(1.00077 0.00116393 0)
(1.00082 0.0011981 0)
(1.00078 0.00156672 0)
(1.00083 0.00208274 0)
(1.00102 0.00235813 0)
(1.00121 0.0025699 0)
(1.00159 0.00280128 0)
(1.00212 0.00292316 0)
(1.00238 0.00298909 0)
(1.0024 0.00318004 0)
(1.00243 0.0034187 0)
(1.00282 0.00356246 0)
(1.00326 0.00352169 0)
(1.00355 0.00354502 0)
(1.00357 0.00361959 0)
(1.00357 0.00366639 0)
(1.00009 6.52642e-05 0)
(1 0.000175604 0)
(1.00026 0.000421392 0)
(1.00031 0.000920928 0)
(1.00074 0.0011825 0)
(1.00082 0.00125765 0)
(1.00087 0.00154643 0)
(1.00093 0.00199316 0)
(1.00108 0.00230206 0)
(1.00127 0.00253474 0)
(1.00163 0.00273705 0)
(1.00212 0.00284754 0)
(1.00241 0.00291072 0)
(1.00249 0.00307787 0)
(1.00252 0.00329645 0)
(1.00284 0.00345707 0)
(1.00324 0.00345271 0)
(1.00357 0.00344711 0)
(1.0036 0.0035336 0)
(1.00364 0.00355628 0)
(1.00009 5.72725e-05 0)
(0.99999 0.000186198 0)
(1.00028 0.000429884 0)
(1.00033 0.000888091 0)
(1.00073 0.00118517 0)
(1.00083 0.00130548 0)
(1.00094 0.00154397 0)
(1.00102 0.00191599 0)
(1.00116 0.00222364 0)
(1.00133 0.00248294 0)
(1.00166 0.00267452 0)
(1.00213 0.00277692 0)
(1.00244 0.00283895 0)
(1.00256 0.002975 0)
(1.00262 0.00316809 0)
(1.00287 0.00334166 0)
(1.00322 0.00337232 0)
(1.00359 0.0033481 0)
(1.00364 0.00341926 0)
(1.00368 0.00346503 0)