/*--------------------------------*- C++ -*----------------------------------*\
| =========                 |                                                 |
| \\      /  F ield         | OpenFOAM: The Open Source CFD Toolbox           |
|  \\    /   O peration     | Version:  v1912                                 |
|   \\  /    A nd           | Website:  www.openfoam.com                      |
|    \\/     M anipulation  |                                                 |
\*---------------------------------------------------------------------------*/
FoamFile
{
    version     2.0;
    format      ascii;
    class       surfaceScalarField;
    location    "2.2";
    object      phi;
}
// * * * * * * * * * * * * * * * * * * * * * * * * * * * * * * * * * * * * * //

dimensions      [0 3 -1 0 0 0 0];
oriented        oriented;


internalField   nonuniform List<scalar> 
19000
(
1.15572e-06
2.29742e-07
1.12357e-06
-6.44622e-07
1.2571e-06
-1.37515e-06
1.20121e-06
1.24355e-06
1.11978e-06
-1.94967e-07
1.21874e-06
-6.11425e-07
1.23187e-06
-3.63592e-07
1.22425e-06
5.59176e-07
1.24146e-06
3.69661e-07
1.19942e-06
4.85569e-07
1.20282e-06
3.27287e-07
1.19327e-06
2.07582e-07
1.18449e-06
-3.91059e-07
1.1845e-06
-4.75686e-07
1.22288e-06
-6.77475e-07
1.21813e-06
-4.05383e-07
1.21931e-06
-2.35122e-07
1.20462e-06
2.50838e-09
1.197e-06
1.42424e-07
2.93897e-07
1.17574e-06
1.20842e-06
2.45588e-07
1.17371e-06
-6.09919e-07
1.3167e-06
-1.51814e-06
1.28425e-06
1.27601e-06
1.19837e-06
-1.09085e-07
1.28309e-06
-6.96147e-07
1.29507e-06
-3.7557e-07
1.29318e-06
5.6106e-07
1.30326e-06
3.59586e-07
1.27293e-06
5.15898e-07
1.26449e-06
3.3573e-07
1.26829e-06
2.03783e-07
1.2453e-06
-3.68075e-07
1.24557e-06
-4.75954e-07
1.2748e-06
-7.06703e-07
1.28479e-06
-4.15374e-07
1.27367e-06
-2.24004e-07
1.27873e-06
-2.55608e-09
1.24193e-06
1.79226e-07
2.73265e-07
1.26256e-06
1.26364e-06
2.64735e-07
1.22855e-06
-5.74834e-07
1.37364e-06
-1.66323e-06
1.37817e-06
1.27148e-06
1.28362e-06
-1.4536e-08
1.34901e-06
-7.61534e-07
1.36339e-06
-3.89947e-07
1.37006e-06
5.54382e-07
1.36958e-06
3.60072e-07
1.35474e-06
5.30736e-07
1.3367e-06
3.53766e-07
1.33967e-06
2.00819e-07
1.30373e-06
-3.32136e-07
1.30091e-06
-4.73133e-07
1.31699e-06
-7.22788e-07
1.34141e-06
-4.3979e-07
1.33063e-06
-2.13222e-07
1.33597e-06
-7.90113e-09
1.31167e-06
2.03532e-07
2.80589e-07
1.30434e-06
1.32247e-06
2.8637e-07
1.28911e-06
-5.41474e-07
1.42906e-06
-1.80318e-06
1.46888e-06
1.23166e-06
1.36786e-06
8.64864e-08
1.41164e-06
-8.05319e-07
1.43137e-06
-4.09675e-07
1.4475e-06
5.38256e-07
1.44064e-06
3.66932e-07
1.43428e-06
5.37092e-07
1.41322e-06
3.74826e-07
1.40535e-06
2.08686e-07
1.36411e-06
-2.90892e-07
1.35342e-06
-4.62439e-07
1.35866e-06
-7.28032e-07
1.38761e-06
-4.6874e-07
1.3881e-06
-2.13713e-07
1.3909e-06
-1.06937e-08
1.37931e-06
2.15117e-07
2.93905e-07
1.366e-06
1.38618e-06
3.0854e-07
1.35582e-06
-5.11114e-07
1.48247e-06
-1.92983e-06
1.54733e-06
1.1668e-06
1.44799e-06
1.85823e-07
1.47002e-06
-8.27351e-07
1.49705e-06
-4.36701e-07
1.52165e-06
5.13652e-07
1.51424e-06
3.74343e-07
1.50917e-06
5.42167e-07
1.48778e-06
3.96214e-07
1.46917e-06
2.27296e-07
1.42814e-06
-2.49867e-07
1.4112e-06
-4.45498e-07
1.40634e-06
-7.23173e-07
1.43328e-06
-4.95679e-07
1.44347e-06
-2.23897e-07
1.44926e-06
-1.64875e-08
1.44401e-06
2.2037e-07
3.04185e-07
1.43373e-06
1.45619e-06
3.28021e-07
1.42848e-06
-4.83401e-07
1.53403e-06
-2.03538e-06
1.61096e-06
1.08987e-06
1.524e-06
2.7278e-07
1.52699e-06
-8.30342e-07
1.56003e-06
-4.69739e-07
1.5917e-06
4.81978e-07
1.58695e-06
3.79095e-07
1.5797e-06
5.49417e-07
1.55739e-06
4.18531e-07
1.53368e-06
2.50999e-07
1.49575e-06
-2.11936e-07
1.47674e-06
-4.26488e-07
1.46279e-06
-7.0922e-07
1.48329e-06
-5.16179e-07
1.49808e-06
-2.38687e-07
1.50901e-06
-2.74191e-08
1.50976e-06
2.19623e-07
3.10591e-07
1.50335e-06
1.53298e-06
3.41256e-07
1.50673e-06
-4.57152e-07
1.58495e-06
-2.1136e-06
1.66324e-06
1.01158e-06
1.59738e-06
3.38642e-07
1.58673e-06
-8.19691e-07
1.62125e-06
-5.04255e-07
1.65755e-06
4.45671e-07
1.65545e-06
3.81202e-07
1.64572e-06
5.59144e-07
1.62216e-06
4.42092e-07
1.59932e-06
2.73831e-07
1.56663e-06
-1.7924e-07
1.54895e-06
-4.08812e-07
1.52842e-06
-6.88684e-07
1.54025e-06
-5.28014e-07
1.55477e-06
-2.53208e-07
1.5694e-06
-4.20487e-08
1.57692e-06
2.12106e-07
3.12853e-07
1.57466e-06
1.61552e-06
3.45863e-07
1.59019e-06
-4.31819e-07
1.63743e-06
-2.16084e-06
1.71035e-06
9.38661e-07
1.66971e-06
3.79283e-07
1.65223e-06
-8.0221e-07
1.68282e-06
-5.34849e-07
1.71967e-06
4.08827e-07
1.71831e-06
3.82561e-07
1.70723e-06
5.70217e-07
1.68386e-06
4.65463e-07
1.66622e-06
2.91475e-07
1.64054e-06
-1.53563e-07
1.62631e-06
-3.94577e-07
1.60228e-06
-6.64654e-07
1.6056e-06
-5.31331e-07
1.61649e-06
-2.64102e-07
1.63175e-06
-5.73129e-08
1.64532e-06
1.98539e-07
3.10791e-07
1.64738e-06
1.70177e-06
3.41672e-07
1.67815e-06
-4.08203e-07
1.69428e-06
-2.17696e-06
1.75824e-06
8.74694e-07
1.74221e-06
3.95311e-07
1.72436e-06
-7.84357e-07
1.7474e-06
-5.57892e-07
1.78e-06
3.76234e-07
1.77693e-06
3.8563e-07
1.76584e-06
5.81303e-07
1.74501e-06
4.86294e-07
1.73506e-06
3.01429e-07
1.71738e-06
-1.35883e-07
1.70762e-06
-3.84822e-07
1.68282e-06
-6.39849e-07
1.67927e-06
-5.27782e-07
1.68525e-06
-2.70085e-07
1.69818e-06
-7.02408e-08
1.71562e-06
1.811e-07
3.04854e-07
1.72155e-06
1.78987e-06
3.30521e-07
1.76962e-06
-3.87956e-07
1.75808e-06
-2.16541e-06
1.81142e-06
8.21352e-07
1.81598e-06
3.90746e-07
1.80245e-06
-7.7082e-07
1.8171e-06
-5.72548e-07
1.84182e-06
3.51514e-07
1.835e-06
3.92449e-07
1.82483e-06
5.91477e-07
1.80842e-06
5.02701e-07
1.80695e-06
3.02903e-07
1.7972e-06
-1.26134e-07
1.79209e-06
-3.79709e-07
1.76849e-06
-6.16253e-07
1.76013e-06
-5.19424e-07
1.76153e-06
-2.71481e-07
1.77019e-06
-7.89069e-08
1.78863e-06
1.62665e-07
2.96242e-07
1.79724e-06
1.87909e-06
3.15176e-07
1.86371e-06
-3.7257e-07
1.83044e-06
-2.13215e-06
1.87271e-06
7.79083e-07
1.89209e-06
3.7137e-07
1.88518e-06
-7.63915e-07
1.89283e-06
-5.80192e-07
1.90849e-06
3.35853e-07
1.89702e-06
4.03916e-07
1.88819e-06
6.00311e-07
1.8769e-06
5.13986e-07
1.8832e-06
2.96608e-07
1.88034e-06
-1.23277e-07
1.87932e-06
-3.78687e-07
1.85814e-06
-5.95071e-07
1.84673e-06
-5.08017e-07
1.84451e-06
-2.69258e-07
1.84812e-06
-8.25215e-08
1.86473e-06
1.46061e-07
2.86662e-07
1.8743e-06
1.96982e-06
2.98199e-07
1.9599e-06
-3.62656e-07
1.91169e-06
-2.08394e-06
1.94355e-06
7.47222e-07
1.97163e-06
3.43296e-07
1.9714e-06
-7.63687e-07
1.97435e-06
-5.8314e-07
1.9822e-06
3.27999e-07
1.96661e-06
4.1951e-07
1.95929e-06
6.07632e-07
1.95273e-06
5.20539e-07
1.96507e-06
2.84275e-07
1.96737e-06
-1.25583e-07
1.96932e-06
-3.80635e-07
1.95104e-06
-5.76792e-07
1.93782e-06
-4.94793e-07
1.93293e-06
-2.6437e-07
1.93156e-06
-8.11522e-08
1.94414e-06
1.3348e-07
2.77842e-07
1.95296e-06
2.063e-06
2.81384e-07
2.05819e-06
-3.57846e-07
2.00112e-06
-2.02686e-06
2.02434e-06
7.23994e-07
2.05574e-06
3.11898e-07
2.0605e-06
-7.68442e-07
2.0609e-06
-5.83544e-07
2.06373e-06
3.25174e-07
2.04568e-06
4.37555e-07
2.04012e-06
6.13194e-07
2.03738e-06
5.2328e-07
2.05362e-06
2.68028e-07
2.05905e-06
-1.31011e-07
2.06241e-06
-3.83998e-07
2.04686e-06
-5.61235e-07
2.03258e-06
-4.80513e-07
2.02578e-06
-2.57573e-07
2.02016e-06
-7.55298e-08
2.02762e-06
1.26017e-07
2.70996e-07
2.03447e-06
2.15965e-06
2.65737e-07
2.1589e-06
-3.57097e-07
2.0976e-06
-1.96556e-06
2.11483e-06
7.06765e-07
2.14557e-06
2.81155e-07
2.15261e-06
-7.75482e-07
2.15182e-06
-5.82759e-07
2.15277e-06
3.2423e-07
2.13452e-06
4.55803e-07
2.13123e-06
6.16482e-07
2.13138e-06
5.23127e-07
2.14953e-06
2.4988e-07
2.15611e-06
-1.37594e-07
2.1591e-06
-3.86986e-07
2.14552e-06
-5.47655e-07
2.13062e-06
-4.65609e-07
2.12252e-06
-2.49477e-07
2.11391e-06
-6.69148e-08
2.11643e-06
1.23489e-07
2.66471e-07
2.12096e-06
2.26052e-06
2.51703e-07
2.2625e-06
-3.59079e-07
2.20014e-06
-1.90319e-06
2.21438e-06
6.92518e-07
2.2421e-06
2.53443e-07
2.2485e-06
-7.81888e-07
2.24689e-06
-5.8115e-07
2.2486e-06
3.22528e-07
2.23239e-06
4.72006e-07
2.23216e-06
6.16716e-07
2.2346e-06
5.20689e-07
2.25297e-06
2.31508e-07
2.2591e-06
-1.43721e-07
2.25998e-06
-3.87866e-07
2.24723e-06
-5.34904e-07
2.23191e-06
-4.50298e-07
2.22302e-06
-2.40583e-07
2.213e-06
-5.68968e-08
2.21184e-06
1.24655e-07
2.63741e-07
2.21457e-06
2.36621e-06
2.39368e-07
2.36959e-06
-3.62453e-07
2.30809e-06
-1.84169e-06
2.32223e-06
6.78373e-07
2.34598e-06
2.29697e-07
2.34926e-06
-7.85171e-07
2.34636e-06
-5.7825e-07
2.35049e-06
3.18395e-07
2.33818e-06
4.84326e-07
2.34186e-06
6.13035e-07
2.34631e-06
5.16232e-07
2.36365e-06
2.14169e-07
2.36824e-06
-1.48313e-07
2.36564e-06
-3.85265e-07
2.35242e-06
-5.21684e-07
2.33678e-06
-4.3465e-07
2.32742e-06
-2.31227e-07
2.31762e-06
-4.70978e-08
2.31459e-06
1.27682e-07
2.61731e-07
2.3166e-06
2.47721e-06
2.28549e-07
2.48081e-06
-3.66047e-07
2.42113e-06
-1.78202e-06
2.43755e-06
6.61959e-07
2.45741e-06
2.09829e-07
2.4559e-06
-7.83659e-07
2.45082e-06
-5.73166e-07
2.45803e-06
3.11181e-07
2.45077e-06
4.91588e-07
2.45901e-06
6.04799e-07
2.46545e-06
5.09783e-07
2.48095e-06
1.98676e-07
2.48351e-06
-1.50876e-07
2.47666e-06
-3.78416e-07
2.46182e-06
-5.06846e-07
2.44577e-06
-4.18599e-07
2.43611e-06
-2.21569e-07
2.42782e-06
-3.87995e-08
2.42479e-06
1.30709e-07
2.59275e-07
2.42725e-06
2.59397e-06
2.18869e-07
2.59692e-06
-3.68989e-07
2.5392e-06
-1.7243e-06
2.55951e-06
6.41648e-07
2.57615e-06
1.93191e-07
2.56911e-06
-7.76617e-07
2.56101e-06
-5.65073e-07
2.57115e-06
3.01041e-07
2.56934e-06
4.93402e-07
2.58227e-06
5.91863e-07
2.59077e-06
5.01287e-07
2.60407e-06
1.8538e-07
2.60464e-06
-1.5145e-07
2.5935e-06
-3.67277e-07
2.57626e-06
-4.89609e-07
2.55969e-06
-4.02021e-07
2.54966e-06
-2.11546e-07
2.54352e-06
-3.2654e-08
2.54193e-06
1.32301e-07
2.55496e-07
2.5457e-06
2.71682e-06
2.09875e-07
2.71865e-06
-3.70815e-07
2.66243e-06
-1.66808e-06
2.68741e-06
6.1667e-07
2.70165e-06
1.7895e-07
2.68918e-06
-7.64146e-07
2.67768e-06
-5.53575e-07
2.69013e-06
2.88589e-07
2.69345e-06
4.9009e-07
2.71064e-06
5.74666e-07
2.72118e-06
4.90753e-07
2.73232e-06
1.74233e-07
2.73132e-06
-1.50446e-07
2.71649e-06
-3.52448e-07
2.69658e-06
-4.69693e-07
2.67935e-06
-3.84792e-07
2.66876e-06
-2.00961e-07
2.66466e-06
-2.85527e-08
2.66526e-06
1.317e-07
2.50019e-07
2.67074e-06
2.84596e-06
2.0118e-07
2.84663e-06
-3.71479e-07
2.79115e-06
-1.61261e-06
2.82074e-06
5.87087e-07
2.83337e-06
1.66318e-07
2.81618e-06
-7.46962e-07
2.80142e-06
-5.38815e-07
2.81541e-06
2.74601e-07
2.82306e-06
4.82438e-07
2.84365e-06
5.54085e-07
2.85608e-06
4.78322e-07
2.86538e-06
1.64934e-07
2.86334e-06
-1.48406e-07
2.84582e-06
-3.34933e-07
2.82342e-06
-4.47296e-07
2.8055e-06
-3.66871e-07
2.79411e-06
-1.89565e-07
2.79137e-06
-2.58194e-08
2.79423e-06
1.28846e-07
2.42956e-07
2.80129e-06
2.98152e-06
1.92558e-07
2.98128e-06
-3.71241e-07
2.92581e-06
-1.55714e-06
2.95929e-06
5.53603e-07
2.97094e-06
1.54673e-07
2.9501e-06
-7.26125e-07
2.93264e-06
-5.21357e-07
2.94743e-06
2.59818e-07
2.95848e-06
4.71385e-07
2.98143e-06
5.31138e-07
2.99548e-06
4.64266e-07
3.00331e-06
1.57111e-07
3.00067e-06
-1.45768e-07
2.98158e-06
-3.1585e-07
2.95723e-06
-4.22942e-07
2.9387e-06
-3.48343e-07
2.92636e-06
-1.77227e-07
2.92406e-06
-2.35146e-08
2.92875e-06
1.24154e-07
2.34715e-07
2.93699e-06
3.12362e-06
1.83946e-07
3.12286e-06
-3.70483e-07
3.06689e-06
-1.50117e-06
3.10326e-06
5.17234e-07
3.11433e-06
1.43604e-07
3.09096e-06
-7.02751e-07
3.07158e-06
-5.0198e-07
3.08654e-06
2.44858e-07
3.10013e-06
4.57796e-07
3.12455e-06
5.0672e-07
3.1399e-06
4.48909e-07
3.14657e-06
1.50444e-07
3.14354e-06
-1.42732e-07
3.12388e-06
-2.96191e-07
3.09822e-06
-3.97282e-07
3.07926e-06
-3.29389e-07
3.06607e-06
-1.64037e-07
3.06336e-06
-2.07995e-08
3.06925e-06
1.18257e-07
2.25736e-07
3.07823e-06
3.27247e-06
1.75384e-07
3.27153e-06
-3.69544e-07
3.21486e-06
-1.4445e-06
3.25311e-06
4.78986e-07
3.26383e-06
1.32885e-07
3.23886e-06
-6.77786e-07
3.21838e-06
-4.81494e-07
3.23307e-06
2.30169e-07
3.24849e-06
4.42373e-07
3.27373e-06
4.81483e-07
3.29008e-06
4.32556e-07
3.29581e-06
1.4471e-07
3.29237e-06
-1.39293e-07
3.27284e-06
-2.76656e-07
3.2465e-06
-3.70946e-07
3.22734e-06
-3.10228e-07
3.21361e-06
-1.50305e-07
3.20996e-06
-1.71452e-08
3.21642e-06
1.11789e-07
2.16289e-07
3.22587e-06
3.42837e-06
1.66942e-07
3.42748e-06
-3.68648e-07
3.37011e-06
-1.38714e-06
3.40943e-06
4.3967e-07
3.4199e-06
1.22413e-07
3.39401e-06
-6.51898e-07
3.37313e-06
-4.60613e-07
3.38732e-06
2.15986e-07
3.40399e-06
4.25702e-07
3.42962e-06
4.55853e-07
3.44673e-06
4.15444e-07
3.45166e-06
1.39784e-07
3.44773e-06
-1.35372e-07
3.42873e-06
-2.57654e-07
3.4022e-06
-3.44417e-07
3.38304e-06
-2.9107e-07
3.36918e-06
-1.36443e-07
3.36443e-06
-1.23941e-08
3.37093e-06
1.05288e-07
2.06453e-07
3.38077e-06
3.59168e-06
1.58676e-07
3.59093e-06
-3.679e-07
3.53301e-06
-1.32921e-06
3.5728e-06
3.99872e-07
3.5831e-06
1.12118e-07
3.55668e-06
-6.25474e-07
3.53597e-06
-4.39907e-07
3.54959e-06
2.02365e-07
3.56701e-06
4.08284e-07
3.59275e-06
4.30107e-07
3.61046e-06
3.9774e-07
3.61464e-06
1.35598e-07
3.61017e-06
-1.30901e-07
3.5919e-06
-2.3938e-07
3.5655e-06
-3.18015e-07
3.54649e-06
-2.7206e-07
3.53294e-06
-1.2289e-07
3.52717e-06
-6.63077e-09
3.53328e-06
9.91815e-08
1.96178e-07
3.54355e-06
3.76276e-06
1.50622e-07
3.76218e-06
-3.67325e-07
3.70388e-06
-1.27091e-06
3.74374e-06
3.60014e-07
3.75394e-06
1.01918e-07
3.72717e-06
-5.98709e-07
3.70704e-06
-4.19772e-07
3.72014e-06
1.8926e-07
3.7379e-06
3.90523e-07
3.76356e-06
4.04448e-07
3.78176e-06
3.7954e-07
3.78524e-06
1.3212e-07
3.78023e-06
-1.25889e-07
3.76274e-06
-2.21889e-07
3.73666e-06
-2.91937e-07
3.71788e-06
-2.53285e-07
3.70498e-06
-1.09989e-07
3.69848e-06
-1.25388e-10
3.70382e-06
9.38382e-08
1.85405e-07
3.71459e-06
3.94201e-06
1.42797e-07
3.94159e-06
-3.66904e-07
3.88309e-06
-1.21241e-06
3.92267e-06
3.20434e-07
3.93289e-06
9.16991e-08
3.90588e-06
-5.71695e-07
3.88655e-06
-4.00437e-07
3.89923e-06
1.7657e-07
3.91703e-06
3.72731e-07
3.94242e-06
3.79059e-07
3.96108e-06
3.60874e-07
3.96385e-06
1.29349e-07
3.95838e-06
-1.20413e-07
3.94164e-06
-2.05155e-07
3.91601e-06
-2.66307e-07
3.89751e-06
-2.34785e-07
3.88548e-06
-9.79531e-08
3.87858e-06
6.76628e-09
3.88287e-06
8.95527e-08
1.74176e-07
3.8941e-06
4.12984e-06
1.35209e-07
4.12953e-06
-3.666e-07
4.07104e-06
-1.15391e-06
4.11003e-06
2.81438e-07
4.12041e-06
8.13261e-08
4.09321e-06
-5.44504e-07
4.07475e-06
-3.81977e-07
4.08717e-06
1.64149e-07
4.10475e-06
3.55152e-07
4.1297e-06
3.54111e-07
4.14885e-06
3.41727e-07
4.15092e-06
1.27281e-07
4.14505e-06
-1.14543e-07
4.12905e-06
-1.89155e-07
4.10395e-06
-2.41209e-07
4.08571e-06
-2.16546e-07
4.07465e-06
-8.68928e-08
4.06771e-06
1.37022e-08
4.07078e-06
8.6491e-08
1.62707e-07
4.08224e-06
4.32665e-06
1.27863e-07
4.32641e-06
-3.66365e-07
4.26812e-06
-1.09562e-06
4.30623e-06
2.43328e-07
4.31689e-06
7.0663e-08
4.28962e-06
-5.17225e-07
4.27197e-06
-3.64333e-07
4.2843e-06
1.51823e-07
4.30149e-06
3.37962e-07
4.32582e-06
3.29775e-07
4.34549e-06
3.22061e-07
4.34688e-06
1.25886e-07
4.34063e-06
-1.08286e-07
4.32543e-06
-1.73962e-07
4.30092e-06
-2.1669e-07
4.28282e-06
-1.98452e-07
4.27279e-06
-7.68634e-08
4.26614e-06
2.03535e-08
4.26794e-06
8.46869e-08
1.51435e-07
4.27922e-06
4.53287e-06
1.20768e-07
4.53265e-06
-3.66143e-07
4.47479e-06
-1.03777e-06
4.51172e-06
2.06403e-07
4.52278e-06
5.96038e-08
4.49555e-06
-4.89998e-07
4.47856e-06
-3.47336e-07
4.491e-06
1.39375e-07
4.50769e-06
3.21273e-07
4.53121e-06
3.06256e-07
4.55144e-06
3.01836e-07
4.55225e-06
1.25077e-07
4.5455e-06
-1.01541e-07
4.53128e-06
-1.59739e-07
4.5073e-06
-1.92714e-07
4.48923e-06
-1.80382e-07
4.48027e-06
-6.79036e-08
4.47416e-06
2.64649e-08
4.47486e-06
8.39877e-08
1.40934e-07
4.48536e-06
4.74895e-06
1.13933e-07
4.74868e-06
-3.65869e-07
4.69152e-06
-9.80616e-07
4.72697e-06
1.70953e-07
4.73848e-06
4.80935e-08
4.7115e-06
-4.63014e-07
4.6949e-06
-3.30737e-07
4.70773e-06
1.26546e-07
4.72387e-06
3.05132e-07
4.74634e-06
2.83792e-07
4.76711e-06
2.81057e-07
4.76752e-06
1.24671e-07
4.76008e-06
-9.40979e-08
4.74699e-06
-1.46655e-07
4.72358e-06
-1.69302e-07
4.70539e-06
-1.62189e-07
4.69747e-06
-5.99827e-08
4.69213e-06
3.18058e-08
4.69196e-06
8.41594e-08
1.31723e-07
4.70117e-06
4.97536e-06
1.0737e-07
4.97496e-06
-3.65467e-07
4.91879e-06
-9.24451e-07
4.9525e-06
1.37247e-07
4.96446e-06
3.61358e-08
4.93794e-06
-4.365e-07
4.92146e-06
-3.14251e-07
4.93492e-06
1.13086e-07
4.95054e-06
2.89507e-07
4.97171e-06
2.62625e-07
4.99296e-06
2.59809e-07
4.99324e-06
1.24388e-07
4.98484e-06
-8.56951e-08
4.97301e-06
-1.34828e-07
4.95035e-06
-1.46639e-07
4.93183e-06
-1.43669e-07
4.9248e-06
-5.29593e-08
4.92041e-06
3.6198e-08
4.91971e-06
8.48612e-08
1.24178e-07
4.92725e-06
5.2126e-06
1.01089e-07
5.21198e-06
-3.64853e-07
5.1571e-06
-8.69563e-07
5.18882e-06
1.05518e-07
5.20118e-06
2.37838e-08
5.17537e-06
-4.1069e-07
5.15875e-06
-2.97632e-07
5.17287e-06
9.89601e-08
5.18822e-06
2.74157e-07
5.20787e-06
2.42976e-07
5.22941e-06
2.38269e-07
5.22992e-06
1.23881e-07
5.22034e-06
-7.61159e-08
5.20974e-06
-1.24229e-07
5.18821e-06
-1.25111e-07
5.16916e-06
-1.24618e-07
5.16272e-06
-4.65172e-08
5.15943e-06
3.9492e-08
5.15847e-06
8.58156e-08
1.18363e-07
5.16429e-06
5.46118e-06
9.50961e-08
5.46027e-06
-3.63937e-07
5.40694e-06
-8.16238e-07
5.4365e-06
7.59584e-08
5.44916e-06
1.1129e-08
5.42426e-06
-3.85792e-07
5.40741e-06
-2.80786e-07
5.42197e-06
8.43989e-08
5.43742e-06
2.58714e-07
5.45541e-06
2.24983e-07
5.47698e-06
2.16701e-07
5.47805e-06
1.22807e-07
5.4672e-06
-6.5263e-08
5.45765e-06
-1.14686e-07
5.43766e-06
-1.05117e-07
5.41809e-06
-1.05053e-07
5.41178e-06
-4.02018e-08
5.40964e-06
4.16347e-08
5.40872e-06
8.67305e-08
1.14086e-07
5.413e-06
5.72166e-06
8.93913e-08
5.72035e-06
-3.62624e-07
5.66885e-06
-7.64735e-07
5.6961e-06
4.8708e-08
5.70894e-06
-1.71729e-09
5.68514e-06
-3.61989e-07
5.66814e-06
-2.6379e-07
5.68273e-06
6.98152e-08
5.69861e-06
2.42832e-07
5.71494e-06
2.08656e-07
5.73615e-06
1.95484e-07
5.73815e-06
1.20814e-07
5.72606e-06
-5.31766e-08
5.71712e-06
-1.05745e-07
5.6992e-06
-8.71963e-08
5.67923e-06
-8.50894e-08
5.67254e-06
-3.35066e-08
5.67158e-06
4.25951e-08
5.67091e-06
8.73947e-08
1.10991e-07
5.67401e-06
5.99462e-06
8.39678e-08
5.99281e-06
-3.60821e-07
5.94336e-06
-7.15278e-07
5.96821e-06
2.38561e-08
5.98112e-06
-1.46315e-08
5.95856e-06
-3.3943e-07
5.9416e-06
-2.46824e-07
5.95573e-06
5.56817e-08
5.97229e-06
2.26277e-07
5.98707e-06
1.93872e-07
6.00755e-06
1.75001e-07
6.01067e-06
1.17699e-07
5.99763e-06
-4.01348e-08
5.98868e-06
-9.67951e-08
5.97328e-06
-7.18011e-08
5.95331e-06
-6.51181e-08
5.94571e-06
-2.59072e-08
5.94578e-06
4.25277e-08
5.94567e-06
8.75042e-08
1.08815e-07
5.94785e-06
6.28064e-06
7.88135e-08
6.27826e-06
-3.58441e-07
6.23104e-06
-6.68054e-07
6.25345e-06
1.44617e-09
6.26631e-06
-2.7496e-08
6.24505e-06
-3.18171e-07
6.22839e-06
-2.30165e-07
6.24161e-06
4.24703e-08
6.25894e-06
2.0894e-07
6.27245e-06
1.80368e-07
6.29182e-06
1.55628e-07
6.2961e-06
1.13414e-07
6.28257e-06
-2.65992e-08
6.27304e-06
-8.72658e-08
6.26037e-06
-5.91275e-08
6.24102e-06
-4.57745e-08
6.23205e-06
-1.69368e-08
6.23278e-06
4.17988e-08
6.23355e-06
8.67313e-08
1.07302e-07
6.23507e-06
6.58037e-06
7.39111e-08
6.57734e-06
-3.55406e-07
6.5325e-06
-6.23216e-07
6.55245e-06
-1.85045e-08
6.56517e-06
-4.02139e-08
6.54517e-06
-2.98177e-07
6.52913e-06
-2.14119e-07
6.54104e-06
3.05575e-08
6.55911e-06
1.90869e-07
6.57167e-06
1.67812e-07
6.58965e-06
1.37644e-07
6.59501e-06
1.08059e-07
6.58151e-06
-1.31055e-08
6.57104e-06
-7.67873e-08
6.56091e-06
-4.90019e-08
6.54296e-06
-2.78206e-08
6.53248e-06
-6.46447e-09
6.53315e-06
4.11329e-08
6.53509e-06
8.47899e-08
1.06051e-07
6.53634e-06
6.89446e-06
6.92421e-08
6.89071e-06
-3.51653e-07
6.84837e-06
-5.80877e-07
6.86587e-06
-3.60089e-08
6.87837e-06
-5.27152e-08
6.85954e-06
-2.79347e-07
6.84439e-06
-1.98968e-07
6.85487e-06
2.00744e-08
6.87338e-06
1.7236e-07
6.88534e-06
1.55857e-07
6.90176e-06
1.2122e-07
6.90801e-06
1.0181e-07
6.89504e-06
-1.36923e-10
6.88354e-06
-6.52832e-08
6.87539e-06
-4.08509e-08
6.85958e-06
-1.20109e-08
6.84799e-06
5.12137e-09
6.8477e-06
4.14223e-08
6.85078e-06
8.17165e-08
1.04499e-07
6.85233e-06
7.22359e-06
6.47837e-08
7.21907e-06
-3.47133e-07
7.17928e-06
-5.41086e-07
7.19439e-06
-5.11171e-08
7.20664e-06
-6.49647e-08
7.18886e-06
-2.61569e-07
7.17479e-06
-1.84894e-07
7.18397e-06
1.08941e-08
7.20246e-06
1.53871e-07
7.21402e-06
1.443e-07
7.2289e-06
1.06337e-07
7.23582e-06
9.48944e-08
7.22377e-06
1.19099e-08
7.21136e-06
-5.28756e-08
7.20451e-06
-3.4002e-08
7.1915e-06
1.0054e-09
7.17939e-06
1.72256e-08
7.17759e-06
4.32195e-08
7.1811e-06
7.82082e-08
1.01956e-07
7.18365e-06
7.5685e-06
6.05134e-08
7.56318e-06
-3.41816e-07
7.52597e-06
-5.03874e-07
7.53873e-06
-6.38817e-08
7.5507e-06
-7.69304e-08
7.53392e-06
-2.44792e-07
7.52092e-06
-1.71895e-07
7.5291e-06
2.71335e-09
7.54711e-06
1.35864e-07
7.55835e-06
1.33055e-07
7.57177e-06
9.29222e-08
7.57916e-06
8.75002e-08
7.56837e-06
2.27062e-08
7.55527e-06
-3.978e-08
7.54915e-06
-2.78808e-08
7.5393e-06
1.08575e-08
7.52747e-06
2.90536e-08
7.52408e-06
4.66108e-08
7.52726e-06
7.50248e-08
9.82786e-08
7.53094e-06
7.92992e-06
5.64055e-08
7.92379e-06
-3.35682e-07
7.88918e-06
-4.69264e-07
7.89965e-06
-7.43603e-08
7.91128e-06
-8.856e-08
7.89556e-06
-2.29067e-07
7.88337e-06
-1.59709e-07
7.89093e-06
-4.84083e-09
7.90818e-06
1.18614e-07
7.91905e-06
1.2218e-07
7.93109e-06
8.08825e-08
7.93885e-06
7.97439e-08
7.92953e-06
3.20224e-08
7.91604e-06
-2.62837e-08
7.91017e-06
-2.20203e-08
7.90336e-06
1.76699e-08
7.89299e-06
3.94248e-08
7.88867e-06
5.09345e-08
7.89142e-06
7.22752e-08
9.40301e-08
7.89567e-06
8.30865e-06
5.24322e-08
8.30169e-06
-3.28716e-07
8.2697e-06
-4.37272e-07
8.27797e-06
-8.26294e-08
8.28917e-06
-9.97593e-08
8.27465e-06
-2.14551e-07
8.26285e-06
-1.47913e-07
8.27009e-06
-1.20801e-08
8.28658e-06
1.02122e-07
8.29689e-06
1.11873e-07
8.30759e-06
7.01791e-08
8.31566e-06
7.16789e-08
8.30805e-06
3.96328e-08
8.29443e-06
-1.26633e-08
8.28841e-06
-1.60027e-08
8.28422e-06
2.18658e-08
8.27616e-06
4.74833e-08
8.27136e-06
5.57332e-08
8.27369e-06
6.99448e-08
8.98786e-08
8.27784e-06
8.70553e-06
4.85626e-08
8.69771e-06
-3.20893e-07
8.66834e-06
-4.07908e-07
8.67452e-06
-8.88058e-08
8.68512e-06
-1.10358e-07
8.67208e-06
-2.01509e-07
8.66027e-06
-1.3611e-07
8.66727e-06
-1.90724e-08
8.68321e-06
8.61829e-08
8.69275e-06
1.02326e-07
8.70207e-06
6.08637e-08
8.71037e-06
6.3374e-08
8.70469e-06
4.53124e-08
8.69128e-06
7.52057e-10
8.68463e-06
-9.35651e-09
8.68242e-06
2.40765e-08
8.67679e-06
5.31193e-08
8.67114e-06
6.13829e-08
8.672e-06
6.90851e-08
8.58232e-08
8.67605e-06
9.12142e-06
4.47631e-08
9.11266e-06
-3.12138e-07
9.08596e-06
-3.81208e-07
9.09022e-06
-9.30581e-08
9.09997e-06
-1.20108e-07
9.08872e-06
-1.90263e-07
9.07665e-06
-1.24041e-07
9.08317e-06
-2.55892e-08
9.09888e-06
7.04707e-08
9.10763e-06
9.35736e-08
9.11534e-06
5.31536e-08
9.12377e-06
5.49466e-08
9.12015e-06
4.89278e-08
9.10736e-06
1.35464e-08
9.09971e-06
-1.70717e-09
9.09841e-06
2.53749e-08
9.09501e-06
5.65175e-08
9.08893e-06
6.74703e-08
9.08821e-06
6.98039e-08
8.20681e-08
9.09196e-06
9.55722e-06
4.10002e-08
9.54743e-06
-3.02345e-07
9.52345e-06
-3.57227e-07
9.52597e-06
-9.5582e-08
9.53455e-06
-1.28689e-07
9.5254e-06
-1.81112e-07
9.51313e-06
-1.11765e-07
9.51855e-06
-3.10091e-08
9.53436e-06
5.46543e-08
9.5425e-06
8.54404e-08
9.54833e-06
4.73173e-08
9.5566e-06
4.66754e-08
9.55509e-06
5.04456e-08
9.54327e-06
2.53662e-08
9.53455e-06
7.01245e-09
9.53298e-06
2.69462e-08
9.53139e-06
5.80989e-08
9.52615e-06
7.27107e-08
9.52388e-06
7.20733e-08
7.88486e-08
9.5271e-06
1.00139e-05
3.72404e-08
1.00031e-05
-2.91536e-07
9.98174e-06
-3.35885e-07
9.98274e-06
-9.65766e-08
9.98983e-06
-1.35781e-07
9.98292e-06
-1.74206e-07
9.97084e-06
-9.96768e-08
9.97435e-06
-3.45231e-08
9.99027e-06
3.8731e-08
9.9983e-06
7.74115e-08
1.0002e-05
4.36282e-08
1.00096e-05
3.907e-08
1.001e-05
5.00621e-08
9.99961e-06
3.5731e-08
9.99e-06
1.66257e-08
9.98729e-06
2.96596e-08
9.98689e-06
5.84986e-08
9.98347e-06
7.61264e-08
9.98049e-06
7.50515e-08
7.66585e-08
9.98268e-06
1.04924e-05
3.34563e-08
1.04807e-05
-2.79857e-07
1.04618e-05
-3.16957e-07
1.04615e-05
-9.62786e-08
1.04668e-05
-1.41073e-07
1.04621e-05
-1.69521e-07
1.04508e-05
-8.83761e-08
1.04518e-05
-3.54944e-08
1.04673e-05
2.32528e-08
1.04759e-05
6.88097e-08
1.04773e-05
4.21938e-08
1.04834e-05
3.29584e-08
1.04854e-05
4.81319e-08
1.0477e-05
4.40758e-08
1.04671e-05
2.65358e-08
1.0463e-05
3.3748e-08
1.04631e-05
5.84253e-08
1.04618e-05
7.7408e-08
1.04592e-05
7.76862e-08
7.5749e-08
1.04601e-05
1.09939e-05
2.96213e-08
1.09814e-05
-2.67437e-07
1.09646e-05
-3.00169e-07
1.09634e-05
-9.50019e-08
1.09666e-05
-1.44321e-07
1.09639e-05
-1.66814e-07
1.0954e-05
-7.85051e-08
1.09523e-05
-3.37087e-08
1.09663e-05
9.16056e-09
1.09759e-05
5.92456e-08
1.09757e-05
4.24531e-08
1.0979e-05
2.96453e-08
1.09821e-05
4.49715e-08
1.09764e-05
4.98313e-08
1.09671e-05
3.57608e-08
1.09621e-05
3.87628e-08
1.09622e-05
5.83711e-08
1.09626e-05
7.70261e-08
1.09613e-05
7.89986e-08
7.57795e-08
1.09612e-05
1.15193e-05
2.5706e-08
1.15062e-05
-2.54357e-07
1.14913e-05
-2.8527e-07
1.14894e-05
-9.30798e-08
1.14904e-05
-1.45374e-07
1.14893e-05
-1.65707e-07
1.14817e-05
-7.08391e-08
1.14772e-05
-2.92638e-08
1.14889e-05
-2.48124e-09
1.14994e-05
4.87072e-08
1.14986e-05
4.32137e-08
1.14988e-05
2.95115e-08
1.15022e-05
4.15768e-08
1.14991e-05
5.29023e-08
1.14915e-05
4.33993e-08
1.14863e-05
4.39368e-08
1.1486e-05
5.86159e-08
1.14873e-05
7.57368e-08
1.14875e-05
7.88522e-08
7.60035e-08
1.14872e-05
1.20699e-05
2.16695e-08
1.20562e-05
-2.40662e-07
1.20429e-05
-2.72034e-07
1.20407e-05
-9.08397e-08
1.20395e-05
-1.44179e-07
1.20395e-05
-1.65692e-07
1.20345e-05
-6.59046e-08
1.20281e-05
-2.28224e-08
1.20364e-05
-1.07786e-08
1.20476e-05
3.75054e-08
1.20475e-05
4.33135e-08
1.20454e-05
3.16536e-08
1.20478e-05
3.91617e-08
1.20469e-05
5.37921e-08
1.20412e-05
4.90505e-08
1.20363e-05
4.88506e-08
1.20358e-05
5.91694e-08
1.20374e-05
7.4107e-08
1.20385e-05
7.7764e-08
7.57183e-08
1.20388e-05
1.26468e-05
1.7461e-08
1.26325e-05
-2.26358e-07
1.26208e-05
-2.60293e-07
1.26185e-05
-8.85759e-08
1.26151e-05
-1.40774e-07
1.26156e-05
-1.6616e-07
1.26136e-05
-6.39446e-08
1.26061e-05
-1.53786e-08
1.26107e-05
-1.53027e-08
1.26217e-05
2.64398e-08
1.26231e-05
4.19227e-08
1.26198e-05
3.50218e-08
1.26206e-05
3.82994e-08
1.2621e-05
5.34008e-08
1.26173e-05
5.27288e-08
1.26132e-05
5.30213e-08
1.26123e-05
6.00073e-08
1.26141e-05
7.23815e-08
1.26157e-05
7.61393e-08
7.48892e-08
1.26165e-05
1.32514e-05
1.30221e-08
1.32365e-05
-2.11437e-07
1.3226e-05
-2.49856e-07
1.3224e-05
-8.65866e-08
1.32185e-05
-1.35289e-07
1.32188e-05
-1.66407e-07
1.32199e-05
-6.50079e-08
1.32125e-05
-8.03539e-09
1.32133e-05
-1.60693e-08
1.32231e-05
1.65671e-08
1.32263e-05
3.88178e-08
1.32227e-05
3.85842e-08
1.32221e-05
3.89239e-08
1.32229e-05
5.25924e-08
1.32208e-05
5.47899e-08
1.32178e-05
5.60156e-08
1.32168e-05
6.09902e-08
1.32184e-05
7.08471e-08
1.32205e-05
7.40471e-08
7.37633e-08
1.32216e-05
1.38849e-05
8.30552e-09
1.38694e-05
-1.95907e-07
1.386e-05
-2.40529e-07
1.38586e-05
-8.51545e-08
1.38513e-05
-1.27949e-07
1.38506e-05
-1.65704e-07
1.38544e-05
-6.88612e-08
1.38483e-05
-1.94212e-09
1.38457e-05
-1.34622e-08
1.38534e-05
8.87936e-09
1.38579e-05
3.42776e-08
1.3855e-05
4.14663e-08
1.38533e-05
4.07064e-08
1.38539e-05
5.19441e-08
1.3853e-05
5.56614e-08
1.38512e-05
5.78421e-08
1.38506e-05
6.16493e-08
1.38517e-05
6.97419e-08
1.3854e-05
7.16877e-08
7.21954e-08
1.38556e-05
1.45487e-05
3.29094e-09
1.45326e-05
-1.79851e-07
1.45241e-05
-2.31991e-07
1.45235e-05
-8.45865e-08
1.45146e-05
-1.19055e-07
1.45123e-05
-1.63403e-07
1.45184e-05
-7.49415e-08
1.45146e-05
1.86093e-09
1.45093e-05
-8.17092e-09
1.45141e-05
4.08461e-09
1.45195e-05
2.89008e-08
1.45179e-05
4.30392e-08
1.45154e-05
4.3179e-08
1.45156e-05
5.17887e-08
1.45155e-05
5.57131e-08
1.45146e-05
5.87701e-08
1.45146e-05
6.16091e-08
1.45155e-05
6.88581e-08
1.45177e-05
6.95364e-08
6.99646e-08
1.45199e-05
1.52441e-05
-1.9768e-09
1.52278e-05
-1.63492e-07
1.52195e-05
-2.23703e-07
1.52201e-05
-8.51576e-08
1.521e-05
-1.08994e-07
1.52056e-05
-1.58959e-07
1.52132e-05
-8.25444e-08
1.52122e-05
2.79914e-09
1.52053e-05
-1.25111e-09
1.5207e-05
2.3959e-09
1.52124e-05
2.34984e-08
1.52124e-05
4.30411e-08
1.52099e-05
4.57188e-08
1.52094e-05
5.22058e-08
1.52098e-05
5.53508e-08
1.52096e-05
5.9025e-08
1.52102e-05
6.09556e-08
1.52114e-05
6.7642e-08
1.52131e-05
6.78864e-08
6.72376e-08
1.52158e-05
1.59727e-05
-7.38273e-09
1.59565e-05
-1.47214e-07
1.59477e-05
-2.14972e-07
1.59494e-05
-8.68346e-08
1.59388e-05
-9.83796e-08
1.59316e-05
-1.51786e-07
1.594e-05
-9.08809e-08
1.5942e-05
7.17807e-10
1.59349e-05
5.8969e-09
1.59338e-05
3.50678e-09
1.59384e-05
1.88662e-08
1.59399e-05
4.15881e-08
1.59378e-05
4.77406e-08
1.5937e-05
5.30463e-08
1.59374e-05
5.49423e-08
1.59377e-05
5.86852e-08
1.59387e-05
5.99881e-08
1.59406e-05
6.57878e-08
1.5942e-05
6.64977e-08
6.459e-08
1.59446e-05
1.6736e-05
-1.27542e-08
1.67202e-05
-1.31452e-07
1.67104e-05
-2.05181e-07
1.6713e-05
-8.93791e-08
1.67025e-05
-8.79039e-08
1.66921e-05
-1.4137e-07
1.66999e-05
-9.86893e-08
1.6705e-05
-4.39935e-09
1.66991e-05
1.17464e-08
1.6696e-05
6.67484e-09
1.66993e-05
1.55776e-08
1.67019e-05
3.89882e-08
1.67008e-05
4.88398e-08
1.66997e-05
5.40798e-08
1.67e-05
5.46619e-08
1.67008e-05
5.78891e-08
1.67019e-05
5.88663e-08
1.67043e-05
6.34664e-08
1.67059e-05
6.48322e-08
6.24299e-08
1.67081e-05
1.75355e-05
-1.78865e-08
1.75206e-05
-1.16606e-07
1.75095e-05
-1.94008e-07
1.75123e-05
-9.22503e-08
1.7503e-05
-7.85916e-08
1.74897e-05
-1.28006e-07
1.74946e-05
-1.03657e-07
1.75026e-05
-1.23499e-08
1.74994e-05
1.49788e-08
1.74952e-05
1.0841e-08
1.74968e-05
1.39247e-08
1.75e-05
3.57874e-08
1.75002e-05
4.87295e-08
1.74992e-05
5.50185e-08
1.74993e-05
5.45353e-08
1.75004e-05
5.68513e-08
1.75017e-05
5.75355e-08
1.75041e-05
6.1078e-08
1.75064e-05
6.25306e-08
6.06475e-08
1.75082e-05
1.8373e-05
-2.25718e-08
1.83595e-05
-1.03051e-07
1.83469e-05
-1.81391e-07
1.83494e-05
-9.48257e-08
1.83421e-05
-7.12183e-08
1.83272e-05
-1.13095e-07
1.83277e-05
-1.04174e-07
1.83372e-05
-2.19147e-08
1.83371e-05
1.51354e-08
1.83329e-05
1.50092e-08
1.8333e-05
1.38483e-08
1.83362e-05
3.25798e-08
1.83376e-05
4.73491e-08
1.83371e-05
5.54535e-08
1.83371e-05
5.4577e-08
1.83382e-05
5.57947e-08
1.83398e-05
5.58968e-08
1.8342e-05
5.882e-08
1.83448e-05
5.97851e-08
5.8715e-08
1.83467e-05
1.92504e-05
-2.66292e-08