/*--------------------------------*- C++ -*----------------------------------*\
| =========                 |                                                 |
| \\      /  F ield         | OpenFOAM: The Open Source CFD Toolbox           |
|  \\    /   O peration     | Version:  v1912                                 |
|   \\  /    A nd           | Website:  www.openfoam.com                      |
|    \\/     M anipulation  |                                                 |
\*---------------------------------------------------------------------------*/
FoamFile
{
    version     2.0;
    format      ascii;
    class       surfaceScalarField;
    location    "3.15";
    object      phi;
}
// * * * * * * * * * * * * * * * * * * * * * * * * * * * * * * * * * * * * * //

dimensions      [0 3 -1 0 0 0 0];
oriented        oriented;


internalField   nonuniform List<scalar> 
19000
(
1.15918e-06
-8.60154e-07
1.1723e-06
1.44807e-06
1.13673e-06
-2.82937e-07
1.16486e-06
-4.8756e-07
1.19608e-06
-2.11116e-06
1.22892e-06
-3.65248e-07
1.23867e-06
1.02525e-06
1.22715e-06
8.5271e-07
1.24414e-06
2.1393e-06
1.19997e-06
-1.87225e-07
1.2003e-06
2.89391e-08
1.12977e-06
-1.37307e-06
1.1516e-06
-1.12022e-06
1.09857e-06
-1.291e-06
1.12946e-06
-1.12981e-06
1.13586e-06
-6.97356e-07
1.1505e-06
-7.21626e-07
1.17358e-06
-2.1902e-07
1.18472e-06
-1.62656e-07
3.28599e-08
1.17228e-06
1.21913e-06
-8.55026e-07
1.23243e-06
1.43478e-06
1.19343e-06
-2.43937e-07
1.2163e-06
-5.10426e-07
1.25156e-06
-2.14642e-06
1.28706e-06
-4.00754e-07
1.29673e-06
1.01559e-06
1.28941e-06
8.60026e-07
1.29912e-06
2.12958e-06
1.26816e-06
-1.56257e-07
1.25503e-06
4.2068e-08
1.20543e-06
-1.32347e-06
1.20701e-06
-1.1218e-06
1.17666e-06
-1.26065e-06
1.18853e-06
-1.14168e-06
1.20836e-06
-7.17182e-07
1.20464e-06
-7.17914e-07
1.24479e-06
-2.59162e-07
1.23097e-06
-1.48841e-07
1.02885e-08
1.25354e-06
1.28175e-06
-8.53995e-07
1.2947e-06
1.42183e-06
1.2513e-06
-2.00532e-07
1.26632e-06
-5.25448e-07
1.30425e-06
-2.18435e-06
1.34655e-06
-4.4305e-07
1.35917e-06
1.00296e-06
1.35177e-06
8.67432e-07
1.36297e-06
2.11838e-06
1.33766e-06
-1.30942e-07
1.32027e-06
5.94541e-08
1.27936e-06
-1.28256e-06
1.26574e-06
-1.10818e-06
1.25514e-06
-1.25005e-06
1.24982e-06
-1.13636e-06
1.27361e-06
-7.40975e-07
1.26744e-06
-7.11739e-07
1.29347e-06
-2.85199e-07
1.29559e-06
-1.50952e-07
6.89141e-09
1.29898e-06
1.3464e-06
-8.56289e-07
1.35636e-06
1.41186e-06
1.31187e-06
-1.56042e-07
1.31871e-06
-5.32285e-07
1.35579e-06
-2.22143e-06
1.40517e-06
-4.92432e-07
1.42417e-06
9.83964e-07
1.41797e-06
8.73629e-07
1.43119e-06
2.10517e-06
1.40868e-06
-1.08437e-07
1.38714e-06
8.09961e-08
1.34764e-06
-1.24306e-06
1.32662e-06
-1.08716e-06
1.32117e-06
-1.24459e-06
1.31225e-06
-1.12744e-06
1.33395e-06
-7.62674e-07
1.33377e-06
-7.11563e-07
1.35103e-06
-3.02454e-07
1.36076e-06
-1.60684e-07
2.77886e-09
1.36487e-06
1.41211e-06
-8.60049e-07
1.418e-06
1.40597e-06
1.37747e-06
-1.15505e-07
1.37716e-06
-5.31976e-07
1.40844e-06
-2.25272e-06
1.46301e-06
-5.46999e-07
1.49059e-06
9.56381e-07
1.48806e-06
8.76162e-07
1.50378e-06
2.08945e-06
1.48093e-06
-8.55876e-08
1.458e-06
1.03926e-07
1.41769e-06
-1.20275e-06
1.39297e-06
-1.06244e-06
1.38705e-06
-1.23866e-06
1.37897e-06
-1.11936e-06
1.39758e-06
-7.81283e-07
1.40047e-06
-7.14454e-07
1.41678e-06
-3.18765e-07
1.42786e-06
-1.71766e-07
-5.00892e-09
1.43565e-06
1.47893e-06
-8.63299e-07
1.48191e-06
1.40299e-06
1.44953e-06
-8.31269e-08
1.44339e-06
-5.25832e-07
1.46442e-06
-2.27375e-06
1.52185e-06
-6.04427e-07
1.55835e-06
9.19874e-07
1.56205e-06
8.72468e-07
1.57951e-06
2.07198e-06
1.55496e-06
-6.10313e-08
1.53168e-06
1.27205e-07
1.48905e-06
-1.16012e-06
1.462e-06
-1.0354e-06
1.4535e-06
-1.23016e-06
1.44695e-06
-1.11281e-06
1.46417e-06
-7.98508e-07
1.46875e-06
-7.19037e-07
1.48504e-06
-3.35053e-07
1.49725e-06
-1.83972e-07
-1.42419e-08
1.50648e-06
1.54763e-06
-8.64708e-07
1.55035e-06
1.40026e-06
1.52799e-06
-6.07658e-08
1.51686e-06
-5.14696e-07
1.52489e-06
-2.28178e-06
1.58345e-06
-6.62982e-07
1.62765e-06
8.75666e-07
1.63906e-06
8.61061e-07
1.65768e-06
2.05337e-06
1.63051e-06
-3.38614e-08
1.60846e-06
1.4925e-07
1.56403e-06
-1.11569e-06
1.53579e-06
-1.00717e-06
1.52324e-06
-1.2176e-06
1.5169e-06
-1.10647e-06
1.53317e-06
-8.14773e-07
1.53998e-06
-7.25848e-07
1.55576e-06
-3.50832e-07
1.56924e-06
-1.97452e-07
-2.40353e-08
1.57903e-06
1.61925e-06
-8.63824e-07
1.62421e-06
1.3953e-06
1.61149e-06
-4.80488e-08
1.59611e-06
-4.99312e-07
1.59026e-06
-2.27593e-06
1.64831e-06
-7.2104e-07
1.69775e-06
8.26228e-07
1.71723e-06
8.41582e-07
1.73692e-06
2.03368e-06
1.70731e-06
-4.25611e-09
1.68773e-06
1.68828e-07
1.64218e-06
-1.07013e-06
1.61409e-06
-9.79075e-07
1.5966e-06
-1.20011e-06
1.58941e-06
-1.09929e-06
1.60403e-06
-8.29389e-07
1.61362e-06
-7.3544e-07
1.62961e-06
-3.66821e-07
1.64485e-06
-2.12699e-07
-3.47782e-08
1.6556e-06
1.69455e-06
-8.60798e-07
1.70302e-06
1.38683e-06
1.69817e-06
-4.32012e-08
1.67996e-06
-4.81104e-07
1.6608e-06
-2.25677e-06
1.71578e-06
-7.76027e-07
1.76712e-06
7.74892e-07
1.79417e-06
8.14529e-07
1.81596e-06
2.0119e-06
1.78507e-06
2.66289e-08
1.76924e-06
1.84664e-07
1.72368e-06
-1.02458e-06
1.69702e-06
-9.52411e-07
1.67438e-06
-1.17747e-06
1.6655e-06
-1.0904e-06
1.67681e-06
-8.40699e-07
1.68868e-06
-7.47309e-07
1.70593e-06
-3.84073e-07
1.72381e-06
-2.30579e-07
-4.77384e-08
1.73677e-06
1.77387e-06
-8.5595e-07
1.78601e-06
1.37469e-06
1.7866e-06
-4.37842e-08
1.76776e-06
-4.62264e-07
1.73694e-06
-2.22595e-06
1.78506e-06
-8.24145e-07
1.83461e-06
7.25334e-07
1.8682e-06
7.80942e-07
1.89406e-06
1.98603e-06
1.86375e-06
5.69447e-08
1.85262e-06
1.95793e-07
1.80803e-06
-9.7999e-07
1.78388e-06
-9.28267e-07
1.75677e-06
-1.15036e-06
1.74586e-06
-1.07949e-06
1.75204e-06
-8.46882e-07
1.76461e-06
-7.59876e-07
1.78342e-06
-4.0289e-07
1.80419e-06
-2.51347e-07
-6.43616e-08
1.82082e-06
1.85731e-06
-8.49515e-07
1.87289e-06
1.35911e-06
1.87638e-06
-4.72701e-08
1.85904e-06
-4.44921e-07
1.81903e-06
-2.18594e-06
1.85644e-06
-8.61556e-07
1.901e-06
6.80777e-07
1.93955e-06
7.4239e-07
1.97162e-06
1.95396e-06
1.94385e-06
8.47205e-08
1.93795e-06
2.0169e-07
1.89499e-06
-9.37028e-07
1.87406e-06
-9.07346e-07
1.84374e-06
-1.12003e-06
1.83089e-06
-1.06665e-06
1.83067e-06
-8.46661e-07
1.84169e-06
-7.70899e-07
1.86121e-06
-4.22412e-07
1.88378e-06
-2.73917e-07
-8.52552e-08
1.90468e-06
1.94495e-06
-8.41629e-07
1.96381e-06
1.34025e-06
1.96812e-06
-5.15865e-08
1.95344e-06
-4.30234e-07
1.90705e-06
-2.13955e-06
1.93184e-06
-8.86345e-07
1.96964e-06
6.4298e-07
2.01091e-06
7.01111e-07
2.05029e-06
1.91459e-06
2.0264e-06
1.08606e-07
2.02561e-06
2.02482e-07
1.98448e-06
-8.959e-07
1.96697e-06
-8.89839e-07
1.93494e-06
-1.088e-06
1.92061e-06
-1.05232e-06
1.91374e-06
-8.39786e-07
1.92102e-06
-7.78177e-07
1.93953e-06
-4.40925e-07
1.96152e-06
-2.95908e-07
-1.0955e-07
1.98582e-06
2.03694e-06
-8.32384e-07
2.05895e-06
1.31825e-06
2.06289e-06
-5.55228e-08
2.05088e-06
-4.18231e-07
2.00066e-06
-2.08933e-06
2.01386e-06
-8.99548e-07
2.04516e-06
6.11684e-07
2.08638e-06
6.59887e-07
2.13238e-06
1.86859e-06
2.11269e-06
1.2829e-07
2.11637e-06
1.9881e-07
2.07694e-06
-8.56471e-07
2.06249e-06
-8.75391e-07
2.03007e-06
-1.05558e-06
2.01483e-06
-1.03708e-06
2.0021e-06
-8.27054e-07
2.00418e-06
-7.80254e-07
2.01978e-06
-4.56532e-07
2.03822e-06
-3.14349e-07
-1.35022e-07
2.0637e-06
2.13345e-06
-8.2183e-07
2.15831e-06
1.29338e-06
2.16157e-06
-5.87773e-08
2.15175e-06
-4.08416e-07
2.09939e-06
-2.03696e-06
2.10402e-06
-9.04185e-07
2.13056e-06
5.85146e-07
2.16911e-06
6.21345e-07
2.21978e-06
1.81791e-06
2.2038e-06
1.44269e-07
2.21113e-06
1.91485e-07
2.17307e-06
-8.18416e-07
2.16095e-06
-8.63269e-07
2.12895e-06
-1.02358e-06
2.11327e-06
-1.02139e-06
2.09617e-06
-8.09959e-07
2.09267e-06
-7.76754e-07
2.1041e-06
-4.67959e-07
2.11638e-06
-3.26629e-07
-1.58864e-07
2.14022e-06
2.23461e-06
-8.09953e-07
2.26183e-06
1.26616e-06
2.26469e-06
-6.16303e-08
2.25671e-06
-4.00445e-07
2.20289e-06
-1.98314e-06
2.20193e-06
-9.03219e-07
2.22562e-06
5.61454e-07
2.2599e-06
5.8706e-07
2.31332e-06
1.7645e-06
2.3004e-06
1.57192e-07
2.31076e-06
1.81121e-07
2.27373e-06
-7.81387e-07
2.2631e-06
-8.52639e-07
2.23175e-06
-9.92225e-07
2.21579e-06
-1.00544e-06
2.19597e-06
-7.9014e-07
2.18744e-06
-7.68223e-07
2.19448e-06
-4.74991e-07
2.19925e-06
-3.31409e-07
-1.78635e-07
2.21903e-06
2.3406e-06
-7.96677e-07
2.36965e-06
1.23711e-06
2.37251e-06
-6.44917e-08
2.3664e-06
-3.94332e-07
2.31107e-06
-1.92781e-06
2.30606e-06
-8.98213e-07
2.32799e-06
5.39525e-07
2.35786e-06
5.57189e-07
2.41305e-06
1.70931e-06
2.40282e-06
1.6742e-07
2.41591e-06
1.68032e-07
2.37959e-06
-7.45064e-07
2.36975e-06
-8.42797e-07
2.33883e-06
-9.61314e-07
2.32255e-06
-9.89152e-07
2.30136e-06
-7.6895e-07
2.28872e-06
-7.55584e-07
2.29214e-06
-4.78413e-07
2.28981e-06
-3.29077e-07
-1.92864e-07
2.30403e-06
2.45164e-06
-7.81917e-07
2.48214e-06
1.2066e-06
2.48526e-06
-6.7606e-08
2.48118e-06
-3.9025e-07
2.42404e-06
-1.87068e-06
2.4153e-06
-8.89466e-07
2.43569e-06
5.1913e-07
2.46204e-06
5.30839e-07
2.51899e-06
1.65236e-06
2.51133e-06
1.75083e-07
2.52698e-06
1.52386e-07
2.49107e-06
-7.09157e-07
2.48153e-06
-8.33257e-07
2.45073e-06
-9.30512e-07
2.43386e-06
-9.7229e-07
2.41226e-06
-7.47344e-07
2.39627e-06
-7.39599e-07
2.39732e-06
-4.79457e-07
2.38957e-06
-3.21328e-07
-2.01247e-07
2.39795e-06
2.568e-06
-7.65622e-07
2.59983e-06
1.17477e-06
2.60322e-06
-7.09994e-08
2.60123e-06
-3.88262e-07
2.54206e-06
-1.8115e-06
2.52949e-06
-8.76895e-07
2.54829e-06
5.00328e-07
2.57235e-06
5.06777e-07
2.63145e-06
1.59326e-06
2.62616e-06
1.80376e-07
2.64414e-06
1.34405e-07
2.60841e-06
-6.73426e-07
2.59883e-06
-8.23678e-07
2.5679e-06
-8.99583e-07
2.55016e-06
-9.54552e-07
2.52883e-06
-7.26014e-07
2.50987e-06
-7.20636e-07
2.50962e-06
-4.79204e-07
2.49851e-06
-3.10221e-07
-2.04511e-07
2.50177e-06
2.68998e-06
-7.47771e-07
2.72316e-06
1.14159e-06
2.72672e-06
-7.45637e-08
2.7267e-06
-3.88244e-07
2.66542e-06
-1.75022e-06
2.64918e-06
-8.60653e-07
2.66653e-06
4.82977e-07
2.68936e-06
4.83945e-07
2.75088e-06
1.53175e-06
2.74753e-06
1.83725e-07
2.76749e-06
1.14447e-07
2.73177e-06
-6.37709e-07
2.72186e-06
-8.13765e-07
2.69077e-06
-8.68494e-07
2.6718e-06
-9.35587e-07
2.65138e-06
-7.05588e-07
2.62952e-06
-6.98779e-07
2.62854e-06
-4.78219e-07
2.61605e-06
-2.97738e-07
-2.03696e-07
2.61524e-06
2.81785e-06
-7.28351e-07
2.85248e-06
1.10697e-06
2.85607e-06
-7.81525e-08
2.85777e-06
-3.89945e-07
2.79447e-06
-1.68693e-06
2.77504e-06
-8.41219e-07
2.79136e-06
4.66657e-07
2.81368e-06
4.61626e-07
2.87762e-06
1.46781e-06
2.87561e-06
1.85734e-07
2.89708e-06
9.29813e-08
2.86134e-06
-6.01973e-07
2.85078e-06
-8.03204e-07
2.81968e-06
-8.37398e-07
2.79908e-06
-9.14983e-07
2.78016e-06
-6.86674e-07
2.75552e-06
-6.74134e-07
2.75379e-06
-4.76492e-07
2.7416e-06
-2.85542e-07
-1.99777e-07
2.73768e-06
2.95189e-06
-7.07349e-07
2.98806e-06
1.0708e-06
2.99154e-06
-8.16287e-08
2.99467e-06
-3.93083e-07
2.92956e-06
-1.62182e-06
2.90758e-06
-8.19231e-07
2.92341e-06
4.50826e-07
2.94562e-06
4.39417e-07
3.01183e-06
1.4016e-06
3.01052e-06
1.87042e-07
3.03299e-06
7.05136e-08
2.99735e-06
-5.66333e-07
2.98579e-06
-7.91652e-07
2.95497e-06
-8.06577e-07
2.93227e-06
-8.92277e-07
2.91534e-06
-6.69748e-07
2.88834e-06
-6.47134e-07
2.88538e-06
-4.73528e-07
2.87474e-06
-2.74905e-07
-1.9364e-07
2.8686e-06
3.09242e-06
-6.84761e-07
3.13015e-06
1.03307e-06
3.13339e-06
-8.48646e-08
3.1377e-06
-3.97398e-07
3.07108e-06
-1.55519e-06
3.04719e-06
-7.95346e-07
3.063e-06
4.35018e-07
3.08525e-06
4.17168e-07
3.15349e-06
1.33336e-06
3.15231e-06
1.88215e-07
3.17531e-06
4.75169e-08
3.14003e-06
-5.31055e-07
3.12714e-06
-7.78762e-07
3.09697e-06
-7.76405e-07
3.07173e-06
-8.67034e-07
3.05698e-06
-6.55003e-07
3.02851e-06
-6.18666e-07
3.02348e-06
-4.68499e-07
3.01523e-06
-2.66646e-07
-1.86127e-07
3.00771e-06
3.23978e-06
-6.6063e-07
3.27902e-06
9.93819e-07
3.28188e-06
-8.7716e-08
3.28715e-06
-4.02674e-07
3.2194e-06
-1.48743e-06
3.19422e-06
-7.70171e-07
3.21029e-06
4.18947e-07
3.23249e-06
3.94968e-07
3.30248e-06
1.26337e-06
3.30103e-06
1.89665e-07
3.32415e-06
2.43939e-08
3.28964e-06
-4.96541e-07
3.27509e-06
-7.64208e-07
3.246e-06
-7.47323e-07
3.21791e-06
-8.38941e-07
3.20515e-06
-6.42245e-07
3.17624e-06
-5.89751e-07
3.16843e-06
-4.60694e-07
3.16284e-06
-2.61053e-07
-1.78092e-07
3.1548e-06
3.39437e-06
-6.35071e-07
3.43498e-06
9.53209e-07
3.43725e-06
-8.99822e-08
3.44331e-06
-4.08735e-07
3.3749e-06
-1.41902e-06
3.34898e-06
-7.44254e-07
3.36539e-06
4.02534e-07
3.38724e-06
3.73113e-07
3.45866e-06
1.19196e-06
3.45673e-06
1.91587e-07
3.47966e-06
1.46923e-09
3.44641e-06
-4.63297e-07
3.42991e-06
-7.47701e-07
3.40238e-06
-7.19795e-07
3.37138e-06
-8.07936e-07
3.35998e-06
-6.30848e-07
3.3316e-06
-5.61368e-07
3.32076e-06
-4.4986e-07
3.31744e-06
-2.57734e-07
-1.70365e-07
3.30972e-06
3.55664e-06
-6.08302e-07
3.59841e-06
9.11437e-07
3.59981e-06
-9.1375e-08
3.60648e-06
-4.15412e-07
3.53791e-06
-1.35045e-06
3.51172e-06
-7.18062e-07
3.5284e-06
3.8585e-07
3.54948e-06
3.52036e-07
3.62194e-06
1.1195e-06
3.61957e-06
1.93954e-07
3.64204e-06
-2.10008e-08
3.6106e-06
-4.31854e-07
3.59192e-06
-7.29014e-07
3.56634e-06
-6.94216e-07
3.53269e-06
-7.74286e-07
3.52172e-06
-6.19886e-07
3.49473e-06
-5.34373e-07
3.481e-06
-4.36134e-07
3.47911e-06
-2.55842e-07
-1.63604e-07
3.47235e-06
3.72703e-06
-5.80628e-07
3.76977e-06
8.68698e-07
3.76991e-06
-9.15175e-08
3.77699e-06
-4.22492e-07
3.70876e-06
-1.28222e-06
3.6827e-06
-6.91998e-07
3.69955e-06
3.68998e-07
3.71939e-06
3.32198e-07
3.79247e-06
1.04642e-06
3.78986e-06
1.96556e-07
3.81163e-06
-4.27679e-08
3.78249e-06
-4.02715e-07
3.76146e-06
-7.0798e-07
3.73807e-06
-6.70827e-07
3.70235e-06
-7.38571e-07
3.6908e-06
-6.08335e-07
3.66583e-06
-5.09395e-07
3.64965e-06
-4.19962e-07
3.64816e-06
-2.54345e-07
-1.58217e-07
3.64277e-06
3.90597e-06
-5.52412e-07
3.94956e-06
8.25109e-07
3.94803e-06
-8.99914e-08
3.95523e-06
-4.29683e-07
3.88775e-06
-1.21474e-06
3.86213e-06
-6.66378e-07
3.87915e-06
3.51976e-07
3.89738e-06
3.13971e-07
3.9706e-06
9.73203e-07
3.96806e-06
1.99087e-07
3.98885e-06
-6.355e-08
3.96242e-06
-3.76288e-07
3.93893e-06
-6.84495e-07
3.91776e-06
-6.49653e-07
3.8808e-06
-7.01616e-07
3.86769e-06
-5.95223e-07
3.84513e-06
-4.86837e-07
3.82717e-06
-4.01997e-07
3.82512e-06
-2.52299e-07
-1.54295e-07
3.8212e-06
4.09385e-06
-5.24008e-07
4.13827e-06
7.80682e-07
4.13471e-06
-8.64252e-08
4.14162e-06
-4.36598e-07
4.07521e-06
-1.14833e-06
4.05023e-06
-6.41396e-07
4.06761e-06
3.34594e-07
4.08405e-06
2.97538e-07
4.15688e-06
9.00372e-07
4.15476e-06
2.01206e-07
4.17419e-06
-8.29868e-08
4.15077e-06
-3.52867e-07
4.12482e-06
-6.58543e-07
4.10563e-06
-6.30462e-07
4.06836e-06
-6.6435e-07
4.05293e-06
-5.79788e-07
4.03292e-06
-4.66826e-07
4.01394e-06
-3.83016e-07
4.01064e-06
-2.48996e-07
-1.51697e-07
4.00804e-06
4.29099e-06
-4.95699e-07
4.33633e-06
7.35344e-07
4.3305e-06
-8.05906e-08
4.33669e-06
-4.42795e-07
4.27156e-06
-1.0832e-06
4.24723e-06
-6.17059e-07
4.26534e-06
3.16477e-07
4.28003e-06
2.82851e-07
4.35194e-06
8.28466e-07
4.35056e-06
2.02586e-07
4.36823e-06
-1.00663e-07
4.34796e-06
-3.32599e-07
4.31966e-06
-6.30237e-07
4.30198e-06
-6.12782e-07
4.26531e-06
-6.27685e-07
4.24718e-06
-5.61652e-07
4.22944e-06
-4.49091e-07
4.21031e-06
-3.63882e-07
4.20543e-06
-2.44113e-07
-1.49977e-07
4.20371e-06
4.49772e-06
-4.6765e-07
4.54407e-06
6.88997e-07
4.53596e-06
-7.24807e-08
4.54099e-06
-4.47819e-07
4.47728e-06
-1.01949e-06
4.45338e-06
-5.93163e-07
4.47271e-06
2.97149e-07
4.4859e-06
2.69658e-07
4.55637e-06
7.57996e-07
4.55604e-06
2.02921e-07
4.57151e-06
-1.16137e-07
4.55441e-06
-3.15494e-07
4.524e-06
-5.99831e-07
4.50718e-06
-5.95957e-07
4.47195e-06
-5.92457e-07
4.4511e-06
-5.40802e-07
4.435e-06
-4.32994e-07
4.41657e-06
-3.45452e-07
4.41011e-06
-2.37658e-07
-1.48598e-07
4.40873e-06
4.71437e-06
-4.39904e-07
4.76177e-06
6.41597e-07
4.75162e-06
-6.23302e-08
4.75507e-06
-4.51271e-07
4.69292e-06
-9.57335e-07
4.66911e-06
-5.69351e-07
4.69002e-06
2.76239e-07
4.70213e-06
2.57542e-07
4.77071e-06
6.89421e-07
4.77171e-06
2.01918e-07
4.78458e-06
-1.29005e-07
4.77049e-06
-3.01411e-07
4.7384e-06
-5.67736e-07
4.72169e-06
-5.79251e-07
4.68857e-06
-5.59331e-07
4.66527e-06
-5.17506e-07
4.65004e-06
-4.17762e-07
4.63297e-06
-3.28382e-07
4.62517e-06
-2.29855e-07
-1.47086e-07
4.62365e-06
4.94131e-06
-4.12418e-07
4.9897e-06
5.93209e-07
4.97795e-06
-5.05821e-08
4.97952e-06
-4.52836e-07
4.9191e-06
-8.9692e-07
4.89499e-06
-5.4524e-07
4.91758e-06
2.5365e-07
4.9291e-06
2.46025e-07
4.99538e-06
6.23132e-07
4.99801e-06
1.99294e-07
5.00796e-06
-1.38953e-07
4.99663e-06
-2.90088e-07
4.96339e-06
-5.34493e-07
4.9461e-06
-5.6196e-07
4.91548e-06
-5.28714e-07
4.8903e-06
-4.92327e-07
4.87514e-06
-4.02602e-07
4.85967e-06
-3.12908e-07
4.85107e-06
-2.21252e-07
-1.45019e-07
4.849e-06
5.17901e-06
-3.8511e-07
5.22818e-06
5.44036e-07
5.21543e-06
-3.78252e-08
5.21487e-06
-4.52282e-07
5.15644e-06
-8.38492e-07
5.13181e-06
-5.2061e-07
5.15575e-06
2.29711e-07
5.16714e-06
2.34638e-07
5.23081e-06
5.59457e-07
5.23532e-06
1.94792e-07
5.24218e-06
-1.45817e-07
5.23325e-06
-2.81163e-07
5.19952e-06
-5.00761e-07
5.18098e-06
-5.4342e-07
5.15306e-06
-5.00795e-07
5.12673e-06
-4.65999e-07
5.11094e-06
-3.86807e-07
5.09698e-06
-2.98948e-07
5.08807e-06
-2.12347e-07
-1.4226e-07
5.08532e-06
5.428e-06
-3.5792e-07
5.47763e-06
4.94401e-07
5.46454e-06
-2.47305e-08
5.46168e-06
-4.49418e-07
5.40552e-06
-7.82336e-07
5.38029e-06
-4.9538e-07
5.405e-06
2.05002e-07
5.41662e-06
2.23015e-07
5.47742e-06
4.98662e-07
5.484e-06
1.88207e-07
5.48779e-06
-1.49603e-07
5.48081e-06
-2.74187e-07
5.44736e-06
-4.67306e-07
5.42702e-06
-5.2308e-07
5.40172e-06
-4.755e-07
5.37501e-06
-4.39288e-07
5.35818e-06
-3.69974e-07
5.34533e-06
-2.86103e-07
5.33664e-06
-2.03651e-07
-1.38799e-07
5.33318e-06
5.68888e-06
-3.30839e-07
5.73857e-06
4.44711e-07
5.72585e-06
-1.20114e-08
5.72046e-06
-4.44031e-07
5.66685e-06
-7.28725e-07
5.64101e-06
-4.69539e-07
5.66592e-06
1.80088e-07
5.67798e-06
2.10952e-07
5.73568e-06
4.40962e-07
5.74447e-06
1.79419e-07
5.74536e-06
-1.50495e-07
5.73983e-06
-2.68648e-07
5.70736e-06
-4.34843e-07
5.68497e-06
-5.00689e-07
5.66198e-06
-4.52506e-07
5.63561e-06
-4.1292e-07
5.61761e-06
-3.51973e-07
5.60538e-06
-2.73873e-07
5.59718e-06
-1.95455e-07
-1.34811e-07
5.59319e-06
5.96228e-06
-3.03922e-07
6.01157e-06
3.95422e-07
5.99998e-06
-4.29829e-10
5.99177e-06
-4.35821e-07
5.94091e-06
-6.77864e-07
5.91456e-06
-4.43186e-07
5.93916e-06
1.55485e-07
5.95178e-06
1.98336e-07
6.00617e-06
3.86571e-07
6.01719e-06
1.68401e-07
6.01552e-06
-1.48826e-07
6.01087e-06
-2.64002e-07
5.98002e-06
-4.03989e-07
5.95563e-06
-4.76303e-07
5.9344e-06
-4.31269e-07
5.90902e-06
-3.87549e-07
5.88998e-06
-3.32925e-07
5.87789e-06
-2.61781e-07
5.87024e-06
-1.87813e-07
-1.30596e-07
5.86603e-06
6.24885e-06
-2.77285e-07
6.29728e-06
3.46996e-07
6.28761e-06
9.23575e-09
6.27622e-06
-4.24425e-07
6.22818e-06
-6.29829e-07
6.20154e-06
-4.16545e-07
6.22541e-06
1.31614e-07
6.23861e-06
1.85134e-07
6.28952e-06
3.35659e-07
6.30267e-06
1.55253e-07
6.29889e-06
-1.45048e-07
6.29456e-06
-2.59674e-07
6.26585e-06
-3.7527e-07
6.23972e-06
-4.50173e-07
6.21963e-06
-4.11181e-07
6.19576e-06
-3.63683e-07
6.17597e-06
-3.13136e-07
6.16363e-06
-2.49438e-07
6.15642e-06
-1.80606e-07
-1.2642e-07
6.15225e-06
6.54927e-06
-2.51089e-07
6.59637e-06
2.99903e-07
6.58927e-06
1.63283e-08
6.57444e-06
-4.09589e-07
6.52917e-06
-5.84557e-07
6.50255e-06
-3.89927e-07
6.52536e-06
1.08806e-07
6.53914e-06
1.71348e-07
6.58643e-06
2.88376e-07
6.60151e-06
1.40166e-07
6.59615e-06
-1.39681e-07
6.5916e-06
-2.55128e-07
6.56535e-06
-3.49022e-07
6.53795e-06
-4.22766e-07
6.51836e-06
-3.91598e-07
6.49629e-06
-3.41605e-07
6.47628e-06
-2.9313e-07
6.46341e-06
-2.36568e-07
6.45632e-06
-1.73515e-07
-1.22509e-07
6.45241e-06
6.86422e-06
-2.2552e-07
6.90953e-06
2.54592e-07
6.90533e-06
2.0533e-08
6.88714e-06
-3.91404e-07
6.84446e-06
-5.41872e-07
6.81819e-06
-3.63662e-07
6.8397e-06
8.7295e-08
6.85406e-06
1.56989e-07
6.89761e-06
2.44825e-07
6.91432e-06
1.23456e-07
6.90792e-06
-1.33275e-07
6.90275e-06
-2.49963e-07
6.87909e-06
-3.25358e-07
6.85101e-06
-3.94682e-07
6.83131e-06
-3.71905e-07
6.81111e-06
-3.21402e-07
6.79149e-06
-2.73513e-07
6.77804e-06
-2.23117e-07
6.77081e-06
-1.66286e-07
-1.18697e-07
6.767e-06
7.19439e-06
-2.00776e-07
7.23746e-06
2.11525e-07
7.23582e-06
2.21744e-08
7.21507e-06
-3.7066e-07
7.17475e-06
-5.01547e-07
7.14911e-06
-3.38024e-07
7.16915e-06
6.72594e-08
7.18405e-06
1.42085e-07
7.22384e-06
2.05033e-07
7.2418e-06
1.05497e-07
7.23486e-06
-1.26334e-07
7.22877e-06
-2.43867e-07
7.20771e-06
-3.04306e-07
7.1796e-06
-3.66574e-07
7.15937e-06
-3.51671e-07
7.1408e-06
-3.02835e-07
7.12206e-06
-2.54768e-07
7.10827e-06
-2.09334e-07
7.10077e-06
-1.58784e-07
-1.14757e-07
7.09683e-06
7.54051e-06
-1.77058e-07
7.58088e-06
1.71151e-07
7.58145e-06
2.16022e-08
7.559e-06
-3.48202e-07
7.5208e-06
-4.63351e-07
7.496e-06
-3.13219e-07
7.51444e-06
4.88137e-08
7.52985e-06
1.26672e-07
7.56585e-06
1.69036e-07
7.58466e-06
8.66893e-08
7.57769e-06
-1.19359e-07
7.57043e-06
-2.36613e-07
7.55178e-06
-2.85656e-07
7.52453e-06
-3.39321e-07
7.50353e-06
-3.30668e-07
7.48608e-06
-2.85393e-07
7.46855e-06
-2.37237e-07
7.45451e-06
-1.9529e-07
7.44666e-06
-1.50931e-07
-1.10743e-07
7.44264e-06
7.90332e-06
-1.54562e-07
7.94051e-06
1.3396e-07
7.94308e-06
1.90241e-08
7.91979e-06
-3.24909e-07
7.88339e-06
-4.26953e-07
7.85957e-06
-2.89394e-07
7.87638e-06
3.20054e-08
7.89219e-06
1.10858e-07
7.92449e-06
1.36739e-07
7.94365e-06
6.75284e-08
7.93708e-06
-1.12793e-07
7.92863e-06
-2.28157e-07
7.91197e-06
-2.69002e-07
7.88636e-06
-3.13713e-07
7.86518e-06
-3.09489e-07
7.84832e-06
-2.68532e-07
7.83148e-06
-2.20392e-07
7.81659e-06
-1.80404e-07
7.80779e-06
-1.42129e-07
-1.07507e-07
7.80455e-06
8.28359e-06
-1.33475e-07
8.31712e-06
1.00438e-07
8.3215e-06
1.46367e-08
8.29826e-06
-3.01662e-07
8.26337e-06
-3.92068e-07
8.24061e-06
-2.66633e-07
8.25577e-06
1.68464e-08
8.27175e-06
9.48793e-08
8.30054e-06
1.0795e-07
8.31956e-06
4.85019e-08
8.3138e-06
-1.07032e-07
8.30414e-06
-2.18494e-07
8.28908e-06
-2.53945e-07
8.26538e-06
-2.90015e-07
8.24493e-06
-2.89033e-07
8.23051e-06
-2.54114e-07
8.21762e-06
-2.07505e-07
8.20447e-06
-1.6725e-07
8.19568e-06
-1.33343e-07
-1.03374e-07
8.19155e-06
8.68214e-06
-1.13948e-07
8.71144e-06
7.1131e-08
8.7176e-06
8.47881e-09
8.69522e-06
-2.79286e-07
8.66152e-06
-3.58365e-07
8.63992e-06
-2.45031e-07
8.65335e-06
3.41186e-09
8.6693e-06
7.89356e-08
8.69484e-06
8.24116e-08
8.71331e-06
3.00254e-08
8.70858e-06
-1.02297e-07
8.69801e-06
-2.07925e-07
8.68406e-06
-2.39998e-07
8.66233e-06
-2.68281e-07
8.64274e-06
-2.69449e-07
8.63101e-06
-2.42381e-07
8.62398e-06
-2.00473e-07
8.6174e-06
-1.60677e-07
8.6101e-06
-1.26034e-07
-9.52223e-08
8.60194e-06
9.09979e-06
-9.61152e-08
9.12432e-06
4.65949e-08
9.13219e-06
6.13353e-10
9.11142e-06
-2.58521e-07
9.07878e-06
-3.25721e-07
9.05837e-06
-2.24618e-07
9.06993e-06
-8.15528e-09
9.08569e-06
6.31819e-08
9.10825e-06
5.98517e-08
9.1258e-06
1.2475e-08
9.12218e-06
-9.86763e-08
9.11114e-06
-1.96891e-07
9.09801e-06
-2.26867e-07
9.07855e-06
-2.48816e-07
9.05961e-06
-2.50505e-07
9.04586e-06
-2.28631e-07
9.03587e-06
-1.90488e-07
9.02545e-06
-1.50254e-07
9.01618e-06
-1.16764e-07
-8.94269e-08
9.01038e-06
9.53737e-06
-8.00285e-08
9.55703e-06
2.69335e-08
9.5663e-06
-8.65524e-09
9.54756e-06
-2.39782e-07
9.51613e-06
-2.94283e-07
9.49676e-06
-2.05258e-07
9.50652e-06
-1.79061e-08
9.52183e-06
4.7866e-08
9.54171e-06
3.99719e-08
9.55796e-06
-3.77337e-09
9.55548e-06
-9.61951e-08
9.54444e-06
-1.85854e-07
9.53196e-06
-2.14382e-07
9.51376e-06
-2.3062e-07
9.49461e-06
-2.31351e-07
9.47892e-06
-2.12941e-07
9.46688e-06
-1.78449e-07
9.45642e-06
-1.39797e-07
9.44734e-06
-1.07681e-07
-8.43192e-08
9.44223e-06
9.99581e-06
-6.57019e-08
1.00115e-05
1.12064e-08
1.00209e-05
-1.80538e-08
1.00043e-05
-2.23164e-07
9.97466e-06
-2.64627e-07
9.95611e-06
-1.86708e-07
9.96416e-06
-2.59555e-08
9.9787e-06
3.33255e-08
9.99603e-06
2.26422e-08
1.00108e-05
-1.85178e-08
1.00093e-05
-9.47368e-08
9.99846e-06
-1.74998e-07
9.98607e-06
-2.01995e-07
9.96861e-06
-2.13156e-07
9.95001e-06
-2.12749e-07
9.9346e-06
-1.97538e-07
9.92401e-06
-1.6786e-07
9.91637e-06
-1.32157e-07
9.90792e-06
-9.92314e-08
-7.76673e-08
9.90127e-06
1.0476e-05
-5.30661e-08
1.04887e-05
-1.52851e-09
1.04972e-05
-2.65352e-08
1.04826e-05
-2.08559e-07
1.04553e-05
-2.37271e-07
1.04374e-05
-1.68868e-07
1.04437e-05
-3.22403e-08
1.04572e-05
1.9829e-08
1.04722e-05
7.63618e-09
1.04852e-05
-3.14705e-08
1.04844e-05
-9.39971e-08
1.04738e-05
-1.64331e-07
1.04612e-05
-1.89408e-07
1.04447e-05
-1.96697e-07
1.04274e-05
-1.95417e-07
1.04127e-05
-1.82871e-07
1.04019e-05
-1.57054e-07
1.03945e-05
-1.24738e-07
1.03872e-05
-9.19095e-08
-7.11939e-08
1.03807e-05
1.0979e-05
-4.2017e-08
1.09894e-05
-1.19776e-08
1.09962e-05
-3.33598e-08
1.09834e-05
-1.95727e-07
1.09588e-05
-2.12655e-07
1.09418e-05
-1.51864e-07
1.09463e-05
-3.67105e-08
1.09585e-05
7.54451e-09
1.09711e-05
-4.93391e-09
1.0982e-05
-4.2315e-08
1.09815e-05
-9.34924e-08
1.09708e-05
-1.53702e-07
1.09583e-05
-1.76832e-07
1.09433e-05
-1.81743e-07
1.09271e-05
-1.79263e-07
1.09127e-05
-1.68444e-07
1.09014e-05
-1.45744e-07
1.08941e-05
-1.17469e-07
1.08886e-05
-8.64206e-08
-6.53174e-08
1.08828e-05
1.15058e-05
-3.24123e-08
1.15144e-05
-2.0653e-08
1.15192e-05
-3.80937e-08
1.15079e-05
-1.84434e-07
1.14862e-05
-1.90948e-07
1.14703e-05
-1.36037e-07
1.1473e-05
-3.93312e-08
1.14838e-05
-3.33654e-09
1.14941e-05
-1.51947e-08
1.15026e-05
-5.07906e-08
1.15017e-05
-9.26057e-08
1.14914e-05
-1.43381e-07
1.14791e-05
-1.64606e-07
1.14655e-05
-1.68129e-07
1.14504e-05
-1.64099e-07
1.14365e-05
-1.54585e-07
1.14255e-05
-1.34689e-07
1.14179e-05
-1.09945e-07
1.14141e-05
-8.2587e-08
-6.04707e-08
1.14092e-05
1.20575e-05
-2.40959e-08
1.20648e-05
-2.79701e-08
1.20674e-05
-4.06798e-08
1.20572e-05
-1.74242e-07
1.20383e-05
-1.72037e-07
1.20242e-05
-1.21969e-07
1.20251e-05
-4.01515e-08
1.20343e-05
-1.26008e-08
1.20427e-05
-2.3556e-08
1.20488e-05
-5.69095e-08
1.20475e-05
-9.12935e-08
1.20377e-05
-1.33605e-07
1.20257e-05
-1.52643e-07
1.20132e-05
-1.55567e-07
1.19993e-05
-1.50233e-07
1.19863e-05
-1.41611e-07
1.1976e-05
-1.24391e-07
1.19685e-05
-1.02349e-07
1.19652e-05
-7.92912e-08
-5.70204e-08
1.19617e-05
1.26354e-05
-1.69261e-08
1.26416e-05
-3.41912e-08
1.26425e-05
-4.15455e-08
1.26328e-05
-1.6449e-07
1.26164e-05
-1.55651e-07
1.26045e-05
-1.1009e-07
1.26038e-05
-3.94403e-08
1.26112e-05
-2.00409e-08
1.2618e-05
-3.03034e-08
1.26222e-05
-6.11759e-08
1.26206e-05
-8.9623e-08
1.26114e-05
-1.24401e-07
1.25998e-05
-1.41042e-07
1.2588e-05
-1.43811e-07
1.25756e-05
-1.3778e-07
1.25634e-05
-1.29475e-07
1.25539e-05
-1.14844e-07
1.25464e-05
-9.49267e-08
1.25428e-05
-7.5615e-08
-5.50012e-08
1.25407e-05
1.32408e-05
-1.07764e-08
1.32461e-05
-3.94803e-08
1.32457e-05
-4.1157e-08
1.32358e-05
-1.54574e-07
1.32216e-05
-1.41489e-07
1.32121e-05
-1.00576e-07
1.32104e-05
-3.77605e-08
1.32159e-05
-2.55069e-08
1.32212e-05
-3.56002e-08
1.3224e-05
-6.40489e-08
1.3222e-05
-8.75341e-08
1.32133e-05
-1.15791e-07
1.32021e-05
-1.29833e-07
1.3191e-05
-1.32686e-07
1.31798e-05
-1.26599e-07
1.31686e-05
-1.18216e-07
1.31596e-05
-1.05916e-07
1.31528e-05
-8.80892e-08
1.31485e-05
-7.12651e-08
-5.37469e-08
1.31472e-05
1.38749e-05
-5.53734e-09
1.38794e-05
-4.39184e-08
1.38781e-05
-3.9903e-08
1.38678e-05
-1.44253e-07
1.38554e-05
-1.2908e-07
1.38481e-05
-9.32904e-08
1.38462e-05
-3.5836e-08
1.38497e-05
-2.89978e-08
1.38535e-05
-3.94206e-08
1.38553e-05
-6.58631e-08
1.38528e-05
-8.50557e-08
1.38448e-05
-1.07792e-07
1.3834e-05
-1.19048e-07
1.38234e-05
-1.22021e-07
1.38132e-05
-1.16397e-07
1.3803e-05
-1.08085e-07
1.37946e-05
-9.74832e-08
1.37884e-05
-8.18918e-08
1.37838e-05
-6.66784e-08
-5.22253e-08
1.37823e-05
1.45392e-05
-1.10766e-09
1.45429e-05
-4.75473e-08
1.45411e-05
-3.80917e-08
1.45304e-05
-1.33612e-07
1.45191e-05
-1.1774e-07
1.45138e-05
-8.79713e-08
1.45122e-05
-3.42384e-08
1.4514e-05
-3.08079e-08
1.45162e-05
-4.16727e-08
1.45172e-05
-6.68004e-08
1.45145e-05
-8.23582e-08
1.4507e-05
-1.00343e-07
1.44967e-05
-1.08757e-07
1.44864e-05
-1.11681e-07
1.4477e-05
-1.06984e-07
1.44679e-05
-9.90522e-08
1.446e-05
-8.9596e-08
1.44544e-05
-7.62228e-08
1.445e-05
-6.23448e-08
-4.99978e-08
1.44478e-05
1.52352e-05
2.58942e-09
1.5238e-05
-5.03763e-08
1.52358e-05
-3.59002e-08
1.52251e-05
-1.22883e-07
1.52141e-05
-1.06759e-07
1.52104e-05
-8.42476e-08
1.52094e-05
-3.32882e-08
1.52101e-05
-3.14612e-08
1.52108e-05
-4.23662e-08
1.52109e-05
-6.68773e-08
1.52081e-05
-7.9591e-08
1.52013e-05
-9.35237e-08
1.51916e-05
-9.90903e-08
1.51815e-05
-1.0159e-07
1.51727e-05
-9.81738e-08
1.51646e-05
-9.09002e-08
1.51574e-05
-8.24564e-08
1.51521e-05
-7.09296e-08
1.51483e-05
-5.85461e-08
-4.72609e-08
1.51456e-05
1.59643e-05
5.61506e-09
1.59664e-05
-5.24345e-08
1.59639e-05
-3.34086e-08
1.59532e-05
-1.12219e-07
1.5942e-05
-9.55947e-08
1.59392e-05
-8.13963e-08
1.59391e-05
-3.32231e-08
1.59393e-05
-3.16002e-08
1.59387e-05
-4.1839e-08
1.59378e-05
-6.59766e-08
1.5935e-05
-7.67699e-08
1.5929e-05
-8.75341e-08
1.59201e-05
-9.01783e-08
1.59104e-05
-9.18492e-08
1.59019e-05
-8.96948e-08
1.58945e-05
-8.35084e-08
1.58881e-05
-7.60853e-08
1.58832e-05
-6.59575e-08
1.58799e-05
-5.52664e-08
-4.44245e-08
1.5877e-05
1.67282e-05
8.00785e-09
1.67295e-05
-5.36829e-08
1.67267e-05
-3.07006e-08
1.67162e-05
-1.01704e-07
1.67047e-05
-8.40665e-08
1.67017e-05
-7.83802e-08
1.67025e-05
-3.40765e-08
1.67028e-05
-3.18764e-08
1.67015e-05
-4.05218e-08
1.66997e-05
-6.41597e-08
1.66967e-05
-7.38149e-08
1.66916e-05
-8.23622e-08
1.66837e-05
-8.23374e-08
1.66745e-05
-8.26123e-08
1.66662e-05
-8.14204e-08
1.66594e-05
-7.66758e-08
1.66537e-05
-7.03882e-08
1.66491e-05
-6.13423e-08
1.66461e-05
-5.23509e-08
-4.1895e-08
1.66436e-05
1.75286e-05
9.80683e-09
1.75289e-05
-5.40378e-08
1.75261e-05
-2.78636e-08
1.75159e-05
-9.15285e-08
1.75042e-05
-7.23474e-08
1.75004e-05
-7.45518e-08
1.75017e-05
-3.53959e-08
1.75024e-05
-3.25947e-08
1.75006e-05
-3.87453e-08
1.74982e-05
-6.16952e-08
1.74948e-05
-7.04527e-08
1.74903e-05
-7.78659e-08
1.74839e-05
-7.5907e-08
1.74754e-05
-7.41757e-08
1.74674e-05
-7.34252e-08
1.74608e-05
-7.00213e-08
1.74557e-05
-6.53266e-08
1.74515e-05
-5.7119e-08
1.74488e-05
-4.96746e-08
-3.98094e-08
1.74467e-05
1.83671e-05
1.10665e-08
1.83666e-05
-5.35111e-08
1.83635e-05
-2.47939e-08
1.8354e-05
-8.20565e-08
1.83423e-05