/*--------------------------------*- C++ -*----------------------------------*\
| =========                 |                                                 |
| \\      /  F ield         | OpenFOAM: The Open Source CFD Toolbox           |
|  \\    /   O peration     | Version:  v1912                                 |
|   \\  /    A nd           | Website:  www.openfoam.com                      |
|    \\/     M anipulation  |                                                 |
\*---------------------------------------------------------------------------*/
FoamFile
{
    version     2.0;
    format      ascii;
    class       volVectorField;
    location    "3.2";
    object      U;
}
// * * * * * * * * * * * * * * * * * * * * * * * * * * * * * * * * * * * * * //

dimensions      [0 1 -1 0 0 0 0];


internalField   nonuniform List<vector> 
9600
(
(1.00356 0.00238735 0)
(0.997948 -0.0146522 0)
(0.950422 0.0225177 0)
(1.04731 -0.0178759 0)
(0.920544 -0.00966442 0)
(1.0515 0.0112838 0)
(1.01422 0.0120605 0)
(1.00506 0.00616151 0)
(0.96003 0.0338434 0)
(1.05574 -0.021086 0)
(0.820654 0.0176633 0)
(1.12388 -0.0173344 0)
(0.705534 -0.0207265 0)
(1.19378 -0.0170029 0)
(0.70974 -0.0354795 0)
(1.20723 -0.00445209 0)
(0.807641 -0.0246159 0)
(1.18246 0.00767553 0)
(0.862288 -0.00490377 0)
(1.17085 0.0177982 0)
(1.00424 0.00236535 0)
(0.997208 -0.0141877 0)
(0.952506 0.0221702 0)
(1.03979 -0.0173995 0)
(0.924705 -0.00986216 0)
(1.04789 0.0105184 0)
(1.01759 0.0123895 0)
(1.00302 0.00688603 0)
(0.964637 0.0329335 0)
(1.04239 -0.0183411 0)
(0.845293 0.0160243 0)
(1.08311 -0.014385 0)
(0.771667 -0.0228089 0)
(1.13404 -0.0166363 0)
(0.795478 -0.036283 0)
(1.1477 -0.00674154 0)
(0.902455 -0.0240759 0)
(1.11138 0.00626249 0)
(0.981918 -0.00389965 0)
(1.06373 0.016392 0)
(1.00545 0.00235757 0)
(0.99567 -0.0137835 0)
(0.95709 0.0217128 0)
(1.03038 -0.0171181 0)
(0.934819 -0.0100648 0)
(1.03824 0.00958826 0)
(1.02299 0.0129112 0)
(1.00057 0.00754892 0)
(0.97149 0.0323919 0)
(1.03029 -0.0169306 0)
(0.880998 0.0150801 0)
(1.04849 -0.0136049 0)
(0.851609 -0.0237156 0)
(1.06687 -0.0172359 0)
(0.890343 -0.0361686 0)
(1.06996 -0.00934202 0)
(0.972447 -0.0225107 0)
(1.04408 0.0035526 0)
(1.01659 -0.00244347 0)
(1.03402 0.0142458 0)
(1.00685 0.0023512 0)
(0.993384 -0.0134244 0)
(0.964134 0.0213512 0)
(1.02031 -0.0168729 0)
(0.948769 -0.0102168 0)
(1.02471 0.00878805 0)
(1.02688 0.013289 0)
(0.999508 0.00815046 0)
(0.97907 0.0319893 0)
(1.02062 -0.0156275 0)
(0.918872 0.0146211 0)
(1.02106 -0.0130622 0)
(0.914909 -0.0236965 0)
(1.01415 -0.0182316 0)
(0.950805 -0.0358285 0)
(1.01456 -0.0112763 0)
(0.998246 -0.0218892 0)
(1.01429 0.00227102 0)
(1.00981 -0.00226648 0)
(1.02258 0.0127428 0)
(1.00805 0.00235203 0)
(0.990634 -0.0131001 0)
(0.97282 0.0210817 0)
(1.0116 -0.016688 0)
(0.962355 -0.0103007 0)
(1.01179 0.00808858 0)
(1.02738 0.0134876 0)
(1.00006 0.00871238 0)
(0.986329 0.0316932 0)
(1.0161 -0.0147413 0)
(0.949379 0.0144348 0)
(1.00795 -0.0129307 0)
(0.954543 -0.0233556 0)
(0.988306 -0.0192321 0)
(0.975401 -0.0354489 0)
(0.989929 -0.0125613 0)
(1.00145 -0.0218692 0)
(1.00674 0.00185779 0)
(1.0071 -0.00206802 0)
(1.01412 0.0118112 0)
(1.0088 0.00236814 0)
(0.987704 -0.0128247 0)
(0.982067 0.020843 0)
(1.00548 -0.0165179 0)
(0.972588 -0.0103428 0)
(1.00261 0.00747963 0)
(1.02497 0.0135543 0)
(1.001 0.00920263 0)
(0.992916 0.0314367 0)
(1.01577 -0.0140749 0)
(0.970434 0.0143379 0)
(1.00528 -0.0128423 0)
(0.975922 -0.0228118 0)
(0.980938 -0.0198538 0)
(0.980913 -0.035044 0)
(0.983095 -0.0136025 0)
(0.999124 -0.0219358 0)
(1.00495 0.00123293 0)
(1.01125 -0.0018126 0)
(1.01344 0.0110868 0)
(1.00909 0.00240525 0)
(0.984772 -0.0126123 0)
(0.991001 0.0206098 0)
(1.00207 -0.0163239 0)
(0.978894 -0.0103621 0)
(0.997391 0.0069677 0)
(1.02086 0.0135282 0)
(1.00093 0.00958498 0)
(0.99848 0.0311616 0)
(1.01744 -0.0135608 0)
(0.984006 0.0142419 0)
(1.00809 -0.0127327 0)
(0.987979 -0.0221717 0)
(0.981482 -0.0201506 0)
(0.980669 -0.0346111 0)
(0.981708 -0.0145522 0)
(0.995939 -0.0220371 0)
(1.00321 0.000187129 0)
(1.01436 -0.0017121 0)
(1.01687 0.0104361 0)
(1.00911 0.00246738 0)
(0.981955 -0.0124676 0)
(0.999089 0.0203651 0)
(1.00076 -0.0160755 0)
(0.982296 -0.0103631 0)
(0.994616 0.00654596 0)
(1.01577 0.0134558 0)
(0.999099 0.00985063 0)
(1.00291 0.0308184 0)
(1.01909 -0.0131294 0)
(0.993164 0.0140827 0)
(1.01264 -0.01257 0)
(0.995827 -0.0214681 0)
(0.984442 -0.0202086 0)
(0.980283 -0.0340767 0)
(0.980823 -0.0154185 0)
(0.992326 -0.0222075 0)
(1.00057 -0.00104897 0)
(1.01394 -0.00177963 0)
(1.01887 0.00960833 0)
(1.00911 0.00255639 0)
(0.979428 -0.0123884 0)
(1.00603 0.0200912 0)
(1.0007 -0.015761 0)
(0.984187 -0.0103452 0)
(0.992798 0.0062121 0)
(1.0101 0.0133815 0)
(0.995851 0.00998865 0)
(1.00658 0.0303896 0)
(1.01976 -0.0127481 0)
(1.00004 0.0138332 0)
(1.01705 -0.0123591 0)
(1.00172 -0.0207509 0)
(0.988101 -0.0200645 0)
(0.98098 -0.0334301 0)
(0.979731 -0.0161954 0)
(0.988796 -0.0223986 0)
(0.997158 -0.00227293 0)
(1.01104 -0.00202061 0)
(1.01795 0.00855746 0)
(1.00923 0.00267045 0)
(0.977525 -0.0123681 0)
(1.01155 0.0197777 0)
(1.00125 -0.0153829 0)
(0.985588 -0.0103107 0)
(0.991435 0.00596872 0)
(1.00462 0.0133279 0)
(0.992357 0.00998252 0)
(1.01013 0.0298749 0)
(1.01942 -0.0123932 0)
(1.00552 0.0134793 0)
(1.02038 -0.0121088 0)
(1.00633 -0.0200344 0)
(0.991907 -0.019753 0)
(0.982577 -0.0326929 0)
(0.978802 -0.0168104 0)
(0.985829 -0.0225341 0)
(0.993438 -0.00351384 0)
(1.0071 -0.00239215 0)
(1.01514 0.0074326 0)
(1.00944 0.00280267 0)
(0.976712 -0.0123939 0)
(1.01528 0.0194255 0)
(1.00207 -0.0149528 0)
(0.986926 -0.0102594 0)
(0.990734 0.00581216 0)
(1.00053 0.0132952 0)
(0.98994 0.00982928 0)
(1.01393 0.0292855 0)
(1.01852 -0.0120412 0)
(1.00975 0.0130222 0)
(1.02223 -0.0118156 0)
(1.00966 -0.0193493 0)
(0.995542 -0.0193153 0)
(0.984767 -0.0318571 0)
(0.978459 -0.0172197 0)
(0.983539 -0.022629 0)
(0.989847 -0.00477088 0)
(1.00299 -0.00281815 0)
(1.01171 0.0062931 0)
(1.00954 0.00294125 0)
(0.977372 -0.0124461 0)
(1.01682 0.0190425 0)
(1.00311 -0.014484 0)
(0.988139 -0.0102006 0)
(0.990785 0.00571843 0)
(0.998737 0.0132713 0)
(0.989311 0.00954628 0)
(1.01765 0.0286511 0)
(1.01763 -0.011658 0)
(1.01269 0.0124818 0)
(1.02265 -0.0114689 0)
(1.01165 -0.0187394 0)
(0.99872 -0.0187799 0)
(0.987265 -0.0309411 0)
(0.978974 -0.0174461 0)
(0.98193 -0.0226664 0)
(0.986592 -0.00595738 0)
(0.999011 -0.00325542 0)
(1.00824 0.00504917 0)
(1.00937 0.00307193 0)
(0.979523 -0.0125005 0)
(1.016 0.0186398 0)
(1.0044 -0.0139924 0)
(0.988977 -0.0101377 0)
(0.99111 0.00564928 0)
(0.999093 0.0132401 0)
(0.99026 0.009178 0)
(1.02039 0.0280024 0)
(1.0172 -0.0112197 0)
(1.01428 0.0118872 0)
(1.02207 -0.0110612 0)
(1.0124 -0.0182334 0)
(1.00116 -0.0181879 0)
(0.989716 -0.0299805 0)
(0.980315 -0.0175037 0)
(0.981094 -0.0225687 0)
(0.983749 -0.00706187 0)
(0.995097 -0.0036978 0)
(1.00464 0.00368692 0)
(1.00886 0.003182 0)
(0.982702 -0.012533 0)
(1.01319 0.0182273 0)
(1.00587 -0.0134965 0)
(0.989324 -0.0100611 0)
(0.990966 0.00557129 0)
(1.00052 0.0131797 0)
(0.991966 0.00878724 0)
(1.02137 0.0273513 0)
(1.01736 -0.0107225 0)
(1.01461 0.0112666 0)
(1.02112 -0.010592 0)
(1.0123 -0.0178336 0)
(1.00265 -0.017576 0)
(0.991772 -0.0290185 0)
(0.982081 -0.0174111 0)
(0.981085 -0.022291 0)
(0.981447 -0.00807566 0)
(0.991228 -0.00413047 0)
(1.00058 0.00229935 0)
(1.00814 0.00326424 0)
(0.986179 -0.0125263 0)
(1.00928 0.01781 0)
(1.00734 -0.0130137 0)
(0.989343 -0.00995502 0)
(0.989966 0.00547057 0)
(1.00178 0.0130677 0)
(0.993576 0.0084232 0)
(1.0205 0.0266892 0)
(1.01787 -0.0101778 0)
(1.01393 0.0106341 0)
(1.02024 -0.0100712 0)
(1.01184 -0.017517 0)
(1.00322 -0.0169559 0)
(0.99329 -0.028093 0)
(0.983712 -0.0172274 0)
(0.981743 -0.0218539 0)
(0.979852 -0.00894094 0)
(0.987613 -0.00447501 0)
(0.996112 0.000989999 0)
(1.00737 0.00331817 0)
(0.989333 -0.0124728 0)
(1.00528 0.0173883 0)
(1.0086 -0.0125554 0)
(0.989338 -0.0098052 0)
(0.988326 0.00535397 0)
(1.00219 0.0128938 0)
(0.994615 0.00810467 0)
(1.01839 0.0260002 0)
(1.01833 -0.00960436 0)
(1.01273 0.00999659 0)
(1.01952 -0.00952296 0)
(1.01146 -0.0172429 0)
(1.00312 -0.0163212 0)
(0.994378 -0.0272173 0)
(0.98486 -0.016998 0)
(0.982682 -0.021262 0)
(0.979008 -0.00966187 0)
(0.984547 -0.00464788 0)
(0.991679 -0.000143892 0)
(1.00666 0.00334764 0)
(0.991884 -0.0123739 0)
(1.00188 0.0169609 0)
(1.00954 -0.0121255 0)
(0.989525 -0.00960712 0)
(0.98657 0.00524011 0)
(1.00176 0.0126569 0)
(0.995032 0.00783326 0)
(1.01586 0.0252691 0)
(1.01848 -0.00901385 0)
(1.01148 0.00934306 0)
(1.01884 -0.00896254 0)
(1.01133 -0.0169825 0)
(1.00272 -0.0156735 0)
(0.995229 -0.0263642 0)
(0.985559 -0.0167616 0)
(0.983504 -0.0205348 0)
(0.978745 -0.010247 0)
(0.982169 -0.00464778 0)
(0.987796 -0.00104401 0)
(1.00605 0.00335765 0)
(0.993851 -0.0122351 0)
(0.999264 0.0165267 0)
(1.01017 -0.0117211 0)
(0.989926 -0.00936357 0)
(0.985112 0.00514721 0)
(1.00082 0.0123669 0)
(0.995011 0.00759788 0)
(1.01347 0.0244884 0)
(1.01829 -0.00841217 0)
(1.01044 0.00866023 0)
(1.0181 -0.00839485 0)
(1.01139 -0.0167363 0)
(1.00227 -0.0150161 0)
(0.995954 -0.025505 0)
(0.986044 -0.0165437 0)
(0.984016 -0.0197046 0)
(0.978794 -0.0107212 0)
(0.980402 -0.00452523 0)
(0.984668 -0.00167607 0)
(1.00551 0.0033525 0)
(0.995378 -0.0120631 0)
(0.997352 0.0160846 0)
(1.01054 -0.011336 0)
(0.990437 -0.00908297 0)
(0.984086 0.00508689 0)
(0.999726 0.0120352 0)
(0.994779 0.00738614 0)
(1.01142 0.0236596 0)
(1.01789 -0.00780484 0)
(1.00968 0.0079514 0)
(1.01725 -0.00782665 0)
(1.01148 -0.016511 0)
(1.00186 -0.0143349 0)
(0.996569 -0.0246474 0)
(0.986506 -0.0163283 0)
(0.984237 -0.018772 0)
(0.978966 -0.0111045 0)
(0.97911 -0.00432736 0)
(0.982229 -0.00201307 0)
(1.00503 0.00333544 0)
(0.996593 -0.0118647 0)
(0.995971 0.015634 0)
(1.01069 -0.010963 0)
(0.990945 -0.00877522 0)
(0.983441 0.00506337 0)
(0.99871 0.0116711 0)
(0.994494 0.00719187 0)
(1.00971 0.0227827 0)
(1.01739 -0.00719621 0)
(1.00915 0.00722389 0)
(1.01632 -0.00726176 0)
(1.01152 -0.0162944 0)
(1.00149 -0.0136483 0)
(0.997057 -0.0237566 0)
(0.987017 -0.0161199 0)
(0.984278 -0.017758 0)
(0.979213 -0.0113695 0)
(0.978225 -0.00410355 0)
(0.980373 -0.00207814 0)
(1.0046 0.00330848 0)
(0.997571 -0.0116445 0)
(0.994993 0.0151749 0)
(1.01068 -0.0105951 0)
(0.991385 -0.0084485 0)
(0.983083 0.00507472 0)
(0.997881 0.0112832 0)
(0.994241 0.00700843 0)
(1.0083 0.0218612 0)
(1.01682 -0.0065921 0)
(1.00878 0.00648376 0)
(1.01536 -0.00669653 0)
(1.01145 -0.0160725 0)
(1.00113 -0.0129753 0)
(0.997408 -0.022813 0)
(0.987572 -0.0159386 0)
(0.984234 -0.0166598 0)
(0.979554 -0.0115202 0)
(0.977744 -0.00389397 0)
(0.979067 -0.00190571 0)
(1.00422 0.00327306 0)
(0.998342 -0.0114064 0)
(0.99434 0.0147079 0)
(1.01053 -0.0102279 0)
(0.991741 -0.00810762 0)
(0.982936 0.00511447 0)
(0.997281 0.0108778 0)
(0.994053 0.00683108 0)
(1.00712 0.0209031 0)
(1.01617 -0.00599295 0)
(1.00848 0.00573208 0)
(1.0144 -0.0061324 0)
(1.01128 -0.0158461 0)
(1.00078 -0.0123243 0)
(0.997631 -0.0218149 0)
(0.988161 -0.0157745 0)
(0.984171 -0.0155045 0)
(0.979999 -0.0115564 0)
(0.977672 -0.0037478 0)
(0.978301 -0.00155143 0)
(1.0039 0.00323142 0)
(0.998917 -0.0111554 0)
(0.993964 0.0142341 0)
(1.01025 -0.0098552 0)
(0.99203 -0.00776013 0)
(0.982958 0.00518104 0)
(0.996919 0.010455 0)
(0.99394 0.00666172 0)
(1.00611 0.0199161 0)
(1.01546 -0.00539635 0)
(1.00818 0.00497423 0)
(1.01345 -0.0055738 0)
(1.011 -0.0156 0)
(1.00045 -0.0117135 0)
(0.997745 -0.0207592 0)
(0.988774 -0.0156152 0)
(0.984142 -0.0143513 0)
(0.980531 -0.0114492 0)
(0.977974 -0.00372322 0)
(0.978032 -0.0010894 0)
(1.00364 0.00318496 0)
(0.999297 -0.0108941 0)
(0.993821 0.0137523 0)
(1.00986 -0.00946935 0)
(0.992284 -0.00741285 0)
(0.983126 0.0052657 0)
(0.99678 0.0100217 0)
(0.993916 0.00650365 0)
(1.0052 0.0189068 0)
(1.01469 -0.00481036 0)
(1.00783 0.00422111 0)
(1.0125 -0.00502438 0)
(1.01061 -0.0153207 0)
(1.00015 -0.0111517 0)
(0.997768 -0.0196525 0)
(0.98941 -0.0154563 0)
(0.984201 -0.0132254 0)
(0.981123 -0.011168 0)
(0.978576 -0.00381923 0)
(0.978169 -0.000608573 0)
(1.00345 0.00313584 0)
(0.999489 -0.0106257 0)
(0.993868 0.0132621 0)
(1.00936 -0.00906825 0)
(0.992539 -0.00706801 0)
(0.983428 0.00535769 0)
(0.996839 0.00958251 0)
(0.993998 0.0063537 0)
(1.00435 0.0178929 0)
(1.01391 -0.00423994 0)
(1.00739 0.00347287 0)
(1.01153 -0.0044999 0)
(1.01014 -0.0150036 0)
(0.999876 -0.010656 0)
(0.997711 -0.018482 0)
(0.990066 -0.0152763 0)
(0.984389 -0.0121697 0)
(0.981747 -0.0107144 0)
(0.979391 -0.0040204 0)
(0.9786 -0.000157809 0)
(1.00332 0.00308646 0)
(0.999509 -0.010352 0)
(0.994059 0.0127618 0)
(1.00876 -0.00864747 0)
(0.992818 -0.00673329 0)
(0.983857 0.00545584 0)
(0.997063 0.00913684 0)
(0.994212 0.00621016 0)
(1.00358 0.0168876 0)
(1.01315 -0.00368715 0)
(1.0069 0.00274636 0)
(1.01053 -0.00401185 0)
(1.00959 -0.0146399 0)
(0.999625 -0.0102335 0)
(0.997584 -0.0172627 0)
(0.990727 -0.0150639 0)
(0.984727 -0.0112103 0)
(0.982388 -0.0101098 0)
(0.980347 -0.00428816 0)
(0.979225 0.000191456 0)
(1.00325 0.00303741 0)
(0.999384 -0.0100731 0)
(0.994351 0.0122522 0)
(1.00806 -0.00820697 0)
(0.99313 -0.00641384 0)
(0.984401 0.00555311 0)
(0.997415 0.00869174 0)
(0.994582 0.00608141 0)
(1.00291 0.0158928 0)
(1.01245 -0.00315847 0)
(1.0064 0.00205378 0)
(1.00951 -0.0035584 0)
(1.00899 -0.014228 0)
(0.999403 -0.00988106 0)
(0.997392 -0.0160287 0)
(0.991373 -0.0148068 0)
(0.985214 -0.0103666 0)
(0.98303 -0.00937094 0)
(0.981381 -0.00454307 0)
(0.979982 0.000363897 0)
(1.00322 0.00299198 0)
(0.99916 -0.00979226 0)
(0.994706 0.0117348 0)
(1.00728 -0.0077464 0)
(0.993466 -0.00611663 0)
(0.985037 0.00564636 0)
(0.997856 0.0082516 0)
(0.995113 0.00595498 0)
(1.00238 0.0149344 0)
(1.01183 -0.0026577 0)
(1.00596 0.00140866 0)
(1.00848 -0.00314316 0)
(1.00837 -0.0137665 0)
(0.999214 -0.00959026 0)
(0.997146 -0.0147911 0)
(0.991975 -0.0144877 0)
(0.985826 -0.00966156 0)
(0.983667 -0.00855605 0)
(0.982443 -0.00471592 0)
(0.980846 0.000348714 0)
(1.00322 0.00295099 0)
(0.99889 -0.00950854 0)
(0.995087 0.0112063 0)
(1.00646 -0.00726046 0)
(0.993812 -0.00584879 0)
(0.985734 0.00573368 0)
(0.998343 0.00781475 0)
(0.995784 0.00582709 0)
(1.00202 0.0140135 0)
(1.01129 -0.00218756 0)
(1.00563 0.000822053 0)
(1.00748 -0.00277053 0)
(1.00774 -0.0132501 0)
(0.99906 -0.00936944 0)
(0.99686 -0.0135647 0)
(0.992509 -0.0140947 0)
(0.986527 -0.0090894 0)
(0.984292 -0.00770423 0)
(0.98349 -0.00474605 0)
(0.981813 0.000164553 0)
(1.00322 0.00291347 0)
(0.998634 -0.00921981 0)
(0.995462 0.0106674 0)
(1.00564 -0.00675319 0)
(0.994157 -0.00561 0)
(0.98645 0.00580542 0)
(0.998831 0.00738617 0)
(0.996543 0.00569049 0)
(1.00181 0.0131421 0)
(1.01082 -0.00175301 0)
(1.00543 0.000290115 0)
(1.00654 -0.00242914 0)
(1.00713 -0.0126882 0)
(0.998948 -0.00920564 0)
(0.996553 -0.0123696 0)
(0.992961 -0.0136085 0)
(0.987279 -0.00865637 0)
(0.984904 -0.00684801 0)
(0.984472 -0.00461288 0)
(0.982862 -0.000142711 0)
(1.0032 0.00288072 0)
(0.99844 -0.00892896 0)
(0.995802 0.0101224 0)
(1.00487 -0.00622539 0)
(0.994498 -0.00540264 0)
(0.987147 0.00585878 0)
(0.999277 0.00696737 0)
(0.997324 0.00552857 0)
(1.00171 0.0123337 0)
(1.01038 -0.00135123 0)
(1.00534 -0.00016826 0)
(1.00568 -0.00211372 0)
(1.00656 -0.0120787 0)
(0.998887 -0.0090759 0)
(0.996245 -0.0112206 0)
(0.993328 -0.0130261 0)
(0.988054 -0.00834547 0)
(0.985507 -0.00605889 0)
(0.985351 -0.00433028 0)
(0.98396 -0.000508747 0)
(1.00315 0.00285008 0)
(0.998339 -0.00863202 0)
(0.99609 0.00956739 0)
(1.00417 -0.00567348 0)
(0.99484 -0.00522588 0)
(0.987797 0.00589076 0)
(0.999642 0.00656291 0)
(0.99806 0.00533872 0)
(1.00166 0.0115839 0)
(1.00995 -0.000975213 0)
(1.00534 -0.000564615 0)
(1.00492 -0.00182164 0)
(1.00603 -0.0114116 0)
(0.998888 -0.00897641 0)
(0.99596 -0.0101343 0)
(0.993615 -0.0123376 0)
(0.988831 -0.00812088 0)
(0.986113 -0.00537221 0)
(0.986108 -0.00391643 0)
(0.985048 -0.000815059 0)
(1.00307 0.00282013 0)
(0.998335 -0.00832838 0)
(0.996322 0.00900276 0)
(1.00354 -0.0051026 0)
(0.995193 -0.00507394 0)
(0.988393 0.00589947 0)
(0.999908 0.00617982 0)
(0.998708 0.00511086 0)
(1.00162 0.0108911 0)
(1.0095 -0.000627662 0)
(1.00538 -0.000914709 0)
(1.00424 -0.00155127 0)
(1.00553 -0.0106982 0)
(0.998958 -0.00888538 0)
(0.995724 -0.00913231 0)
(0.99383 -0.0115417 0)
(0.989601 -0.0079476 0)
(0.986736 -0.00481279 0)
(0.986753 -0.00342077 0)
(0.986068 -0.00100197 0)
(1.00295 0.0027891 0)
(0.998416 -0.00801787 0)
(0.996505 0.00843275 0)
(1.003 -0.00452162 0)
(0.995567 -0.00493529 0)
(0.988944 0.00588232 0)
(1.00007 0.0058241 0)
(0.999249 0.00484247 0)
(1.00154 0.0102467 0)
(1.00901 -0.000301291 0)
(1.00545 -0.00121632 0)
(1.00364 -0.00130616 0)
(1.00504 -0.00992985 0)
(0.999096 -0.00880259 0)
(0.995559 -0.00822604 0)
(0.993985 -0.0106568 0)
(0.990355 -0.00778535 0)
(0.987396 -0.00439018 0)
(0.987311 -0.00290051 0)
(0.986971 -0.00105921 0)
(1.00281 0.00275451 0)
(0.998558 -0.00769571 0)
(0.996655 0.00785619 0)
(1.00251 -0.00393003 0)
(0.995962 -0.00480647 0)
(0.989465 0.00583208 0)
(1.00015 0.00550896 0)
(0.99969 0.00453841 0)
(1.00143 0.00963956 0)
(1.00848 1.42814e-05 0)
(1.0055 -0.00147989 0)
(1.00311 -0.00109219 0)
(1.00456 -0.00911567 0)
(0.999291 -0.00870119 0)
(0.995485 -0.00742402 0)
(0.994089 -0.00969619 0)
(0.991082 -0.00757821 0)
(0.988105 -0.00409427 0)
(0.987822 -0.00241669 0)
(0.987736 -0.000969783 0)
(1.00265 0.00271499 0)
(0.998736 -0.00736137 0)
(0.996791 0.00727059 0)
(1.00207 -0.00332755 0)
(0.996375 -0.0046815 0)
(0.989974 0.00574503 0)
(1.00016 0.00523324 0)
(1.00005 0.00419996 0)
(1.00128 0.00906146 0)
(1.00791 0.000317481 0)
(1.00554 -0.00171436 0)
(1.00265 -0.000917166 0)
(1.00407 -0.00826058 0)
(0.999522 -0.00855504 0)
(0.99551 -0.006747 0)
(0.994157 -0.00868976 0)
(0.991768 -0.00729002 0)
(0.98886 -0.00390788 0)
(0.988329 -0.00199876 0)
(0.988378 -0.000760236 0)
(1.00249 0.00266955 0)
(0.998929 -0.00701449 0)
(0.996928 0.00667811 0)
(1.00166 -0.00273171 0)
(0.996798 -0.00455263 0)
(0.990481 0.0056281 0)
(1.00013 0.00501014 0)
(1.00036 0.00384029 0)
(1.00113 0.00849853 0)
(1.0073 0.000609116 0)
(1.00556 -0.00191859 0)
(1.00227 -0.000791184 0)
(1.00357 -0.00736037 0)
(0.999764 -0.00837169 0)
(0.995635 -0.00619889 0)
(0.994205 -0.00766032 0)
(0.992393 -0.0069041 0)
(0.989656 -0.00380006 0)
(0.988869 -0.00166725 0)
(0.988931 -0.000493384 0)
(1.00232 0.00261706 0)
(0.999125 -0.00665618 0)
(0.997077 0.00608147 0)
(1.00127 -0.00213471 0)
(0.997224 -0.00442172 0)
(0.990995 0.00546789 0)
(1.00007 0.00484255 0)
(1.00063 0.00346964 0)
(1.00099 0.00793912 0)
(1.00668 0.000898543 0)
(1.00555 -0.00208753 0)
(1.00195 -0.000722555 0)
(1.00304 -0.00643881 0)
(0.999989 -0.00811752 0)
(0.995863 -0.00577492 0)
(0.994254 -0.00664876 0)
(0.992936 -0.00639966 0)
(0.99047 -0.00371293 0)
(0.989465 -0.00142289 0)
(0.989438 -0.000223497 0)
(1.00216 0.00255551 0)
(0.999315 -0.00627551 0)
(0.997246 0.00546524 0)
(1.00089 -0.00155012 0)
(0.997639 -0.00425694 0)
(0.991519 0.0052572 0)
(0.999991 0.00470899 0)
(1.00087 0.00309712 0)
(1.00088 0.00737822 0)
(1.00605 0.00118693 0)
(1.00551 -0.00221184 0)
(1.0017 -0.000706447 0)
(1.00251 -0.00552109 0)
(1.00017 -0.00775604 0)
(0.996181 -0.00545398 0)
(0.994327 -0.00570376 0)
(0.993394 -0.00579503 0)
(0.991277 -0.00360797 0)
(0.990117 -0.00125595 0)
(0.989939 1.82915e-05 0)
(1.002 0.00248366 0)
(0.999493 -0.00588276 0)
(0.997436 0.00486352 0)
(1.00054 -0.000998245 0)
(0.998038 -0.0040858 0)
(0.992052 0.00501008 0)
(0.999904 0.0046274 0)
(1.00109 0.00274236 0)
(1.0008 0.00680176 0)
(1.00543 0.00146897 0)
(1.00545 -0.00227326 0)
(1.00154 -0.000756628 0)
(1.00198 -0.00463723 0)
(1.0003 -0.00729803 0)
(0.996574 -0.00521495 0)
(0.994446 -0.004851 0)
(0.993767 -0.00510799 0)
(0.99205 -0.00345155 0)
(0.990823 -0.0011484 0)
(0.99046 0.000216548 0)
(1.00184 0.00240606 0)
(0.999658 -0.00547949 0)
(0.997647 0.00425143 0)
(1.00021 -0.000454932 0)
(0.998415 -0.00387589 0)
(0.9926 0.00470102 0)
(0.999811 0.00457622 0)
(1.00129 0.00241386 0)
(1.00077 0.00620971 0)
(1.00482 0.00174254 0)
(1.00535 -0.00227139 0)
(1.00144 -0.00086051 0)
(1.00148 -0.00381172 0)
(1.00036 -0.00672685 0)
(0.997024 -0.0050271 0)
(0.994636 -0.0041182 0)
(0.994068 -0.00436079 0)
(0.992761 -0.00322202 0)
(0.991563 -0.001088 0)
(0.991021 0.00033014 0)
(1.0017 0.00231404 0)
(0.999804 -0.00505989 0)
(0.997879 0.00366595 0)
(0.9999 2.53421e-05 0)
(0.998761 -0.00362451 0)
(0.993157 0.00436424 0)
(0.999719 0.00453324 0)
(1.00146 0.00212436 0)
(1.00079 0.00560279 0)
(1.00422 0.00199193 0)
(1.00521 -0.00220193 0)
(1.00142 -0.00100879 0)
(1.00102 -0.00307094 0)
(1.00034 -0.00606692 0)
(0.9975 -0.00486905 0)
(0.994912 -0.00352271 0)
(0.99432 -0.0035651 0)
(0.993388 -0.00287079 0)
(0.992304 -0.000992738 0)
(0.991618 0.000390231 0)
(1.00156 0.00221667 0)
(0.999936 -0.00463843 0)
(0.998128 0.00309666 0)
(0.999614 0.000469538 0)
(0.999079 -0.00333995 0)
(0.993727 0.00398858 0)
(0.999627 0.0045054 0)
(1.0016 0.00188846 0)
(1.00084 0.00498786 0)
(1.00366 0.00219691 0)
(1.00503 -0.00204446 0)
(1.00146 -0.00118805 0)
(1.00062 -0.0024358 0)
(1.00025 -0.00532665 0)
(0.997981 -0.00470838 0)
(0.995297 -0.00313029 0)
(0.994566 -0.0028277 0)
(0.99393 -0.00239358 0)
(0.993013 -0.00089134 0)
(0.99221 0.000409818 0)
(1.00143 0.0021079 0)
(1.00004 -0.00420206 0)
(0.998396 0.00254496 0)
(0.999365 0.000853884 0)
(0.999355 -0.00300464 0)
(0.9943 0.00359487 0)
(0.999546 0.00446432 0)
(1.0017 0.00171711 0)
(1.00094 0.00436538 0)
(1.00314 0.00235861 0)
(1.0048 -0.0018209 0)
(1.00155 -0.00135062 0)
(1.00032 -0.00193682 0)
(1.00009 -0.00454024 0)
(0.998405 -0.00449125 0)
(0.995768 -0.00291671 0)
(0.99486 -0.00235844 0)
(0.994385 -0.00213363 0)
(0.993655 -0.000891719 0)
(0.992851 0.000449718 0)
(1.0013 0.00198849 0)
(1.00014 -0.00375677 0)
(0.99867 0.00203066 0)
(0.999143 0.00116069 0)
(0.999599 -0.00263134 0)
(0.994878 0.0032015 0)
(0.999478 0.00439929 0)
(1.00176 0.00161193 0)
(1.00106 0.00375418 0)
(1.00267 0.00246032 0)
(1.00452 -0.00153621 0)
(1.00165 -0.00149143 0)
(1.0001 -0.00157106 0)
(0.999897 -0.00375886 0)
(0.998758 -0.00418475 0)
(0.996262 -0.00281888 0)
(0.995132 -0.00201223 0)
(0.994797 -0.00182408 0)
(0.994348 -0.000821755 0)
(0.993591 0.000517106 0)
(1.00119 0.00186362 0)
(1.0002 -0.00330282 0)
(0.998953 0.00153421 0)
(0.998966 0.00139791 0)
(0.999798 -0.0022117 0)
(0.995444 0.00281096 0)
(0.999429 0.00431061 0)
(1.00177 0.00156686 0)
(1.00121 0.00317347 0)
(1.00226 0.00248775 0)
(1.0042 -0.00119913 0)
(1.00177 -0.00159735 0)
(0.999994 -0.00131341 0)
(0.999684 -0.00302036 0)
(0.999001 -0.00377901 0)
(0.996781 -0.00272287 0)
(0.995513 -0.00158828 0)
(0.995173 -0.0012377 0)
(0.994943 -0.000552425 0)
(0.994349 0.000550227 0)
(1.00109 0.00172555 0)
(1.00025 -0.00284629 0)
(0.999231 0.00109662 0)
(0.998824 0.00153165 0)
(0.999962 -0.00177537 0)
(0.995998 0.00246399 0)
(0.999401 0.00417751 0)
(1.00174 0.00157752 0)
(1.00137 0.00264334 0)
(1.00192 0.00244515 0)
(1.00385 -0.000843937 0)
(1.00186 -0.00163615 0)
(0.999971 -0.00116317 0)
(0.999484 -0.00235212 0)
(0.999164 -0.00324554 0)
(0.997321 -0.00250539 0)
(0.995981 -0.00126376 0)
(0.99554 -0.000783976 0)
(0.995445 -0.000275452 0)
(0.995 0.000613322 0)
(1.00099 0.00159046 0)
(1.00027 -0.00241369 0)
(0.999501 0.000699948 0)
(0.99873 0.00160136 0)
(1.00009 -0.00132502 0)
(0.996522 0.00215032 0)
(0.999396 0.00400759 0)
(1.00167 0.00163777 0)
(1.00152 0.00217826 0)
(1.00165 0.00233062 0)
(1.00347 -0.000490963 0)
(1.00193 -0.00159959 0)
(1.00004 -0.00107051 0)
(0.999345 -0.00174495 0)
(0.99926 -0.00262413 0)
(0.997801 -0.00222949 0)
(0.996476 -0.00108201 0)
(0.99591 -0.000431045 0)
(0.995899 6.24599e-06 0)
(0.995615 0.00072644 0)
(1.0009 0.0014504 0)
(1.00027 -0.00200505 0)
(0.999755 0.00037878 0)
(0.998676 0.00159948 0)
(1.00019 -0.000905507 0)
(0.997018 0.00189688 0)
(0.999419 0.0038159 0)
(1.00156 0.00172298 0)
(1.00165 0.00179995 0)
(1.00146 0.00217057 0)
(1.0031 -0.000154499 0)
(1.00195 -0.00147468 0)
(1.00017 -0.00100424 0)
(0.999271 -0.00125584 0)
(0.9993 -0.00201547 0)
(0.998209 -0.00190227 0)
(0.997006 -0.000923084 0)
(0.996336 -0.000131783 0)
(0.996314 0.000330588 0)
(0.99616 0.000867877 0)
(1.00083 0.00131443 0)
(1.00025 -0.00163173 0)
(0.999989 0.000121425 0)
(0.998665 0.00154981 0)
(1.00027 -0.000510071 0)
(0.997475 0.00168736 0)
(0.999464 0.00358987 0)
(1.00142 0.00181436 0)
(1.00176 0.0015256 0)
(1.00133 0.00197533 0)
(1.00274 0.000144807 0)
(1.00192 -0.00123597 0)
(1.00034 -0.000936543 0)
(0.999277 -0.000876786 0)
(0.999322 -0.00145779 0)
(0.99854 -0.001512 0)
(0.997524 -0.000740099 0)
(0.996801 7.77682e-05 0)
(0.996711 0.000598377 0)
(0.996629 0.00102789 0)
(1.00076 0.00118252 0)
(1.00022 -0.00129787 0)
(1.0002 -5.84348e-05 0)
(0.998688 0.00145918 0)
(1.00033 -0.000172434 0)
(0.997895 0.00151415 0)
(0.999536 0.00335914 0)
(1.00128 0.00191197 0)
(1.00183 0.00134234 0)
(1.00125 0.00177613 0)
(1.00242 0.000402533 0)
(1.00185 -0.000928216 0)
(1.00051 -0.000847328 0)
(0.999345 -0.000604295 0)
(0.999346 -0.000974811 0)
(0.998812 -0.0011045 0)
(0.998011 -0.000529234 0)
(0.997293 0.000221934 0)
(0.99712 0.000781338 0)
(0.99703 0.00121629 0)
(1.0007 0.00105805 0)
(1.00017 -0.00100464 0)
(1.00038 -0.00017495 0)
(0.998744 0.00133982 0)
(1.00038 0.000114621 0)
(0.998276 0.00138032 0)
(0.999629 0.00311677 0)
(1.00112 0.00200173 0)
(1.00187 0.0012347 0)
(1.00121 0.00159433 0)
(1.00216 0.000603525 0)
(1.00176 -0.000607633 0)
(1.00067 -0.00070941 0)
(0.999476 -0.000392107 0)
(0.9994 -0.000555264 0)
(0.999035 -0.000702634 0)
(0.998438 -0.000299989 0)
(0.99777 0.000353939 0)
(0.997564 0.000884524 0)
(0.997418 0.00138984 0)
(1.00064 0.000941235 0)
(1.00011 -0.00075207 0)
(1.00054 -0.000229012 0)
(0.998823 0.00120942 0)
(1.00042 0.000344902 0)
(0.998616 0.00127058 0)
(0.999747 0.00286938 0)
(1.00097 0.00208092 0)
(1.00187 0.00119776 0)
(1.0012 0.0014411 0)
(1.00194 0.000743904 0)
(1.00164 -0.00028892 0)
(1.00081 -0.000522403 0)
(0.999642 -0.000213049 0)
(0.999482 -0.000216736 0)
(0.999223 -0.000336793 0)
(0.998821 -6.22938e-05 0)
(0.998224 0.000524771 0)
(0.998023 0.000976932 0)
(0.997832 0.00148133 0)
(1.0006 0.0008346 0)
(1.00005 -0.000539537 0)
(1.00067 -0.000239783 0)
(0.99892 0.00108215 0)
(1.00046 0.000525335 0)
(0.99892 0.00119055 0)
(0.999883 0.00261857 0)
(1.00083 0.00213865 0)
(1.00183 0.00121204 0)
(1.0012 0.00132482 0)
(1.00178 0.000842102 0)
(1.00153 1.11208e-06 0)
(1.00092 -0.000308606 0)
(0.999831 -5.37274e-05 0)
(0.999601 6.29843e-05 0)
(0.999394 1.25501e-05 0)
(0.999172 0.00017091 0)
(0.998646 0.000693099 0)
(0.998445 0.00108774 0)
(0.998278 0.00148626 0)
(1.00056 0.000737547 0)
(0.999994 -0.000363726 0)
(1.00077 -0.00021747 0)
(0.99903 0.000969429 0)
(1.0005 0.000662613 0)
(0.999185 0.00112949 0)
(1.00004 0.00236595 0)
(1.00072 0.00216819 0)
(1.00177 0.00127033 0)
(1.00121 0.00125473 0)
(1.00166 0.000905624 0)
(1.00142 0.000263123 0)
(1.00101 -7.30761e-05 0)
(1.00003 0.000112864 0)
(0.999759 0.000289567 0)
(0.999552 0.000328012 0)
(0.999476 0.00039166 0)
(0.999053 0.000813317 0)
(0.998823 0.00122723 0)
(0.998726 0.00148835 0)
(1.00052 0.000650767 0)
(0.999935 -0.000221398 0)
(1.00085 -0.000171974 0)
(0.999146 0.000869326 0)
(1.00053 0.000766962 0)
(0.999415 0.00109087 0)
(1.0002 0.00212153 0)
(1.00064 0.00215927 0)
(1.00168 0.00134774 0)
(1.00121 0.00123768 0)
(1.00158 0.000954135 0)
(1.00134 0.000485249 0)
(1.00107 0.000164999 0)
(1.00022 0.000297952 0)
(0.999945 0.000473593 0)
(0.999713 0.000591504 0)
(0.999729 0.000629728 0)
(0.999452 0.000912442 0)
(0.999186 0.00135544 0)
(0.999124 0.00155069 0)
(1.0005 0.000574627 0)
(0.999877 -0.000111699 0)
(1.00091 -0.000109148 0)
(0.999267 0.000783205 0)
(1.00057 0.00084669 0)
(0.999607 0.00107483 0)
(1.00037 0.00188872 0)
(1.00059 0.0021071 0)
(1.00159 0.00142489 0)
(1.0012 0.00126309 0)
(1.00153 0.00100729 0)
(1.00128 0.000666076 0)
(1.00113 0.000383804 0)
(1.00039 0.000488984 0)
(1.00014 0.000647516 0)
(0.999895 0.000804783 0)
(0.999943 0.000870853 0)
(0.999814 0.00102563 0)
(0.999557 0.00141915 0)
(0.999459 0.0016582 0)
(1.00047 0.000508736 0)
(0.999825 -2.90118e-05 0)
(1.00095 -3.63214e-05 0)
(0.999387 0.000719449 0)
(1.00061 0.000898277 0)
(0.999767 0.00108414 0)
(1.00054 0.00168905 0)
(1.00058 0.00201225 0)
(1.00151 0.00148501 0)
(1.00117 0.00130921 0)
(1.00149 0.00106169 0)
(1.00125 0.000826034 0)
(1.00119 0.000577728 0)
(1.00056 0.000666674 0)
(1.00035 0.000813114 0)
(1.00009 0.000979695 0)
(1.00014 0.00107727 0)
(1.00011 0.00117159 0)
(0.99994 0.00143956 0)
(0.999762 0.00175667 0)
(1.00045 0.000452168 0)
(0.999777 3.22661e-05 0)
(1.00097 4.07844e-05 0)
(0.999503 0.000676416 0)
(1.00066 0.000929541 0)
(0.999899 0.00111167 0)
(1.00068 0.00152746 0)
(1.0006 0.00189383 0)
(1.00145 0.00150934 0)
(1.00114 0.00136776 0)
(1.00147 0.00112195 0)
(1.00123 0.000959505 0)
(1.00124 0.000754188 0)
(1.00072 0.00082914 0)
(1.00055 0.000957608 0)
(1.0003 0.00113417 0)
(1.00034 0.00123981 0)
(1.00036 0.00133951 0)
(1.0003 0.00146748 0)
(1.00007 0.001803 0)
(1.00044 0.000403451 0)
(0.999736 7.59856e-05 0)
(1.00098 0.000118891 0)
(0.999612 0.000648519 0)
(1.00072 0.000945673 0)
(1.00001 0.00114086 0)
(1.00082 0.00140903 0)
(1.00064 0.00177446 0)
(1.00141 0.00149331 0)
(1.00112 0.00142257 0)
(1.00145 0.00118963 0)
(1.00123 0.00107034 0)
(1.00131 0.000900932 0)
(1.00087 0.00098014 0)
(1.00075 0.00108265 0)
(1.00052 0.00126859 0)
(1.00054 0.00136616 0)
(1.00057 0.00149274 0)
(1.00061 0.00153221 0)
(1.00041 0.00180163 0)
(1.00043 0.000363431 0)
(0.999702 0.000104143 0)
(1.00098 0.000193138 0)
(0.999712 0.000636726 0)
(1.00077 0.000947475 0)
(1.0001 0.00116603 0)
(1.00092 0.00132495 0)
(1.00069 0.00166474 0)
(1.0014 0.00145809 0)
(1.00111 0.00145979 0)
(1.00143 0.00125921 0)
(1.00123 0.00117887 0)
(1.00137 0.00102071 0)
(1.00102 0.00111075 0)
(1.00095 0.0011926 0)
(1.00073 0.00137812 0)
(1.00076 0.00146316 0)
(1.00077 0.00160731 0)
(1.00087 0.0016291 0)
(1.00073 0.00179402 0)
(1.00042 0.000330615 0)
(0.999673 0.000121016 0)
(1.00097 0.000263071 0)
(0.999801 0.000636385 0)
(1.00083 0.00093863 0)
(1.00018 0.00118372 0)
(1.00101 0.00126552 0)
(1.00074 0.00157538 0)
(1.0014 0.00141317 0)
(1.00112 0.00148077 0)
(1.00143 0.00131819 0)