/*--------------------------------*- C++ -*----------------------------------*\
| =========                 |                                                 |
| \\      /  F ield         | OpenFOAM: The Open Source CFD Toolbox           |
|  \\    /   O peration     | Version:  v1912                                 |
|   \\  /    A nd           | Website:  www.openfoam.com                      |
|    \\/     M anipulation  |                                                 |
\*---------------------------------------------------------------------------*/
FoamFile
{
    version     2.0;
    format      ascii;
    class       volVectorField;
    location    "1.7";
    object      U;
}
// * * * * * * * * * * * * * * * * * * * * * * * * * * * * * * * * * * * * * //

dimensions      [0 1 -1 0 0 0 0];


internalField   nonuniform List<vector> 
9600
(
(0.670461 -0.0114593 0)
(1.37363 0.0206187 0)
(0.673737 -0.00512225 0)
(1.17601 -0.0235774 0)
(0.903561 -0.0330063 0)
(1.33897 0.0173978 0)
(0.799643 0.00673228 0)
(1.24557 -0.00033244 0)
(0.866514 -0.0184901 0)
(1.22476 -0.00970426 0)
(0.891128 -0.0135495 0)
(1.24228 0.000161775 0)
(0.867719 0.00385633 0)
(1.14263 0.0149071 0)
(0.916782 0.00389807 0)
(1.16159 0.00874457 0)
(0.9225 0.00230124 0)
(1.17773 0.00603871 0)
(0.911484 0.00114526 0)
(1.17164 0.00144236 0)
(0.687914 -0.0120119 0)
(1.36051 0.020644 0)
(0.756102 -0.00352474 0)
(1.13963 -0.0256298 0)
(0.909407 -0.035355 0)
(1.32382 0.0181109 0)
(0.851811 0.00744979 0)
(1.22383 -0.000845118 0)
(0.920032 -0.0186238 0)
(1.20603 -0.00975429 0)
(0.93498 -0.0142592 0)
(1.22438 0.000963941 0)
(0.913614 0.00559511 0)
(1.10884 0.0144115 0)
(0.971608 0.00329108 0)
(1.11296 0.00862631 0)
(1.00018 0.00197359 0)
(1.10196 0.00597311 0)
(1.02258 0.00194925 0)
(1.05775 0.0015226 0)
(0.717837 -0.0125354 0)
(1.33439 0.0205753 0)
(0.846133 -0.00214321 0)
(1.0936 -0.0261647 0)
(0.919378 -0.0370436 0)
(1.28939 0.0190683 0)
(0.927633 0.00829603 0)
(1.19115 -0.00125867 0)
(0.974258 -0.0186009 0)
(1.16502 -0.00980661 0)
(0.990084 -0.0146775 0)
(1.18591 0.00151443 0)
(0.981881 0.00758647 0)
(1.06909 0.0133559 0)
(1.02175 0.00316619 0)
(1.07493 0.00777598 0)
(1.04595 0.00258543 0)
(1.06886 0.00509304 0)
(1.0545 0.00369171 0)
(1.04662 0.00167294 0)
(0.758097 -0.0130226 0)
(1.2959 0.0198981 0)
(0.927701 -0.000462545 0)
(1.04759 -0.0264127 0)
(0.930567 -0.0389421 0)
(1.23985 0.0190764 0)
(1.0023 0.00910836 0)
(1.15791 -0.00147813 0)
(1.01624 -0.0182748 0)
(1.11623 -0.0099937 0)
(1.02998 -0.0149836 0)
(1.14097 0.00159376 0)
(1.03359 0.00935081 0)
(1.05206 0.0128535 0)
(1.04516 0.00296198 0)
(1.06265 0.00718066 0)
(1.06046 0.00278749 0)
(1.06408 0.00482303 0)
(1.06029 0.00435457 0)
(1.05177 0.0022967 0)
(0.804878 -0.0135063 0)
(1.24807 0.0187432 0)
(0.98981 0.00137057 0)
(1.01123 -0.0261226 0)
(0.938495 -0.0406901 0)
(1.18494 0.0181266 0)
(1.06094 0.00978653 0)
(1.13359 -0.00136175 0)
(1.03986 -0.0176154 0)
(1.07544 -0.0101811 0)
(1.04499 -0.0153187 0)
(1.10234 0.0013775 0)
(1.05796 0.0106399 0)
(1.05412 0.0128463 0)
(1.05494 0.00283098 0)
(1.06103 0.00666937 0)
(1.06495 0.002991 0)
(1.06407 0.00462455 0)
(1.06187 0.0050062 0)
(1.05361 0.00304678 0)
(0.852687 -0.0139675 0)
(1.19594 0.0174311 0)
(1.02878 0.00319732 0)
(0.990555 -0.0254674 0)
(0.940652 -0.0422863 0)
(1.13583 0.0165415 0)
(1.09889 0.0101846 0)
(1.12049 -0.00086001 0)
(1.04895 -0.0166632 0)
(1.04857 -0.0102534 0)
(1.04184 -0.0156335 0)
(1.07297 0.000988618 0)
(1.06323 0.0112677 0)
(1.06126 0.0129444 0)
(1.06096 0.00287688 0)
(1.06123 0.00625666 0)
(1.06549 0.00321857 0)
(1.06281 0.00450172 0)
(1.06012 0.00562248 0)
(1.05219 0.00389018 0)
(0.895891 -0.0143733 0)
(1.1451 0.016154 0)
(1.04711 0.00478393 0)
(0.985724 -0.0245178 0)
(0.937907 -0.0436559 0)
(1.09978 0.0145202 0)
(1.11844 0.0102248 0)
(1.11437 -5.14635e-05 0)
(1.0502 -0.0154654 0)
(1.03291 -0.0101495 0)
(1.03105 -0.015841 0)
(1.05073 0.000399859 0)
(1.05923 0.0112605 0)
(1.06589 0.0128987 0)
(1.06465 0.00308178 0)
(1.06087 0.00599096 0)
(1.06316 0.00349762 0)
(1.05929 0.00449614 0)
(1.05525 0.00619939 0)
(1.04773 0.00481263 0)
(0.930544 -0.0146982 0)
(1.09999 0.0150239 0)
(1.05088 0.00601552 0)
(0.991943 -0.0233761 0)
(0.933894 -0.0447806 0)
(1.07712 0.012159 0)
(1.12367 0.00999052 0)
(1.10911 0.000958272 0)
(1.04785 -0.0140857 0)
(1.02363 -0.00986621 0)
(1.01935 -0.015908 0)
(1.0333 -0.000378235 0)
(1.0515 0.0107605 0)
(1.06607 0.0126293 0)
(1.06491 0.00338118 0)
(1.05863 0.00587872 0)
(1.05844 0.00388505 0)
(1.05347 0.00462831 0)
(1.04806 0.00677843 0)
(1.04079 0.00579494 0)
(0.955349 -0.0149211 0)
(1.06314 0.0140962 0)
(1.04672 0.00683336 0)
(1.00267 -0.0221404 0)
(0.932726 -0.0456284 0)
(1.06259 0.00961065 0)
(1.11749 0.00962257 0)
(1.10022 0.00204679 0)
(1.04319 -0.0126169 0)
(1.01732 -0.00943562 0)
(1.00933 -0.015818 0)
(1.01919 -0.00127536 0)
(1.04203 0.00991824 0)
(1.06164 0.012162 0)
(1.06085 0.00373159 0)
(1.05337 0.00590123 0)
(1.05129 0.00437228 0)
(1.0456 0.00489834 0)
(1.03924 0.00737057 0)
(1.03222 0.00679006 0)
(0.971375 -0.0150302 0)
(1.03529 0.0133612 0)
(1.03979 0.00725325 0)
(1.0128 -0.0209173 0)
(0.93668 -0.0461755 0)
(1.04965 0.00709343 0)
(1.1021 0.00921106 0)
(1.08629 0.00307454 0)
(1.03643 -0.0111734 0)
(1.01226 -0.00892086 0)
(1.00166 -0.0155697 0)
(1.00762 -0.00219456 0)
(1.03125 0.00888518 0)
(1.0528 0.0115687 0)
(1.05244 0.00410169 0)
(1.04475 0.00601251 0)
(1.04176 0.00490907 0)
(1.03607 0.00527336 0)
(1.02945 0.00794615 0)
(1.02299 0.0077445 0)
(0.98095 -0.0150288 0)
(1.01584 0.0127659 0)
(1.03297 0.00735097 0)
(1.01984 -0.0198016 0)
(0.945242 -0.0464102 0)
(1.03454 0.00482085 0)
(1.08043 0.00882112 0)
(1.0686 0.00394493 0)
(1.0281 -0.00986363 0)
(1.00772 -0.00840571 0)
(0.996436 -0.015183 0)
(0.99842 -0.00303967 0)
(1.01964 0.00781649 0)
(1.04057 0.010924 0)
(1.0408 0.00445782 0)
(1.03366 0.00616394 0)
(1.03068 0.0054383 0)
(1.02567 0.0056904 0)
(1.01952 0.00845927 0)
(1.01401 0.00862001 0)
(0.986509 -0.0149347 0)
(1.00335 0.0122566 0)
(1.02724 0.0072097 0)
(1.02349 -0.0188518 0)
(0.955974 -0.0463383 0)
(1.01743 0.00293769 0)
(1.05647 0.00846821 0)
(1.04994 0.00458976 0)
(1.0193 -0.00875666 0)
(1.00355 -0.0079625 0)
(0.993354 -0.0146998 0)
(0.991753 -0.00373306 0)
(1.00846 0.00684882 0)
(1.02707 0.0102836 0)
(1.02809 0.00476965 0)
(1.02195 0.00631468 0)
(1.01957 0.00590839 0)
(1.0156 0.00609065 0)
(1.01038 0.0088777 0)
(1.00611 0.00938219 0)
(0.989895 -0.0147723 0)
(0.995931 0.0117979 0)
(1.0226 0.00692909 0)
(1.02455 -0.0180821 0)
(0.96625 -0.045979 0)
(1.00086 0.00149133 0)
(1.03422 0.00812546 0)
(1.03306 0.00498027 0)
(1.01123 -0.00787345 0)
(0.999877 -0.00763414 0)
(0.991802 -0.0141666 0)
(0.987596 -0.00424249 0)
(0.999211 0.00606171 0)
(1.01476 0.0096837 0)
(1.01659 0.00501587 0)
(1.01157 0.00643774 0)
(1.00996 0.00629428 0)
(1.00704 0.00644566 0)
(1.00284 0.00919029 0)
(0.999852 0.0100018 0)
(0.992187 -0.0145656 0)
(0.991792 0.0113756 0)
(1.01881 0.00658218 0)
(1.02406 -0.0174727 0)
(0.97447 -0.0453714 0)
(0.987276 0.000440262 0)
(1.01636 0.00777751 0)
(1.01969 0.0051341 0)
(1.00476 -0.00719051 0)
(0.996907 -0.00743008 0)
(0.991101 -0.013619 0)
(0.985455 -0.00458383 0)
(0.992712 0.00546782 0)
(1.0053 0.00914495 0)
(1.00774 0.00518786 0)
(1.0037 0.00652735 0)
(1.0028 0.00660199 0)
(1.00069 0.00674857 0)
(0.997328 0.00940714 0)
(0.995401 0.0104699 0)
(0.993885 -0.0143322 0)
(0.989565 0.0109875 0)
(1.01572 0.00619349 0)
(1.02285 -0.0169894 0)
(0.980226 -0.0445688 0)
(0.977729 -0.000299943 0)
(1.00371 0.00741277 0)
(1.01025 0.00508842 0)
(1.00016 -0.00666066 0)
(0.994761 -0.00733035 0)
(0.990774 -0.0130822 0)
(0.984575 -0.00480057 0)
(0.988788 0.00502868 0)
(0.999023 0.00867023 0)
(1.00183 0.00529287 0)
(0.99851 0.00659289 0)
(0.998147 0.00685105 0)
(0.99661 0.00700151 0)
(0.993816 0.00955517 0)
(0.992619 0.0108063 0)
(0.995175 -0.0140815 0)
(0.988408 0.0106257 0)
(1.01327 0.0057915 0)
(1.02141 -0.016597 0)
(0.983861 -0.0436199 0)
(0.971902 -0.000829285 0)
(0.995666 0.00702912 0)
(1.00422 0.00489473 0)
(0.997275 -0.00623577 0)
(0.993417 -0.0073013 0)
(0.990608 -0.012562 0)
(0.984303 -0.00493749 0)
(0.986681 0.00468737 0)
(0.995293 0.00825116 0)
(0.998261 0.00534749 0)
(0.995453 0.00664258 0)
(0.995489 0.00706213 0)
(0.994386 0.00721242 0)
(0.991947 0.00966046 0)
(0.991174 0.0110449 0)
(0.996129 -0.0138189 0)
(0.98787 0.0102822 0)
(1.01142 0.00539118 0)
(1.01997 -0.0162653 0)
(0.98597 -0.0425657 0)
(0.968815 -0.0012366 0)
(0.991022 0.00664466 0)
(1.00071 0.00460217 0)
(0.995713 -0.00587803 0)
(0.992739 -0.00731101 0)
(0.990551 -0.0120517 0)
(0.984254 -0.0050234 0)
(0.985596 0.00439716 0)
(0.99315 0.00787466 0)
(0.996197 0.00536528 0)
(0.993764 0.00667784 0)
(0.994115 0.00724783 0)
(0.993412 0.00739118 0)
(0.991231 0.00973708 0)
(0.990679 0.0112158 0)
(0.996797 -0.0135466 0)
(0.987715 0.00994814 0)
(1.0101 0.00499863 0)
(1.01866 -0.0159701 0)
(0.987106 -0.0414411 0)
(0.967473 -0.00157933 0)
(0.988579 0.00626143 0)
(0.998877 0.00423674 0)
(0.995047 -0.00556197 0)
(0.992538 -0.0073312 0)
(0.990598 -0.0115447 0)
(0.984283 -0.00507106 0)
(0.984988 0.00412521 0)
(0.991823 0.0075284 0)
(0.994926 0.00535378 0)
(0.99282 0.00669682 0)
(0.99343 0.00740781 0)
(0.993144 0.00754176 0)
(0.991206 0.00978823 0)
(0.990775 0.0113377 0)
(0.997231 -0.0132653 0)
(0.987804 0.00961408 0)
(1.00921 0.00461771 0)
(1.01751 -0.0156942 0)
(0.987679 -0.0402658 0)
(0.96715 -0.00189465 0)
(0.987439 0.00587629 0)
(0.998057 0.00381863 0)
(0.994913 -0.0052702 0)
(0.992627 -0.00734403 0)
(0.990728 -0.0110349 0)
(0.984369 -0.00508032 0)
(0.984593 0.00385711 0)
(0.990873 0.00720522 0)
(0.99402 0.00531844 0)
(0.992241 0.00669559 0)
(0.99306 0.00753855 0)
(0.9932 0.00766223 0)
(0.991523 0.00980835 0)
(0.991177 0.0114194 0)
(0.997483 -0.0129751 0)
(0.988047 0.00927335 0)
(1.00862 0.00424846 0)
(1.01653 -0.0154279 0)
(0.987966 -0.0390513 0)
(0.96741 -0.00220247 0)
(0.987022 0.00548822 0)
(0.997799 0.0033616 0)
(0.995039 -0.00499286 0)
(0.992854 -0.00733959 0)
(0.990907 -0.0105222 0)
(0.984526 -0.00504733 0)
(0.98432 0.00359196 0)
(0.990124 0.00690026 0)
(0.993293 0.00526378 0)
(0.991853 0.00666944 0)
(0.992821 0.0076413 0)
(0.993366 0.00775217 0)
(0.991964 0.00978792 0)
(0.991689 0.0114635 0)
(0.997609 -0.0126756 0)
(0.988381 0.0089191 0)
(1.00821 0.00389297 0)
(1.0157 -0.015165 0)
(0.988138 -0.0378092 0)
(0.968021 -0.00251885 0)
(0.986983 0.00509581 0)
(0.997807 0.0028748 0)
(0.995233 -0.00472777 0)
(0.99311 -0.00730759 0)
(0.991097 -0.0100125 0)
(0.984766 -0.00497016 0)
(0.984157 0.00332933 0)
(0.989539 0.00660964 0)
(0.992692 0.00519403 0)
(0.991592 0.00661583 0)
(0.99265 0.00771668 0)
(0.993543 0.00781617 0)
(0.992413 0.00972109 0)
(0.992198 0.0114683 0)
(0.997657 -0.0123661 0)
(0.988762 0.00854776 0)
(1.00787 0.00354895 0)
(1.01498 -0.0149025 0)
(0.988298 -0.0365436 0)
(0.968857 -0.0028491 0)
(0.987124 0.00470108 0)
(0.997899 0.00236763 0)
(0.995373 -0.00447655 0)
(0.993329 -0.0072407 0)
(0.991273 -0.00951387 0)
(0.985088 -0.00484937 0)
(0.984112 0.00306935 0)
(0.989123 0.00632907 0)
(0.992218 0.00511397 0)
(0.991437 0.00653736 0)
(0.992532 0.00776138 0)
(0.993695 0.00786161 0)
(0.992819 0.00960986 0)
(0.992652 0.0114266 0)
(0.997665 -0.012047 0)
(0.98916 0.00815958 0)
(1.00753 0.0032141 0)
(1.01432 -0.0146391 0)
(0.988495 -0.0352578 0)
(0.969844 -0.00319271 0)
(0.987333 0.0043078 0)
(0.997972 0.00184808 0)
(0.9954 -0.00424008 0)
(0.993481 -0.00713787 0)
(0.991429 -0.00903477 0)
(0.985483 -0.00469031 0)
(0.98419 0.00281285 0)
(0.988874 0.00605451 0)
(0.991875 0.00502792 0)
(0.991377 0.00643942 0)
(0.992469 0.00777461 0)
(0.993817 0.00789493 0)
(0.993166 0.00946362 0)
(0.993035 0.0113278 0)
(0.997663 -0.0117178 0)
(0.989556 0.00775318 0)
(1.00717 0.00289128 0)
(1.0137 -0.0143752 0)
(0.988744 -0.0339577 0)
(0.970921 -0.00354589 0)
(0.987559 0.00391744 0)
(0.997985 0.00132362 0)
(0.995305 -0.00402236 0)
(0.993561 -0.00699873 0)
(0.991571 -0.00858434 0)
(0.985938 -0.00449286 0)
(0.984388 0.00256263 0)
(0.988774 0.00578296 0)
(0.991658 0.00494176 0)
(0.991396 0.00632414 0)
(0.992458 0.00775784 0)
(0.993914 0.00791901 0)
(0.993453 0.00929813 0)
(0.993352 0.0111698 0)
(0.997669 -0.011378 0)
(0.989938 0.00732877 0)
(1.00677 0.00257995 0)
(1.01308 -0.0141119 0)
(0.989041 -0.0326469 0)
(0.972046 -0.00390425 0)
(0.987781 0.00353285 0)
(0.997939 0.000801589 0)
(0.995113 -0.00382855 0)
(0.993578 -0.00682438 0)
(0.991711 -0.00816641 0)
(0.986432 -0.00426342 0)
(0.984691 0.00232312 0)
(0.988789 0.00550989 0)
(0.991549 0.00486187 0)
(0.991478 0.0061954 0)
(0.992496 0.0077105 0)
(0.993996 0.0079339 0)
(0.99369 0.00912759 0)
(0.993616 0.0109621 0)
(0.997695 -0.0110286 0)
(0.990299 0.00688877 0)
(1.00635 0.00227979 0)
(1.01245 -0.0138488 0)
(0.989375 -0.0313299 0)
(0.973187 -0.00426492 0)
(0.988 0.00315528 0)
(0.997852 0.00029017 0)
(0.994866 -0.00366128 0)
(0.993546 -0.00661823 0)
(0.991856 -0.00778235 0)
(0.986948 -0.0040167 0)
(0.985078 0.0021001 0)
(0.988885 0.00523114 0)
(0.991523 0.0047902 0)
(0.991607 0.00606343 0)
(0.992574 0.00763203 0)
(0.994071 0.00793887 0)
(0.993888 0.00896316 0)
(0.993841 0.0107165 0)
(0.997745 -0.0106694 0)
(0.990638 0.00643491 0)
(1.00592 0.00198956 0)
(1.01182 -0.0135865 0)
(0.989734 -0.0300113 0)
(0.974326 -0.00462203 0)
(0.988218 0.00278285 0)
(0.99774 -0.000205285 0)
(0.9946 -0.00352209 0)
(0.993478 -0.00638319 0)
(0.992013 -0.007432 0)
(0.987467 -0.00376497 0)
(0.985521 0.00189916 0)
(0.98903 0.0049449 0)
(0.991555 0.00472426 0)
(0.991766 0.00593793 0)
(0.992683 0.00752583 0)
(0.994147 0.00792428 0)
(0.994059 0.0088193 0)
(0.994041 0.0104505 0)
(0.99782 -0.0103007 0)
(0.99096 0.00596848 0)
(1.00548 0.00170946 0)
(1.01116 -0.0133266 0)
(0.990111 -0.0286971 0)
(0.975454 -0.004971 0)
(0.988436 0.00241474 0)
(0.997614 -0.000680995 0)
(0.994343 -0.00341373 0)
(0.99338 -0.00612277 0)
(0.992179 -0.00711387 0)
(0.98798 -0.00351398 0)
(0.985995 0.00172807 0)
(0.989205 0.00465308 0)
(0.991622 0.00465859 0)
(0.991944 0.00582241 0)
(0.992811 0.00739933 0)
(0.994226 0.00787638 0)
(0.994213 0.00869263 0)
(0.994223 0.0101948 0)
(0.997916 -0.00992348 0)
(0.991273 0.00549176 0)
(1.00504 0.00143997 0)
(1.0105 -0.013068 0)
(0.990498 -0.0273905 0)
(0.976567 -0.00530912 0)
(0.988654 0.00205013 0)
(0.997476 -0.00113194 0)
(0.99411 -0.0033385 0)
(0.993259 -0.00584089 0)
(0.992352 -0.00682188 0)
(0.988484 -0.00327286 0)
(0.986477 0.00159402 0)
(0.989397 0.0043594 0)
(0.991711 0.00458405 0)
(0.992129 0.00571982 0)
(0.992949 0.00726003 0)
(0.994312 0.00779929 0)
(0.994363 0.00855657 0)
(0.994396 0.00996137 0)
(0.998025 -0.00953786 0)
(0.991585 0.00500684 0)
(1.0046 0.00117897 0)
(1.00983 -0.0128088 0)
(0.990889 -0.0260971 0)
(0.977664 -0.00562938 0)
(0.988872 0.00168888 0)
(0.997331 -0.0015563 0)
(0.993908 -0.00329449 0)
(0.993124 -0.00554176 0)
(0.992524 -0.00654497 0)
(0.988977 -0.00305823 0)
(0.98695 0.00149929 0)
(0.989597 0.00406975 0)
(0.991814 0.00449042 0)
(0.992318 0.00563207 0)
(0.993091 0.00711642 0)
(0.9944 0.00770505 0)
(0.994516 0.0083969 0)
(0.994573 0.00972723 0)
(0.99814 -0.00914633 0)
(0.991905 0.00451615 0)
(1.00416 0.00092813 0)
(1.00917 -0.0125464 0)
(0.991276 -0.0248248 0)
(0.978744 -0.00593222 0)
(0.989092 0.00132916 0)
(0.997182 -0.00195284 0)
(0.993739 -0.00328186 0)
(0.99298 -0.00523241 0)
(0.992689 -0.00627761 0)
(0.989462 -0.00287946 0)
(0.987405 0.00144564 0)
(0.9898 0.00379782 0)
(0.991929 0.00437575 0)
(0.992507 0.00555248 0)
(0.993235 0.00697349 0)
(0.994487 0.00760056 0)
(0.99467 0.0082259 0)
(0.994763 0.00946303 0)
(0.998254 -0.00874854 0)
(0.992236 0.0040231 0)
(1.00373 0.00068364 0)
(1.0085 -0.0122808 0)
(0.991656 -0.0235759 0)
(0.979805 -0.00621481 0)
(0.989319 0.000970943 0)
(0.997034 -0.00231743 0)
(0.993603 -0.00330064 0)
(0.992835 -0.00492021 0)
(0.992841 -0.00601156 0)
(0.989942 -0.00273953 0)
(0.987841 0.00142276 0)
(0.989997 0.00355316 0)
(0.992056 0.00423872 0)
(0.992698 0.00547475 0)
(0.99338 0.00683138 0)
(0.994573 0.00748388 0)
(0.994819 0.00806499 0)
(0.994972 0.00916862 0)
(0.998366 -0.0083464 0)
(0.992578 0.00352978 0)
(1.00332 0.000446891 0)
(1.00785 -0.0120116 0)
(0.992026 -0.0223568 0)
(0.980846 -0.00646904 0)
(0.989552 0.00061211 0)
(0.996893 -0.00264784 0)
(0.993499 -0.0033471 0)
(0.992695 -0.00460933 0)
(0.992978 -0.00573886 0)
(0.990416 -0.00263647 0)
(0.98826 0.0014144 0)
(0.990186 0.00334291 0)
(0.992194 0.0040749 0)
(0.992895 0.00539339 0)
(0.993525 0.00669803 0)
(0.994659 0.00734331 0)
(0.994958 0.00791527 0)
(0.995191 0.00886822 0)
(0.998473 -0.00794213 0)
(0.992929 0.00303773 0)
(1.00292 0.000221186 0)
(1.00721 -0.0117363 0)
(0.992387 -0.021173 0)
(0.981864 -0.00669557 0)
(0.989793 0.000250294 0)
(0.99676 -0.0029412 0)
(0.993426 -0.00341969 0)
(0.992563 -0.00430585 0)
(0.993096 -0.0054562 0)
(0.990885 -0.00256728 0)
(0.988666 0.00140971 0)
(0.99036 0.00317945 0)
(0.992343 0.00388694 0)
(0.993102 0.00529338 0)
(0.99367 0.00658851 0)
(0.994745 0.00718128 0)
(0.995088 0.00775246 0)
(0.995408 0.00858636 0)
(0.998576 -0.00753516 0)
(0.993286 0.00255067 0)
(1.00253 -9.44128e-07 0)
(1.00659 -0.0114531 0)
(0.992738 -0.0200265 0)
(0.982858 -0.00689266 0)
(0.990038 -0.000111536 0)
(0.996635 -0.00319475 0)
(0.993382 -0.00351344 0)
(0.992445 -0.0040205 0)
(0.993195 -0.00516438 0)
(0.991348 -0.0025271 0)
(0.989067 0.00139451 0)
(0.990517 0.00306706 0)
(0.992496 0.00368797 0)
(0.993326 0.00515559 0)
(0.993813 0.00650384 0)
(0.994823 0.00702846 0)
(0.995212 0.00755826 0)
(0.99562 0.00831903 0)
(0.998676 -0.0071285 0)
(0.993646 0.00207027 0)
(1.00215 -0.000217201 0)
(1.00599 -0.0111615 0)
(0.993078 -0.0189202 0)
(0.983825 -0.00705862 0)
(0.990287 -0.000473656 0)
(0.996515 -0.00341053 0)
(0.993364 -0.00362074 0)
(0.992342 -0.00375953 0)
(0.993275 -0.00485932 0)
(0.991802 -0.00250538 0)
(0.989471 0.00135501 0)
(0.990658 0.00300191 0)
(0.992642 0.00349893 0)
(0.993569 0.00497155 0)
(0.993963 0.00642059 0)
(0.994886 0.00691438 0)
(0.995322 0.00734316 0)
(0.995825 0.00803742 0)
(0.998772 -0.00672279 0)
(0.994007 0.00159824 0)
(1.00179 -0.000423977 0)
(1.0054 -0.0108681 0)
(0.993408 -0.0178564 0)
(0.984766 -0.00719312 0)
(0.990539 -0.000835973 0)
(0.996399 -0.00359125 0)
(0.99337 -0.00373526 0)
(0.992258 -0.00352813 0)
(0.993335 -0.00454236 0)
(0.992244 -0.00249033 0)
(0.989884 0.00128334 0)
(0.990787 0.0029712 0)
(0.992771 0.00333803 0)
(0.993828 0.00473954 0)
(0.994129 0.00630707 0)
(0.994931 0.00684187 0)
(0.995406 0.00714426 0)
(0.996023 0.00773192 0)
(0.998865 -0.00631952 0)
(0.994368 0.00113779 0)
(1.00144 -0.00062105 0)
(1.00484 -0.0105713 0)
(0.993727 -0.0168405 0)
(0.985677 -0.00729443 0)
(0.990794 -0.00120091 0)
(0.996285 -0.00373605 0)
(0.993397 -0.00384952 0)
(0.992196 -0.00332877 0)
(0.993375 -0.00422092 0)
(0.992667 -0.00247698 0)
(0.99031 0.00117928 0)
(0.990912 0.00295409 0)
(0.992875 0.00322108 0)
(0.994094 0.00447218 0)
(0.994321 0.00614232 0)
(0.994964 0.00679087 0)
(0.995449 0.00699392 0)
(0.9962 0.00742086 0)
(0.998955 -0.00592012 0)
(0.994727 0.000689228 0)
(1.0011 -0.000807623 0)
(1.00429 -0.0102701 0)
(0.994035 -0.01587 0)
(0.986556 -0.00736078 0)
(0.991053 -0.00156967 0)
(0.996175 -0.00385123 0)
(0.993442 -0.00395602 0)
(0.992158 -0.00316341 0)
(0.993397 -0.0038957 0)
(0.993066 -0.00245411 0)
(0.990751 0.00104882 0)
(0.991043 0.00293367 0)
(0.992949 0.00314899 0)
(0.994356 0.00419921 0)
(0.994548 0.00591565 0)
(0.995001 0.00672888 0)
(0.995448 0.00689782 0)
(0.996333 0.00714215 0)
(0.99904 -0.00552552 0)
(0.995082 0.000253877 0)
(1.00078 -0.000979897 0)
(1.00377 -0.00997891 0)
(0.994332 -0.0149455 0)
(0.9874 -0.00738957 0)
(0.991315 -0.00193638 0)
(0.996068 -0.00394406 0)
(0.993501 -0.00405115 0)
(0.992145 -0.00303762 0)
(0.993404 -0.00358017 0)
(0.993435 -0.00241742 0)
(0.991202 0.000890722 0)
(0.991187 0.00289964 0)
(0.992997 0.00311154 0)
(0.994602 0.00394659 0)
(0.994807 0.00562874 0)
(0.99506 0.00662779 0)
(0.995409 0.00684024 0)
(0.996403 0.00692771 0)
(0.999121 -0.00513797 0)
(0.995432 -0.00016636 0)
(1.00047 -0.00113233 0)
(1.00328 -0.00969417 0)
(0.99462 -0.0140762 0)
(0.988207 -0.00737766 0)
(0.99158 -0.00230057 0)
(0.995968 -0.00402067 0)
(0.99357 -0.00413002 0)
(0.992159 -0.00294101 0)
(0.993401 -0.00327848 0)
(0.99377 -0.00236503 0)
(0.99166 0.000708976 0)
(0.99135 0.002843 0)
(0.993019 0.00310542 0)
(0.994819 0.00372742 0)
(0.995094 0.00529579 0)
(0.99516 0.00646989 0)
(0.995352 0.00679144 0)
(0.996396 0.00679234 0)
(0.999198 -0.00475664 0)
(0.995778 -0.000572148 0)
(1.00018 -0.0012703 0)
(1.0028 -0.00940779 0)
(0.994899 -0.0132621 0)
(0.988975 -0.00732096 0)
(0.991845 -0.00265353 0)
(0.995877 -0.0040864 0)
(0.99365 -0.00418647 0)
(0.992199 -0.00286884 0)
(0.99339 -0.00299081 0)
(0.994069 -0.00229213 0)
(0.992121 0.00051463 0)
(0.991539 0.00275333 0)
(0.993023 0.00312219 0)
(0.994994 0.00355007 0)
(0.995397 0.00493297 0)
(0.99531 0.00624416 0)
(0.995304 0.00671747 0)
(0.996319 0.00672075 0)
(0.999271 -0.00438567 0)
(0.996118 -0.000955899 0)
(0.999908 -0.00140087 0)
(1.00235 -0.00911498 0)
(0.995172 -0.0125123 0)
(0.989703 -0.00722083 0)
(0.992109 -0.0029818 0)
(0.995797 -0.00414659 0)
(0.993737 -0.00422187 0)
(0.992263 -0.00281993 0)
(0.993375 -0.00272604 0)
(0.994329 -0.00219743 0)
(0.992579 0.000314441 0)
(0.991759 0.00262508 0)
(0.993016 0.00314504 0)
(0.995117 0.0034283 0)
(0.995697 0.00457125 0)
(0.995514 0.00595155 0)
(0.99529 0.0066005 0)
(0.996201 0.00667725 0)
(0.999338 -0.00402715 0)
(0.996452 -0.00131443 0)
(0.999658 -0.00152803 0)
(1.00192 -0.00879863 0)
(0.995441 -0.0118429 0)
(0.990393 -0.00708695 0)
(0.992368 -0.00327563 0)
(0.99573 -0.00421099 0)
(0.993832 -0.00424389 0)
(0.992352 -0.00278714 0)
(0.993361 -0.0024837 0)
(0.994549 -0.00208208 0)
(0.993028 0.000118317 0)
(0.992014 0.00246027 0)
(0.993012 0.00315151 0)
(0.995187 0.00335719 0)
(0.995973 0.00424406 0)
(0.995767 0.00560094 0)
(0.99533 0.00643162 0)
(0.996074 0.00662141 0)
(0.999401 -0.00368077 0)
(0.996779 -0.00164762 0)
(0.999433 -0.00165924 0)
(1.0015 -0.00845313 0)
(0.995704 -0.0112501 0)
(0.99105 -0.00693361 0)
(0.992621 -0.0035153 0)
(0.995675 -0.00427433 0)
(0.993937 -0.00425611 0)
(0.992466 -0.00276524 0)
(0.99335 -0.00226977 0)
(0.994728 -0.00195445 0)
(0.993463 -6.25707e-05 0)
(0.992305 0.00226903 0)
(0.993023 0.00313302 0)
(0.995209 0.00331932 0)
(0.996205 0.00397293 0)
(0.996051 0.00521842 0)
(0.995432 0.00621229 0)
(0.995971 0.00652536 0)
(0.999459 -0.00335086 0)
(0.997096 -0.0019488 0)
(0.999235 -0.00179883 0)
(1.00111 -0.00807544 0)
(0.99596 -0.0107242 0)
(0.991678 -0.00677897 0)
(0.992866 -0.00369592 0)
(0.995631 -0.00432326 0)
(0.994051 -0.00425816 0)
(0.992605 -0.00274847 0)
(0.993348 -0.00208309 0)
(0.994866 -0.0018119 0)
(0.993875 -0.000223346 0)
(0.992631 0.00205639 0)
(0.993058 0.00308854 0)
(0.995195 0.00329784 0)
(0.996381 0.00376163 0)
(0.996351 0.00483191 0)
(0.995595 0.00595185 0)
(0.995911 0.00639298 0)
(0.999513 -0.00303901 0)
(0.997402 -0.00221266 0)
(0.999067 -0.00195088 0)
(1.00073 -0.00766562 0)
(0.996205 -0.0102475 0)
(0.992283 -0.00664118 0)
(0.993105 -0.00383012 0)
(0.995596 -0.00435162 0)
(0.994175 -0.0042524 0)
(0.992769 -0.00273775 0)
(0.993361 -0.0019201 0)
(0.994965 -0.00166089 0)
(0.994255 -0.000363696 0)
(0.992988 0.00182141 0)
(0.993128 0.00301515 0)
(0.995157 0.00328067 0)
(0.996496 0.00361001 0)
(0.996646 0.00446197 0)
(0.995821 0.00564089 0)
(0.995898 0.00623502 0)
(0.999562 -0.00274807 0)
(0.997696 -0.00243362 0)
(0.998933 -0.00212146 0)
(1.00037 -0.00723218 0)
(0.996435 -0.00979542 0)
(0.992868 -0.0065284 0)
(0.993343 -0.00392198 0)
(0.995569 -0.00435687 0)
(0.994305 -0.00424687 0)
(0.992958 -0.00273307 0)
(0.993392 -0.00177887 0)
(0.995031 -0.00150515 0)
(0.994596 -0.000471969 0)
(0.993373 0.00156998 0)
(0.993242 0.0029102 0)
(0.995112 0.00325373 0)
(0.996549 0.00351345 0)
(0.996911 0.00414351 0)
(0.996103 0.00527352 0)
(0.995943 0.00603841 0)
(0.999607 -0.00247929 0)
(0.997973 -0.00261058 0)
(0.998834 -0.00230919 0)
(1.00004 -0.00679034 0)
(0.996645 -0.00934232 0)
(0.993436 -0.00645329 0)
(0.993582 -0.00397811 0)
(0.995547 -0.00432052 0)
(0.994441 -0.0042348 0)
(0.993172 -0.00273856 0)
(0.993449 -0.00166247 0)
(0.995072 -0.0013435 0)
(0.99489 -0.00053628 0)
(0.993772 0.00131523 0)
(0.993402 0.00277276 0)
(0.995076 0.00320241 0)
(0.996555 0.00344223 0)
(0.997119 0.00390392 0)
(0.996418 0.00488561 0)
(0.996061 0.00577692 0)
(0.999649 -0.00223402 0)
(0.998231 -0.00274218 0)
(0.998771 -0.00250636 0)
(0.999731 -0.00636204 0)
(0.996829 -0.00886683 0)
(0.993984 -0.00640779 0)
(0.993833 -0.00401429 0)
(0.995531 -0.00423547 0)
(0.994578 -0.00420236 0)
(0.99341 -0.00276125 0)
(0.993536 -0.00157898 0)
(0.9951 -0.00118759 0)
(0.995138 -0.000557566 0)
(0.994175 0.00106729 0)
(0.993607 0.00260358 0)
(0.995057 0.00312698 0)
(0.996534 0.00335937 0)
(0.997265 0.00372595 0)
(0.996727 0.0045284 0)
(0.996254 0.00544192 0)
(0.999687 -0.00201444 0)
(0.998469 -0.00282638 0)
(0.998742 -0.002707 0)
(0.999458 -0.00595883 0)
(0.996985 -0.00836471 0)
(0.99451 -0.00637024 0)
(0.9941 -0.00405459 0)
(0.995522 -0.00411036 0)
(0.994709 -0.00412845 0)
(0.993667 -0.00279489 0)
(0.993658 -0.001534 0)
(0.995125 -0.00104937 0)
(0.995338 -0.000530994 0)
(0.99457 0.000845922 0)
(0.993857 0.00240451 0)
(0.99506 0.00303699 0)
(0.996499 0.00326146 0)
(0.997364 0.00357048 0)
(0.997 0.00422967 0)
(0.996499 0.00507258 0)
(0.999723 -0.00181997 0)
(0.998684 -0.00286722 0)
(0.998743 -0.00290247 0)
(0.999226 -0.00558704 0)
(0.997111 -0.00784472 0)
(0.995004 -0.0063176 0)
(0.994391 -0.00412313 0)
(0.99553 -0.00396571 0)
(0.994828 -0.00399827 0)
(0.993933 -0.0028167 0)
(0.993815 -0.00152844 0)
(0.995163 -0.000943614 0)
(0.995501 -0.000475588 0)
(0.994943 0.000664922 0)
(0.994148 0.00217577 0)
(0.995093 0.002924 0)
(0.996454 0.00316508 0)
(0.997429 0.00341621 0)
(0.99723 0.00397478 0)
(0.996759 0.00471788 0)
(0.999756 -0.00165021 0)
(0.998875 -0.00286773 0)
(0.998772 -0.00308115 0)
(0.999036 -0.00526425 0)
(0.99721 -0.00732225 0)
(0.99546 -0.00622545 0)
(0.994705 -0.0042178 0)
(0.995567 -0.00382868 0)
(0.994938 -0.00382049 0)
(0.994197 -0.0028055 0)
(0.994003 -0.00154547 0)
(0.995221 -0.000871241 0)
(0.995635 -0.000409285 0)
(0.995285 0.000534191 0)
(0.994468 0.0019369 0)
(0.99517 0.00277532 0)
(0.996407 0.00307078 0)
(0.997463 0.00327097 0)
(0.997424 0.00373702 0)
(0.997008 0.00439984 0)
(0.999787 -0.00150373 0)
(0.999042 -0.00283088 0)
(0.998821 -0.00323726 0)
(0.998892 -0.00499484 0)
(0.997289 -0.00680933 0)
(0.995869 -0.00608374 0)
(0.995035 -0.00431948 0)
(0.995644 -0.00371774 0)
(0.995042 -0.00361146 0)
(0.994448 -0.00275222 0)
(0.994212 -0.00156942 0)
(0.995307 -0.00083652 0)
(0.995754 -0.000349726 0)
(0.995591 0.0004439 0)
(0.994799 0.00171542 0)
(0.995293 0.00260062 0)
(0.996374 0.00296434 0)
(0.997467 0.00314699 0)
(0.997585 0.00351395 0)
(0.997233 0.0041219 0)
(0.999816 -0.00138042 0)
(0.999184 -0.00275979 0)
(0.998885 -0.00336446 0)
(0.998795 -0.00477562 0)
(0.997356 -0.00631533 0)
(0.996228 -0.00588403 0)
(0.995372 -0.00441049 0)
(0.995767 -0.00365483 0)
(0.995151 -0.00339535 0)
(0.99468 -0.00264885 0)
(0.99443 -0.00157964 0)
(0.995419 -0.000826994 0)
(0.995868 -0.000307134 0)
(0.995868 0.000372476 0)
(0.995134 0.00151376 0)
(0.995455 0.00241386 0)
(0.996368 0.00283299 0)
(0.99745 0.00303059 0)
(0.997716 0.00330561 0)
(0.997439 0.00385736 0)
(0.999843 -0.00127738 0)
(0.999301 -0.0026649 0)
(0.998954 -0.00345103 0)
(0.998742 -0.00460376 0)
(0.99742 -0.00585389 0)
(0.996533 -0.00562882 0)
(0.9957 -0.00446197 0)
(0.995936 -0.00364178 0)
(0.995281 -0.00320123 0)
(0.994895 -0.00250848 0)
(0.994646 -0.00156695 0)
(0.995551 -0.000834741 0)
(0.995982 -0.000281486 0)
(0.996114 0.000314672 0)
(0.995466 0.0013253 0)
(0.995649 0.00222505 0)
(0.996391 0.00268776 0)
(0.997422 0.00291454 0)
(0.99781 0.00312517 0)
(0.997641 0.00358797 0)
(0.999869 -0.00118694 0)
(0.999398 -0.0025589 0)
(0.999023 -0.00349159 0)
(0.99873 -0.00446066 0)
(0.99749 -0.00544048 0)
(0.996791 -0.00534065 0)
(0.996004 -0.00444951 0)
(0.996141 -0.00365892 0)
(0.995443 -0.00306019 0)
(0.995098 -0.00235225 0)
(0.994848 -0.00151615 0)
(0.995696 -0.000845057 0)
(0.996102 -0.000275436 0)
(0.996335 0.000271491 0)
(0.99579 0.00114882 0)
(0.995872 0.0020282 0)
(0.996448 0.00253325 0)
(0.997397 0.00278933 0)
(0.997861 0.00297907 0)
(0.997832 0.00332427 0)
(0.999893 -0.00110989 0)
(0.999475 -0.002442 0)
(0.999088 -0.00348483 0)
(0.998752 -0.0043321 0)
(0.997571 -0.00507826 0)
(0.997009 -0.00504593 0)
(0.996274 -0.00436291 0)
(0.996365 -0.00366755 0)
(0.995644 -0.00298723 0)
(0.99531 -0.00221455 0)
(0.995034 -0.00143334 0)
(0.995839 -0.000839468 0)
(0.996227 -0.000286104 0)
(0.996531 0.000237432 0)
(0.996093 0.000997354 0)
(0.996118 0.00182303 0)
(0.996537 0.00236935 0)
(0.99739 0.00264797 0)
(0.997876 0.00285279 0)
(0.997988 0.00309848 0)
(0.999914 -0.00104233 0)
(0.999538 -0.0023216 0)
(0.999144 -0.00342731 0)
(0.998798 -0.00421276 0)
(0.997664 -0.00476516 0)
(0.997201 -0.00475759 0)
(0.996511 -0.00422305 0)
(0.996584 -0.00363129 0)
(0.995872 -0.00295437 0)
(0.995541 -0.00212608 0)
(0.995213 -0.00134417 0)
(0.995971 -0.00080937 0)
(0.996355 -0.000301453 0)
(0.996714 0.000195363 0)
(0.99637 0.000874029 0)
(0.996375 0.00162267 0)
(0.996658 0.0021941 0)
(0.997407 0.00249646 0)
(0.997878 0.00271966 0)
(0.998089 0.00292524 0)
(0.999932 -0.000978106 0)
(0.999589 -0.00220688 0)
(0.999189 -0.00332714 0)
(0.998859 -0.00408931 0)
(0.997769 -0.00449851 0)
(0.997372 -0.00448092 0)
(0.996718 -0.00405928 0)
(0.996789 -0.00354494 0)
(0.996112 -0.0029187 0)
(0.995799 -0.00208579 0)
(0.995402 -0.00126975 0)
(0.996091 -0.000760734 0)
(0.996469 -0.00030205 0)
(0.996883 0.000150645 0)
(0.996623 0.000763941 0)
(0.996629 0.00144228 0)
(0.996805 0.00200919 0)
(0.997447 0.00234015 0)
(0.997889 0.00256659 0)
(0.998149 0.00277348 0)
(0.999947 -0.000917864 0)
(0.999633 -0.002097 0)
(0.999225 -0.00319895 0)
(0.998926 -0.0039522 0)
(0.997886 -0.00427065 0)
(0.997532 -0.00422058 0)
(0.996904 -0.00387767 0)
(0.996977 -0.00342143 0)
(0.996344 -0.00285794 0)
(0.996072 -0.00207641 0)
(0.995607 -0.00122951 0)
(0.996209 -0.000711107 0)
(0.996571 -0.000291958 0)
(0.997032 0.000118531 0)
(0.996855 0.000660071 0)
(0.996876 0.00127703 0)
(0.99697 0.00182802 0)