/*--------------------------------*- C++ -*----------------------------------*\
| =========                 |                                                 |
| \\      /  F ield         | OpenFOAM: The Open Source CFD Toolbox           |
|  \\    /   O peration     | Version:  v1912                                 |
|   \\  /    A nd           | Website:  www.openfoam.com                      |
|    \\/     M anipulation  |                                                 |
\*---------------------------------------------------------------------------*/
FoamFile
{
    version     2.0;
    format      ascii;
    class       volVectorField;
    location    "1.65";
    object      U;
}
// * * * * * * * * * * * * * * * * * * * * * * * * * * * * * * * * * * * * * //

dimensions      [0 1 -1 0 0 0 0];


internalField   nonuniform List<vector> 
9600
(
(0.732448 -0.0042954 0)
(1.36038 0.0119119 0)
(0.734091 -0.00265641 0)
(1.11557 -0.00923752 0)
(0.813312 0.0122279 0)
(1.36123 0.018729 0)
(0.563939 -0.00843678 0)
(1.29403 0.00358761 0)
(0.74082 -0.00844418 0)
(1.17142 0.0121907 0)
(0.849826 0.010154 0)
(1.17422 0.0197177 0)
(0.855193 0.00697085 0)
(1.15277 0.00884404 0)
(0.863483 -0.00263748 0)
(1.16587 0.00381734 0)
(0.844007 0.00855436 0)
(1.15289 0.013381 0)
(0.828106 0.0203004 0)
(1.13114 0.0207955 0)
(0.740043 -0.00523219 0)
(1.35267 0.0120213 0)
(0.7595 -0.000770402 0)
(1.11363 -0.0097967 0)
(0.815912 0.00941622 0)
(1.35473 0.0215386 0)
(0.60544 -0.0080412 0)
(1.28415 0.00183947 0)
(0.772045 -0.00736094 0)
(1.165 0.0114055 0)
(0.871635 0.00974412 0)
(1.15925 0.0198914 0)
(0.894334 0.00711075 0)
(1.12777 0.00889873 0)
(0.917091 -0.00313231 0)
(1.12836 0.00430062 0)
(0.911567 0.00905347 0)
(1.0857 0.0133411 0)
(0.927074 0.0220954 0)
(1.015 0.0184994 0)
(0.756334 -0.00597725 0)
(1.33438 0.0123095 0)
(0.80302 0.000647344 0)
(1.10451 -0.00989927 0)
(0.824503 0.00685039 0)
(1.33975 0.0240061 0)
(0.677486 -0.00786881 0)
(1.25767 0.000517368 0)
(0.832162 -0.00624781 0)
(1.14264 0.0102151 0)
(0.916966 0.00956319 0)
(1.12787 0.0197974 0)
(0.955414 0.00755066 0)
(1.0891 0.00849781 0)
(0.981053 -0.00307217 0)
(1.07957 0.00442912 0)
(0.980011 0.0102082 0)
(1.03337 0.0133615 0)
(0.980898 0.0232953 0)
(0.992093 0.0184783 0)
(0.781784 -0.00668888 0)
(1.30328 0.0122154 0)
(0.858948 0.00211046 0)
(1.08602 -0.00972279 0)
(0.842516 0.00457668 0)
(1.31224 0.0254306 0)
(0.770089 -0.00725603 0)
(1.21113 -0.000781009 0)
(0.905618 -0.00512255 0)
(1.10627 0.00926106 0)
(0.966101 0.00967033 0)
(1.09301 0.0192446 0)
(1.00589 0.00813597 0)
(1.05895 0.00803946 0)
(1.0176 -0.00273676 0)
(1.04709 0.00438571 0)
(1.01207 0.0112711 0)
(1.01628 0.0135419 0)
(0.997036 0.0240049 0)
(0.997277 0.0192724 0)
(0.815355 -0.00737308 0)
(1.25914 0.0117837 0)
(0.918429 0.00361016 0)
(1.06081 -0.00926166 0)
(0.870559 0.00227677 0)
(1.27016 0.0261181 0)
(0.864541 -0.00618204 0)
(1.15271 -0.00207991 0)
(0.968506 -0.00404142 0)
(1.06895 0.00865646 0)
(1.0001 0.00974693 0)
(1.06692 0.0185869 0)
(1.03308 0.00868877 0)
(1.04386 0.00787187 0)
(1.02792 -0.0022964 0)
(1.03006 0.00437962 0)
(1.01922 0.0119679 0)
(1.0132 0.0140025 0)
(1.00212 0.0245075 0)
(1.00158 0.019839 0)
(0.853898 -0.00795972 0)
(1.20504 0.0111146 0)
(0.97091 0.00504325 0)
(1.03499 -0.00859895 0)
(0.904139 0.000162656 0)
(1.21682 0.0261172 0)
(0.941466 -0.00483285 0)
(1.09714 -0.00308028 0)
(1.00558 -0.00315372 0)
(1.0412 0.00839698 0)
(1.01532 0.00967989 0)
(1.05117 0.0180116 0)
(1.04211 0.00911904 0)
(1.03733 0.00799633 0)
(1.02594 -0.00171561 0)
(1.01925 0.0044414 0)
(1.01587 0.0124672 0)
(1.01099 0.0145034 0)
(1.00355 0.0247457 0)
(1.00368 0.0203684 0)
(0.892642 -0.00839744 0)
(1.14745 0.010269 0)
(1.00844 0.00631066 0)
(1.01513 -0.00783261 0)
(0.935416 -0.00162116 0)
(1.16025 0.0255723 0)
(0.991836 -0.00341608 0)
(1.05535 -0.00364137 0)
(1.01707 -0.0025705 0)
(1.02374 0.00835188 0)
(1.01806 0.00949079 0)
(1.0412 0.0174782 0)
(1.04103 0.00944096 0)
(1.03266 0.0082962 0)
(1.02046 -0.000969991 0)
(1.01046 0.00455176 0)
(1.00885 0.0128044 0)
(1.00688 0.0148284 0)
(1.00259 0.0247616 0)
(1.0042 0.0208921 0)
(0.926842 -0.00866739 0)
(1.09426 0.00936996 0)
(1.0285 0.00730454 0)
(1.00488 -0.00705242 0)
(0.958128 -0.00300615 0)
(1.10903 0.0247509 0)
(1.01782 -0.0021301 0)
(1.02954 -0.00376441 0)
(1.01287 -0.00223043 0)
(1.01211 0.0083315 0)
(1.01486 0.00921881 0)
(1.03279 0.0169598 0)
(1.03494 0.00971042 0)
(1.02713 0.00864335 0)
(1.01472 -0.000113314 0)
(1.00322 0.00468798 0)
(1.00147 0.0130039 0)
(1.0017 0.0149743 0)
(1.00036 0.0245717 0)
(1.00362 0.0213172 0)
(0.953513 -0.00877893 0)
(1.05166 0.00854465 0)
(1.03384 0.0079579 0)
(1.00333 -0.00631455 0)
(0.971048 -0.00393152 0)
(1.06864 0.0238429 0)
(1.0269 -0.00109342 0)
(1.01578 -0.00356083 0)
(1.00403 -0.00200434 0)
(1.00319 0.00822369 0)
(1.00933 0.00890887 0)
(1.02413 0.0164679 0)
(1.02675 0.0099453 0)
(1.0209 0.00893412 0)
(1.00977 0.000783196 0)
(0.997871 0.00486425 0)
(0.995496 0.0131328 0)
(0.99679 0.0150129 0)
(0.997678 0.024176 0)
(1.00229 0.0216119 0)
(0.972085 -0.00876147 0)
(1.0221 0.00786439 0)
(1.03001 0.00827556 0)
(1.00649 -0.00565295 0)
(0.977176 -0.00443582 0)
(1.04043 0.0229274 0)
(1.02666 -0.000321006 0)
(1.00879 -0.00318401 0)
(0.997316 -0.00179275 0)
(0.996623 0.00804198 0)
(1.00352 0.00861326 0)
(1.01556 0.0160006 0)
(1.01857 0.0101279 0)
(1.01506 0.009126 0)
(1.00611 0.00165484 0)
(0.994515 0.00509126 0)
(0.991467 0.0132436 0)
(0.992885 0.0150197 0)
(0.994888 0.0236211 0)
(1.00034 0.0217902 0)
(0.983818 -0.00865502 0)
(1.00433 0.00734538 0)
(1.02258 0.00831821 0)
(1.01031 -0.00508894 0)
(0.980505 -0.00461689 0)
(1.0227 0.0220432 0)
(1.02266 0.000252772 0)
(1.00497 -0.00277497 0)
(0.994401 -0.00157039 0)
(0.992845 0.00785624 0)
(0.998963 0.0083744 0)
(1.00842 0.0155483 0)
(1.01193 0.0102494 0)
(1.01052 0.00920663 0)
(1.00382 0.00246562 0)
(0.99289 0.00537094 0)
(0.989166 0.0133662 0)
(0.990204 0.0150594 0)
(0.992363 0.0229798 0)
(0.998195 0.0218619 0)
(0.990705 -0.00849712 0)
(0.995115 0.00696534 0)
(1.01526 0.00818033 0)
(1.01255 -0.00463029 0)
(0.983551 -0.004578 0)
(1.01246 0.021219 0)
(1.01807 0.000701579 0)
(1.00266 -0.00241326 0)
(0.994082 -0.00134896 0)
(0.99159 0.00771032 0)
(0.996537 0.00820946 0)
(1.00382 0.0151132 0)
(1.00758 0.0103194 0)
(1.00751 0.00918866 0)
(1.00259 0.0032074 0)
(0.992488 0.00570097 0)
(0.988212 0.0135048 0)
(0.988832 0.015165 0)
(0.99076 0.0223092 0)
(0.99667 0.0218208 0)
(0.994575 -0.00831498 0)
(0.991077 0.00668779 0)
(1.00965 0.00794814 0)
(1.01283 -0.00427449 0)
(0.986922 -0.00440917 0)
(1.00688 0.0204665 0)
(1.01426 0.00108483 0)
(1.00131 -0.00212131 0)
(0.994736 -0.00114749 0)
(0.991908 0.00759739 0)
(0.996121 0.00811019 0)
(1.00185 0.0146997 0)
(1.00542 0.0103631 0)
(1.00581 0.00911158 0)
(1.00203 0.00388701 0)
(0.992803 0.00606828 0)
(0.988309 0.0136422 0)
(0.988784 0.0153243 0)
(0.990608 0.0216379 0)
(0.996442 0.0216611 0)
(0.996704 -0.00812438 0)
(0.989744 0.00647646 0)
(1.00593 0.00768552 0)
(1.01176 -0.00401013 0)
(0.990185 -0.00417405 0)
(1.00393 0.0197833 0)
(1.01156 0.00143796 0)
(1.00073 -0.00189172 0)
(0.995474 -0.000974959 0)
(0.992827 0.00749206 0)
(0.996927 0.0080508 0)
(1.00174 0.0143034 0)
(1.0048 0.0104112 0)
(1.00501 0.00902278 0)
(1.00184 0.00450972 0)
(0.99351 0.00645356 0)
(0.98922 0.0137557 0)
(0.989881 0.0154943 0)
(0.991885 0.0209738 0)
(0.997555 0.0213861 0)
(0.997835 -0.00793287 0)
(0.98967 0.0063031 0)
(1.0037 0.00743039 0)
(1.0101 -0.00381765 0)
(0.992808 -0.00391179 0)
(1.00234 0.0191535 0)
(1.00983 0.00177231 0)
(1.00075 -0.0017049 0)
(0.996091 -0.000827643 0)
(0.993742 0.00737706 0)
(0.998084 0.00800176 0)
(1.00245 0.0139225 0)
(1.00491 0.0104793 0)
(1.0047 0.008949 0)
(1.00187 0.00508348 0)
(0.994449 0.0068398 0)
(0.990694 0.0138245 0)
(0.991745 0.0156319 0)
(0.994097 0.0203188 0)
(0.999521 0.0210112 0)
(0.998371 -0.00774299 0)
(0.990113 0.00614885 0)
(1.00257 0.00719519 0)
(1.00836 -0.00367549 0)
(0.994577 -0.00364415 0)
(1.00142 0.0185541 0)
(1.00881 0.00209464 0)
(1.00122 -0.00154217 0)
(0.996653 -0.000693802 0)
(0.994402 0.00725061 0)
(0.999022 0.00794609 0)
(1.0032 0.0135531 0)
(1.00518 0.0105666 0)
(1.00459 0.0089009 0)
(1.00203 0.00561168 0)
(0.995517 0.00721308 0)
(0.992459 0.0138367 0)
(0.993941 0.0157119 0)
(0.996635 0.0196776 0)
(1.00173 0.0205622 0)
(0.998542 -0.00755407 0)
(0.990706 0.00599879 0)
(1.00219 0.00698437 0)
(1.00686 -0.0035603 0)
(0.995571 -0.00338026 0)
(1.00078 0.0179648 0)
(1.00826 0.00240092 0)
(1.00196 -0.00139051 0)
(0.99723 -0.000560208 0)
(0.99477 0.00712292 0)
(0.99952 0.00788338 0)
(1.00361 0.0131845 0)
(1.00527 0.0106649 0)
(1.00448 0.00888059 0)
(1.00223 0.00608964 0)
(0.996603 0.0075588 0)
(0.994257 0.0137931 0)
(0.996108 0.0157335 0)
(0.999041 0.0190611 0)
(1.00373 0.0200634 0)
(0.998501 -0.00736407 0)
(0.991262 0.00584152 0)
(1.00231 0.00679761 0)
(1.00571 -0.00345229 0)
(0.995995 -0.00312153 0)
(1.00027 0.0173701 0)
(1.00798 0.00268595 0)
(1.00279 -0.00124331 0)
(0.997828 -0.000416846 0)
(0.994908 0.00700659 0)
(0.9996 0.00781643 0)
(1.0036 0.0128148 0)
(1.0051 0.0107614 0)
(1.0043 0.0088768 0)
(1.0024 0.00651872 0)
(0.997608 0.00786653 0)
(0.995896 0.013698 0)
(0.998012 0.0157064 0)
(1.00106 0.0184787 0)
(1.0053 0.0195312 0)
(0.998358 -0.00717069 0)
(0.991699 0.00567038 0)
(1.00269 0.00662857 0)
(1.00493 -0.00333874 0)
(0.996063 -0.00286583 0)
(0.999844 0.0167593 0)
(1.00783 0.00294739 0)
(1.00359 -0.00109632 0)
(0.99841 -0.000259316 0)
(0.99491 0.00691215 0)
(0.999392 0.00774953 0)
(1.00328 0.0124442 0)
(1.00471 0.0108446 0)
(1.00405 0.00887581 0)
(1.00252 0.00690314 0)
(0.998473 0.00813659 0)
(0.997268 0.0135607 0)
(0.999541 0.0156391 0)
(1.00261 0.0179294 0)
(1.00641 0.0189713 0)
(0.998195 -0.00697144 0)
(0.992009 0.00548088 0)
(1.00314 0.00647076 0)
(1.00447 -0.00321018 0)
(0.995957 -0.00261033 0)
(0.999493 0.0161288 0)
(1.00771 0.00318303 0)
(1.00425 -0.000940935 0)
(0.998927 -8.91949e-05 0)
(0.994858 0.00684658 0)
(0.99904 0.00769133 0)
(1.0028 0.0120691 0)
(1.00419 0.0109075 0)
(1.00377 0.00887256 0)
(1.0026 0.00724158 0)
(0.999187 0.00837933 0)
(0.998348 0.0133915 0)
(1.00068 0.0155399 0)
(1.00367 0.0174184 0)
(1.00708 0.0183936 0)
(0.998067 -0.00676529 0)
(0.992231 0.00527307 0)
(1.00353 0.006317 0)
(1.00424 -0.00306182 0)
(0.995817 -0.00235365 0)
(0.999226 0.0154797 0)
(1.00756 0.00339503 0)
(1.00474 -0.000774451 0)
(0.999348 9.27037e-05 0)
(0.994809 0.0068107 0)
(0.998661 0.00764567 0)
(1.00232 0.0116883 0)
(1.00363 0.0109481 0)
(1.0035 0.00886409 0)
(1.00265 0.00753431 0)
(0.99977 0.00860974 0)
(0.999165 0.0131922 0)
(1.00145 0.015414 0)
(1.00432 0.0169591 0)
(1.00738 0.017816 0)
(0.998003 -0.00655247 0)
(0.992413 0.00505052 0)
(1.00378 0.00616128 0)
(1.00414 -0.00289431 0)
(0.995735 -0.00209585 0)
(0.999055 0.0148149 0)
(1.00734 0.00358671 0)
(1.00505 -0.000597135 0)
(0.999677 0.000281055 0)
(0.994802 0.00680078 0)
(0.998337 0.00761433 0)
(1.00193 0.0113013 0)
(1.00311 0.0109636 0)
(1.00325 0.00885056 0)
(1.00267 0.00778443 0)
(1.00025 0.00884102 0)
(0.99978 0.012967 0)
(1.00196 0.0152605 0)
(1.00466 0.0165562 0)
(1.00743 0.0172448 0)
(0.998002 -0.00633377 0)
(0.992601 0.00481655 0)
(1.00386 0.00600112 0)
(1.00408 -0.00270915 0)
(0.995759 -0.00184022 0)
(0.998981 0.0141418 0)
(1.00703 0.00375892 0)
(1.00521 -0.000406282 0)
(0.999936 0.00046895 0)
(0.994865 0.00680995 0)
(0.998117 0.00760091 0)
(1.00169 0.0109079 0)
(1.00268 0.010957 0)
(1.00303 0.00883447 0)
(1.00268 0.00798582 0)
(1.00065 0.00907895 0)
(1.00026 0.0127335 0)
(1.00229 0.0150737 0)
(1.00478 0.0162097 0)
(1.00733 0.016684 0)
(0.998047 -0.00611096 0)
(0.99282 0.00457654 0)
(1.0038 0.00583461 0)
(1.00403 -0.00250962 0)
(0.99589 -0.00158854 0)
(0.998992 0.0134672 0)
(1.00665 0.00391455 0)
(1.00525 -0.00020291 0)
(1.00015 0.000654727 0)
(0.995003 0.00683205 0)
(0.998016 0.00760147 0)
(1.00162 0.0105106 0)
(1.00234 0.0109349 0)
(1.00283 0.00882436 0)
(1.00268 0.00813225 0)
(1.00098 0.00932029 0)
(1.00066 0.0125133 0)
(1.00254 0.0148428 0)
(1.00481 0.0159182 0)
(1.00718 0.0161602 0)
(0.998118 -0.00588593 0)
(0.993075 0.00433543 0)
(1.00364 0.00566064 0)
(1.00397 -0.00229944 0)
(0.996108 -0.00134354 0)
(0.999065 0.0127979 0)
(1.00621 0.00405791 0)
(1.00519 1.30445e-05 0)
(1.00035 0.000832409 0)
(0.995206 0.00685725 0)
(0.998016 0.00761774 0)
(1.00169 0.0101128 0)
(1.0021 0.0108972 0)
(1.00263 0.00883209 0)
(1.00266 0.00823035 0)
(1.00126 0.00956022 0)
(1.001 0.0123264 0)
(1.00276 0.0145575 0)
(1.00481 0.0156577 0)
(1.00703 0.0157024 0)
(0.998199 -0.00566033 0)
(0.993361 0.00409601 0)
(1.00344 0.00547843 0)
(1.0039 -0.00207908 0)
(0.996388 -0.00111088 0)
(0.999171 0.0121412 0)
(1.00576 0.00418864 0)
(1.00506 0.000242107 0)
(1.00053 0.00100023 0)
(0.995454 0.00687566 0)
(0.998087 0.00765377 0)
(1.00186 0.00971865 0)
(1.00194 0.0108418 0)
(1.00244 0.00886818 0)
(1.00265 0.00828481 0)
(1.00149 0.00978281 0)
(1.00129 0.0121848 0)
(1.00298 0.0142203 0)
(1.00482 0.015393 0)
(1.00688 0.0153308 0)
(0.998283 -0.00543546 0)
(0.993667 0.00386162 0)
(1.00321 0.00528745 0)
(1.00381 -0.00185289 0)
(0.996712 -0.000888396 0)
(0.999287 0.0115013 0)
(1.0053 0.00430481 0)
(1.00489 0.000481415 0)
(1.00072 0.00115707 0)
(0.995726 0.00688608 0)
(0.998196 0.00770082 0)
(1.00208 0.00933435 0)
(1.00185 0.0107688 0)
(1.00225 0.00894043 0)
(1.00264 0.00830099 0)
(1.00171 0.00996688 0)
(1.00155 0.0120929 0)
(1.00319 0.0138493 0)
(1.00485 0.0150892 0)
(1.00674 0.0150479 0)
(0.998367 -0.00521358 0)
(0.99398 0.0036361 0)
(1.00298 0.00508531 0)
(1.0037 -0.00161898 0)
(0.997064 -0.000678731 0)
(0.999399 0.0108784 0)
(1.00486 0.00441106 0)
(1.0047 0.000728244 0)
(1.00091 0.00130364 0)
(0.996008 0.00688131 0)
(0.998318 0.00775912 0)
(1.00231 0.00896792 0)
(1.00182 0.0106704 0)
(1.00206 0.00905192 0)
(1.00266 0.00829412 0)
(1.00192 0.0101018 0)
(1.00178 0.0120503 0)
(1.0034 0.0134772 0)
(1.00491 0.0147212 0)
(1.0066 0.0148268 0)
(0.998453 -0.00499389 0)
(0.994289 0.00341836 0)
(1.00276 0.00487094 0)
(1.00357 -0.00137717 0)
(0.997433 -0.00048406 0)
(0.999505 0.0102752 0)
(1.00444 0.0045072 0)
(1.00449 0.00098009 0)
(1.00111 0.00144589 0)
(0.996294 0.00685719 0)
(0.998436 0.00783077 0)
(1.00254 0.00862024 0)
(1.00184 0.0105381 0)
(1.00188 0.00920248 0)
(1.00268 0.00827671 0)
(1.00215 0.0101757 0)
(1.00198 0.0120457 0)
(1.00359 0.0131387 0)
(1.00501 0.0142888 0)
(1.00647 0.0146138 0)
(0.998543 -0.00477872 0)
(0.994586 0.00321222 0)
(1.00257 0.00464546 0)
(1.00343 -0.00113457 0)
(0.997804 -0.000298625 0)
(0.999606 0.00969603 0)
(1.00403 0.00458688 0)
(1.00429 0.00123154 0)
(1.00131 0.00158433 0)
(0.996581 0.00681504 0)
(0.998537 0.00790813 0)
(1.00276 0.00829639 0)
(1.0019 0.0103717 0)
(1.00171 0.00938061 0)
(1.00271 0.0082615 0)
(1.0024 0.0101821 0)
(1.00217 0.0120622 0)
(1.00375 0.0128573 0)
(1.00514 0.0138086 0)
(1.00639 0.014348 0)
(0.998635 -0.00456933 0)
(0.99487 0.0030219 0)
(1.00239 0.00440406 0)
(1.00327 -0.000884288 0)
(0.998164 -0.000127428 0)
(0.999707 0.00914023 0)
(1.00365 0.00465716 0)
(1.0041 0.00147925 0)
(1.00152 0.00171806 0)
(0.99687 0.00675748 0)
(0.998615 0.00799265 0)
(1.00295 0.00800572 0)
(1.00199 0.0101719 0)
(1.00154 0.00957132 0)
(1.00273 0.00826457 0)
(1.00267 0.0101199 0)
(1.00236 0.0120778 0)
(1.00388 0.0126401 0)
(1.00528 0.0133136 0)
(1.00637 0.0139931 0)
(0.998729 -0.00436427 0)
(0.99514 0.002844 0)
(1.00222 0.00415291 0)
(1.00311 -0.000632863 0)
(0.998504 3.00491e-05 0)
(0.999813 0.00860566 0)
(1.00329 0.0047189 0)
(1.0039 0.00172354 0)
(1.00173 0.00185088 0)
(0.997163 0.00668329 0)
(0.998669 0.0080804 0)
(1.00311 0.00775125 0)
(1.00212 0.0099385 0)
(1.00139 0.00976495 0)
(1.00273 0.00829995 0)
(1.00296 0.00999099 0)
(1.00255 0.0120739 0)
(1.00396 0.0124895 0)
(1.00542 0.0128507 0)
(1.00642 0.0135432 0)
(0.998825 -0.00416678 0)
(0.995397 0.00268268 0)
(1.00207 0.00389103 0)
(1.00294 -0.000383753 0)
(0.998817 0.000181237 0)
(0.999924 0.00809035 0)
(1.00295 0.00477343 0)
(1.00372 0.00195932 0)
(1.00193 0.00197762 0)
(0.997462 0.00659202 0)
(0.998703 0.00816235 0)
(1.00323 0.00753497 0)
(1.00228 0.00967028 0)
(1.00125 0.00995336 0)
(1.0027 0.00837925 0)
(1.00327 0.00980634 0)
(1.00276 0.012028 0)
(1.004 0.012395 0)
(1.00552 0.0124563 0)
(1.00652 0.0130234 0)
(0.99892 -0.00397515 0)
(0.995644 0.00253795 0)
(1.00194 0.00361595 0)
(1.00277 -0.000136322 0)
(0.999102 0.000325492 0)
(1.00004 0.0075889 0)
(1.00263 0.00482766 0)
(1.00353 0.00218793 0)
(1.00213 0.00210226 0)
(0.99777 0.0064932 0)
(0.998721 0.00823688 0)
(1.00333 0.00736419 0)
(1.00246 0.00936663 0)
(1.00114 0.0101181 0)
(1.00265 0.00850478 0)
(1.00357 0.00958458 0)
(1.003 0.0119212 0)
(1.00401 0.0123338 0)
(1.00557 0.0121466 0)
(1.00665 0.012488 0)
(0.999014 -0.00379061 0)
(0.995881 0.0024075 0)
(1.00181 0.00333838 0)
(1.00261 9.56953e-05 0)
(0.999359 0.000466712 0)
(1.00015 0.007103 0)
(1.00234 0.00487524 0)
(1.00335 0.00241348 0)
(1.00232 0.0022274 0)
(0.998088 0.00638404 0)
(0.998729 0.00830111 0)
(1.00339 0.0072437 0)
(1.00268 0.00903467 0)
(1.00107 0.0102408 0)
(1.00257 0.0086743 0)
(1.00387 0.00934752 0)
(1.00327 0.0117515 0)
(1.004 0.0122867 0)
(1.00556 0.0119127 0)
(1.00678 0.0120004 0)
(0.999106 -0.0036135 0)
(0.996109 0.00229146 0)
(1.00169 0.00306022 0)
(1.00245 0.000318338 0)
(0.99959 0.000608675 0)
(1.00027 0.00662808 0)
(1.00206 0.00491678 0)
(1.00316 0.0026369 0)
(1.00249 0.00234413 0)
(0.998415 0.00626373 0)
(0.998734 0.00835588 0)
(1.00341 0.00717165 0)
(1.00292 0.00868489 0)
(1.00103 0.0103084 0)
(1.00245 0.00888931 0)
(1.00416 0.00911206 0)
(1.00359 0.011511 0)
(1.004 0.0122456 0)
(1.00549 0.0117283 0)
(1.00687 0.0115916 0)
(0.999195 -0.00344246 0)
(0.996327 0.00218689 0)
(1.00157 0.00278592 0)
(1.00229 0.000521908 0)
(0.999794 0.000758121 0)
(1.00038 0.00615599 0)
(1.0018 0.00494727 0)
(1.00296 0.002861 0)
(1.00266 0.00245391 0)
(0.998754 0.00613128 0)
(0.998739 0.00839464 0)
(1.00339 0.00714209 0)
(1.00319 0.00833158 0)
(1.00105 0.0103047 0)
(1.00231 0.00914774 0)
(1.0044 0.00890764 0)
(1.00395 0.0111846 0)
(1.00401 0.0122062 0)
(1.00537 0.0115913 0)
(1.00691 0.0112539 0)
(0.999282 -0.00327816 0)
(0.996535 0.00209128 0)
(1.00145 0.00252633 0)
(1.00214 0.000690457 0)
(0.999972 0.000922594 0)
(1.00049 0.00569148 0)
(1.00156 0.00496118 0)
(1.00276 0.00308899 0)
(1.00281 0.00256342 0)
(0.999105 0.00598106 0)
(0.998751 0.00840993 0)
(1.00334 0.00715581 0)
(1.00345 0.00799247 0)
(1.00113 0.0102157 0)
(1.00214 0.00942259 0)
(1.00459 0.00877106 0)
(1.00435 0.0107704 0)
(1.00406 0.0121356 0)
(1.00521 0.0115217 0)
(1.0069 0.0109678 0)
(0.999365 -0.00311948 0)
(0.996734 0.00200022 0)
(1.00134 0.00228687 0)
(1.002 0.000820875 0)
(1.00012 0.00110822 0)
(1.0006 0.00523878 0)
(1.00135 0.00495241 0)
(1.00255 0.0033293 0)
(1.00293 0.00267903 0)
(0.999468 0.0058188 0)
(0.998779 0.00839809 0)
(1.00324 0.00720852 0)
(1.00371 0.00767909 0)
(1.00128 0.0100457 0)
(1.00196 0.0096777 0)
(1.0047 0.00872305 0)
(1.00477 0.010296 0)
(1.00418 0.0119758 0)
(1.00501 0.0115263 0)
(1.00681 0.0107429 0)
(0.999445 -0.00296605 0)
(0.996921 0.00190976 0)
(1.00123 0.00207437 0)
(1.00187 0.000900503 0)
(1.00025 0.00131439 0)
(1.0007 0.00480857 0)
(1.00116 0.00491137 0)
(1.00233 0.00357651 0)
(1.00304 0.00280293 0)
(0.999839 0.00564867 0)
(0.99883 0.00835734 0)
(1.00312 0.0072914 0)
(1.00396 0.0074047 0)
(1.0015 0.00980804 0)
(1.0018 0.00988634 0)
(1.00473 0.00876217 0)
(1.00519 0.00982217 0)
(1.00437 0.0116906 0)
(1.00481 0.0115632 0)
(1.00664 0.0106132 0)
(0.999521 -0.00281597 0)
(0.997099 0.00181529 0)
(1.00112 0.00189746 0)
(1.00175 0.000920922 0)
(1.00034 0.00153412 0)
(1.00079 0.00441637 0)
(1.001 0.00483058 0)
(1.00211 0.00381856 0)
(1.00311 0.00294108 0)
(1.00021 0.00546664 0)
(0.99891 0.00828078 0)
(1.00296 0.0073973 0)
(1.00417 0.00718025 0)
(1.00177 0.00951546 0)
(1.00167 0.0100213 0)
(1.00467 0.00886648 0)
(1.00558 0.00940503 0)
(1.00466 0.0112899 0)
(1.00464 0.0115586 0)
(1.00639 0.0105878 0)
(0.999592 -0.00266846 0)
(0.997268 0.00171338 0)
(1.001 0.00175729 0)
(1.00164 0.000886294 0)
(1.00042 0.00175602 0)
(1.00086 0.00407671 0)
(1.00086 0.00470332 0)
(1.0019 0.00404507 0)
(1.00315 0.00309686 0)
(1.00058 0.00527812 0)
(0.999023 0.00815887 0)
(1.00279 0.00751572 0)
(1.00434 0.00700983 0)
(1.00208 0.00918498 0)
(1.00159 0.0100706 0)
(1.00455 0.00900953 0)
(1.0059 0.00907208 0)
(1.00503 0.0108105 0)
(1.00454 0.0114611 0)
(1.00608 0.0106261 0)
(0.999659 -0.00252293 0)
(0.997429 0.00160145 0)
(1.00087 0.00165369 0)
(1.00153 0.000819128 0)
(1.00049 0.00195237 0)
(1.00091 0.00380632 0)
(1.00076 0.00454546 0)
(1.00169 0.00424671 0)
(1.00315 0.00327065 0)
(1.00094 0.0050975 0)
(0.999171 0.00799488 0)
(1.00261 0.00763025 0)
(1.00447 0.00689731 0)
(1.00243 0.00883558 0)
(1.00158 0.0100351 0)
(1.00437 0.00916588 0)
(1.00614 0.00882941 0)
(1.00544 0.0102909 0)
(1.00454 0.0112622 0)
(1.00576 0.0106702 0)
(0.99972 -0.00237724 0)
(0.997583 0.00147672 0)
(1.00074 0.00158063 0)
(1.00144 0.000743156 0)
(1.00054 0.00210261 0)
(1.00094 0.0036101 0)
(1.00067 0.00437181 0)
(1.00149 0.00441354 0)
(1.00312 0.00346782 0)
(1.00129 0.00493895 0)
(0.999354 0.00779424 0)
(1.00243 0.00772163 0)
(1.00455 0.00683579 0)
(1.00279 0.00848498 0)
(1.00162 0.00991718 0)
(1.00416 0.00931282 0)
(1.00627 0.00867822 0)
(1.00586 0.00976251 0)
(1.00466 0.0109715 0)
(1.00547 0.0106829 0)
(0.999776 -0.00223207 0)
(0.997733 0.0013411 0)
(1.0006 0.00153558 0)
(1.00135 0.000664102 0)
(1.00058 0.00219177 0)
(1.00095 0.00347923 0)
(1.00061 0.0041961 0)
(1.00131 0.00453467 0)
(1.00306 0.0036782 0)
(1.0016 0.00480926 0)
(0.999568 0.00756748 0)
(1.00226 0.00778026 0)
(1.00458 0.00681154 0)
(1.00316 0.00814828 0)
(1.00174 0.00972682 0)
(1.00394 0.00942795 0)
(1.00628 0.00862245 0)
(1.00627 0.00926261 0)
(1.00489 0.0105886 0)
(1.00524 0.0106443 0)
(0.999827 -0.00208657 0)
(0.997878 0.00119223 0)
(1.00046 0.00151333 0)
(1.00126 0.000596164 0)
(1.00063 0.00221686 0)
(1.00095 0.0033956 0)
(1.00056 0.00403087 0)
(1.00115 0.00460132 0)
(1.00297 0.00388472 0)
(1.00188 0.00471818 0)
(0.999809 0.00733144 0)
(1.0021 0.00780218 0)
(1.00455 0.00681143 0)
(1.00351 0.00783625 0)
(1.00192 0.00948257 0)
(1.00374 0.00948396 0)
(1.00619 0.00864346 0)
(1.00661 0.00884247 0)
(1.00521 0.0101145 0)
(1.00511 0.0105351 0)
(0.999871 -0.00193882 0)
(0.998022 0.001032 0)
(1.00031 0.00150433 0)
(1.00117 0.000547519 0)
(1.00067 0.00218304 0)
(1.00093 0.00334588 0)
(1.00051 0.00389196 0)
(1.00101 0.00461275 0)
(1.00286 0.00407135 0)
(1.00213 0.0046695 0)
(1.00007 0.00709985 0)
(1.00196 0.00779349 0)
(1.00449 0.00682571 0)
(1.00384 0.00754898 0)
(1.00217 0.00920419 0)
(1.00359 0.00946931 0)
(1.00602 0.00869891 0)
(1.00685 0.00854548 0)
(1.00561 0.00958512 0)
(1.00511 0.010313 0)
(0.99991 -0.00179071 0)
(0.998165 0.000864168 0)
(1.00017 0.00150314 0)
(1.00108 0.000530232 0)
(1.00072 0.0020932 0)
(1.00091 0.00331222 0)
(1.00047 0.0037944 0)
(1.0009 0.00458798 0)
(1.00274 0.00422478 0)
(1.00234 0.00464479 0)
(1.00035 0.0068779 0)
(1.00185 0.00776278 0)
(1.00437 0.00685694 0)
(1.00413 0.00728436 0)
(1.00246 0.00889737 0)
(1.00348 0.00939116 0)
(1.0058 0.00874314 0)
(1.00697 0.00836841 0)
(1.006 0.00908067 0)
(1.00525 0.00995457 0)
(0.999942 -0.00164296 0)
(0.998308 0.000691278 0)
(1.00003 0.00149948 0)
(1.00097 0.000554624 0)
(1.00077 0.00196849 0)
(1.00089 0.00327101 0)
(1.00042 0.00374706 0)
(1.0008 0.00455303 0)
(1.00261 0.00433786 0)
(1.00252 0.00463234 0)
(1.00063 0.00666058 0)
(1.00177 0.00770312 0)
(1.00421 0.00690383 0)
(1.00438 0.00705352 0)
(1.00278 0.00855818 0)
(1.00343 0.00925925 0)
(1.00555 0.00875637 0)
(1.00697 0.00826669 0)
(1.00634 0.00867167 0)
(1.0055 0.00949711 0)
(0.999969 -0.00149472 0)
(0.998451 0.000517356 0)
(0.999905 0.00148625 0)
(1.00085 0.000612628 0)
(1.00081 0.00183196 0)
(1.00088 0.00320772 0)
(1.00038 0.00374402 0)
(1.0007 0.00451961 0)
(1.00248 0.00441152 0)
(1.00267 0.00462037 0)
(1.00092 0.00644482 0)
(1.00171 0.00761094 0)
(1.00403 0.00695744 0)
(1.00456 0.00687429 0)
(1.00314 0.00818972 0)
(1.00345 0.00906335 0)
(1.0053 0.0087329 0)
(1.00688 0.00819407 0)
(1.00659 0.00836386 0)
(1.00581 0.00902693 0)
(0.999991 -0.00134991 0)
(0.998595 0.000349709 0)
(0.999798 0.00145891 0)
(1.00073 0.000706694 0)
(1.00086 0.00169566 0)
(1.00089 0.00310603 0)
(1.00035 0.00375805 0)
(1.00062 0.00450694 0)
(1.00235 0.00446905 0)
(1.00279 0.00459956 0)
(1.00122 0.00622467 0)
(1.0017 0.00748421 0)
(1.00382 0.00700397 0)
(1.00468 0.00675206 0)
(1.00349 0.00782058 0)
(1.00353 0.00879821 0)
(1.00507 0.0086654 0)
(1.00673 0.00813423 0)
(1.00674 0.00812592 0)
(1.0061 0.00861443 0)
(1.00001 -0.00120824 0)
(0.998737 0.000196327 0)
(0.999713 0.00140824 0)
(1.0006 0.000824793 0)
(1.00089 0.0015791 0)
(1.00092 0.00296097 0)
(1.00033 0.00376362 0)
(1.00053 0.00452236 0)
(1.00222 0.00452621 0)
(1.00288 0.00458209 0)
(1.00151 0.00599933 0)
(1.00173 0.00732168 0)
(1.00361 0.00703212 0)
(1.00472 0.00667498 0)
(1.00382 0.00747938 0)
(1.00368 0.00847865 0)
(1.00489 0.00853952 0)
(1.00653 0.00807447 0)
(1.0068 0.00793097 0)
(1.00635 0.0082638 0)
(1.00002 -0.00107416 0)
(0.998876 6.28447e-05 0)
(0.999654 0.0013346 0)
(1.00047 0.000949178 0)
(1.00091 0.00149732 0)
(1.00097 0.00278306 0)
(1.00034 0.0037454 0)
(1.00046 0.00455147 0)
(1.00207 0.00458363 0)
(1.00294 0.00457512 0)
(1.0018 0.00577244 0)
(1.0018 0.00712205 0)
(1.00341 0.00703505 0)
(1.0047 0.00663337 0)
(1.0041 0.00717959 0)
(1.00387 0.00812985 0)
(1.00476 0.00835318 0)
(1.00632 0.00799168 0)
(1.00678 0.0077685 0)
(1.00653 0.00796167 0)
(1.00003 -0.00094927 0)
(0.99901 -4.76962e-05 0)
(0.999622 0.00123735 0)
(1.00034 0.00107069 0)
(1.00092 0.00145898 0)
(1.00103 0.00258915 0)
(1.00038 0.00368943 0)
(1.0004 0.00458647 0)
(1.00192 0.00465367 0)
(1.00296 0.00458167 0)
(1.00207 0.00555129 0)
(1.00193 0.00688224 0)
(1.00324 0.00699174 0)
(1.00462 0.00661279 0)
(1.00433 0.00692738 0)
(1.00409 0.00777152 0)
(1.00469 0.00812209 0)
(1.0061 0.00787627 0)
(1.0067 0.00762554 0)
(1.00664 0.00770927 0)
(1.00004 -0.000835331 0)
(0.999137 -0.000131558 0)
(0.999616 0.00111513 0)
(1.00023 0.00118278 0)
(1.0009 0.00146733 0)
(1.0011 0.00239927 0)
(1.00046 0.00357476 0)
(1.00037 0.00460632 0)
(1.00177 0.00473442 0)
(1.00294 0.00460557 0)
(1.00232 0.00535304 0)
(1.00208 0.00661913 0)
(1.00312 0.00689919 0)
(1.00451 0.0065938 0)
(1.00449 0.00672916 0)
(1.00432 0.00741696 0)
(1.00469 0.00784722 0)
(1.00591 0.00772553 0)
(1.00659 0.00747459 0)
(1.00668 0.00749364 0)
(1.00005 -0.000735777 0)
(0.999253 -0.000185474 0)
(0.999634 0.000980734 0)
(1.00013 0.00126966 0)
(1.00086 0.00151865 0)
(1.00117 0.00223895 0)
(1.00057 0.00340616 0)
(1.00037 0.00458908 0)
(1.00162 0.00480945 0)
(1.00289 0.00464582 0)
(1.00253 0.00518037 0)
(1.00227 0.00633544 0)
(1.00304 0.00675849 0)
(1.00438 0.00655099 0)
(1.00458 0.00657855 0)
(1.00452 0.00709706 0)
(1.00473 0.00753726 0)
(1.00576 0.00754332 0)
(1.00645 0.00731152 0)
(1.00667 0.0072913 0)
(1.00006 -0.000648481 0)
(0.999356 -0.00021305 0)
(0.999673 0.000855798 0)
(1.00006 0.00131952 0)
(1.0008 0.00159193 0)
(1.00121 0.00213459 0)
(1.00072 0.00320319 0)
(1.00042 0.00451004 0)
(1.00149 0.00486313 0)
(1.00281 0.00470196 0)
(1.0027 0.00504487 0)
(1.00247 0.00604582 0)
(1.00302 0.006571 0)
(1.00426 0.00647234 0)
(1.00462 0.00644132 0)
(1.00469 0.00682365 0)
(1.00481 0.00721758 0)
(1.00564 0.00732272 0)
(1.00631 0.00714188 0)
(1.00662 0.00708031 0)
(1.00006 -0.000573131 0)
(0.999447 -0.000214764 0)
(0.999726 0.000741918 0)
(1.00001 0.00134076 0)
(1.00074 0.00165593 0)
(1.00123 0.00210467 0)
(1.00087 0.00299981 0)
(1.00052 0.00435076 0)
(1.00139 0.00487054 0)
(1.0027 0.00475352 0)
(1.00281 0.0049477 0)
(1.00267 0.00577523 0)
(1.00304 0.00634295 0)
(1.00415 0.00636248 0)
(1.00462 0.00629994 0)
(1.00482 0.00657772 0)
(1.0049 0.00691787 0)
(1.00557 0.00706894 0)
(1.00616 0.0069626 0)
(1.00656 0.0068691 0)
(1.00007 -0.000509725 0)
(0.999524 -0.000192459 0)
(0.999788 0.000640538 0)
(0.999992 0.00133606 0)
(1.00068 0.00170309 0)
(1.00123 0.00211921 0)
(1.00102 0.00283934 0)
(1.00066 0.00413701 0)
(1.00132 0.00481778 0)
(1.00258 0.00478199 0)
(1.00288 0.00487669 0)
(1.00285 0.00553459 0)
(1.0031 0.0060867 0)
(1.00406 0.00621344 0)
(1.00459 0.00615919 0)
(1.00492 0.00633878 0)
(1.00499 0.00663312 0)
(1.00554 0.0068023 0)
(1.00604 0.0067564 0)
(1.00647 0.00666987 0)
(1.00007 -0.000456546 0)
(0.999588 -0.000154442 0)
(0.999852 0.000560282 0)
(0.99999 0.00130438 0)
(1.00063 0.00173483 0)
(1.00121 0.00213895 0)
(1.00113 0.00273197 0)
(1.00082 0.00390967 0)
(1.00131 0.00469852 0)
(1.00246 0.00478073 0)
(1.0029 0.00481837 0)
(1.003 0.00532698 0)
(1.00317 0.00583192 0)
(1.00401 0.00602245 0)
(1.00454 0.00601343 0)
(1.00497 0.00611856 0)
(1.00508 0.00634494 0)
(1.00552 0.00653558 0)
(1.00593 0.00652258 0)
(1.00637 0.0064628 0)
(1.00008 -0.000411182 0)
(0.99964 -0.000110262 0)
(0.999914 0.000501346 0)
(1 0.00125646 0)
(1.0006 0.00174413 0)
(1.00117 0.00215692 0)
(1.00123 0.00266422 0)
(1.00099 0.0036977 0)
(1.00134 0.00452187 0)
(1.00236 0.00473638 0)
(1.00289 0.00475951 0)
(1.00312 0.00514272 0)
(1.00326 0.00558936 0)
(1.00398 0.00580643 0)
(1.00449 0.00583605 0)
(1.00498 0.00592223 0)
(1.00514 0.00606471 0)
(1.00553 0.00626059 0)
(1.00584 0.00628812 0)
(1.00628 0.00623071 0)
(1.00009 -0.000371723 0)
(0.999682 -6.52177e-05 0)
(0.999971 0.000462056 0)
(1.00003 0.00120055 0)
(1.00057 0.00173337 0)
(1.00114 0.00216522 0)
(1.00129 0.00261926 0)
(1.00114 0.00351636 0)
(1.0014 0.00432188 0)
(1.00229 0.00463895 0)
(1.00286 0.00468919 0)
(1.0032 0.00497755 0)
(1.00333 0.00535357 0)
(1.00397 0.00558824 0)
(1.00445 0.00562961 0)
(1.00496 0.00572111 0)
(1.00518 0.00581457 0)
(1.00555 0.00596801 0)
(1.00576 0.00605761 0)
(1.00619 0.00598578 0)
(1.00009 -0.000336644 0)
(0.999715 -2.29876e-05 0)
(1.00002 0.000440208 0)
(1.00007 0.00114137 0)
(1.00056 0.00170511 0)
(1.0011 0.00215971 0)
(1.00133 0.00258321 0)
(1.00128 0.00336054 0)
(1.00147 0.00412151 0)
(1.00224 0.00450087 0)
(1.00282 0.00458981 0)
(1.00324 0.00482243 0)
(1.0034 0.0051259 0)
(1.00396 0.00536772 0)
(1.00441 0.00542331 0)
(1.00494 0.00549791 0)
(1.00518 0.00558581 0)
(1.00558 0.00567432 0)
(1.0057 0.00580754 0)
(1.00609 0.00575572 0)
(1.0001 -0.000304912 0)
(0.999742 1.35991e-05 0)