/*--------------------------------*- C++ -*----------------------------------*\
| =========                 |                                                 |
| \\      /  F ield         | OpenFOAM: The Open Source CFD Toolbox           |
|  \\    /   O peration     | Version:  v1912                                 |
|   \\  /    A nd           | Website:  www.openfoam.com                      |
|    \\/     M anipulation  |                                                 |
\*---------------------------------------------------------------------------*/
FoamFile
{
    version     2.0;
    format      ascii;
    class       volVectorField;
    location    "5.9";
    object      U;
}
// * * * * * * * * * * * * * * * * * * * * * * * * * * * * * * * * * * * * * //

dimensions      [0 1 -1 0 0 0 0];


internalField   nonuniform List<vector> 
9600
(
(0.968456 -0.00480475 0)
(1.02287 0.00509881 0)
(0.976836 0.00595908 0)
(1.00031 -0.00532651 0)
(0.970783 -0.0114153 0)
(1.025 -0.0141672 0)
(1.01544 0.00627165 0)
(1.05267 -0.00937809 0)
(0.941846 0.0421743 0)
(1.08925 0.0150556 0)
(0.902364 0.0135472 0)
(1.07674 0.00321475 0)
(0.896779 -0.018474 0)
(1.06164 -0.0131678 0)
(0.917515 -0.0355297 0)
(1.04123 -0.0255507 0)
(0.920271 -0.0363534 0)
(1.05622 -0.0320673 0)
(0.894925 -0.0228626 0)
(1.08854 -0.0330955 0)
(0.972694 -0.0047629 0)
(1.02054 0.00505878 0)
(0.981057 0.006111 0)
(0.996351 -0.005218 0)
(0.974799 -0.0117202 0)
(1.02175 -0.0145796 0)
(1.01753 0.00574636 0)
(1.04793 -0.00819363 0)
(0.947996 0.0416771 0)
(1.06788 0.0159894 0)
(0.935102 0.0134683 0)
(1.03102 0.00345989 0)
(0.967572 -0.0181719 0)
(1.00779 -0.0135918 0)
(0.99197 -0.0345831 0)
(0.988546 -0.0260062 0)
(0.990824 -0.036131 0)
(0.981672 -0.0322304 0)
(0.988399 -0.0228002 0)
(0.980857 -0.0338305 0)
(0.979653 -0.00472852 0)
(1.01576 0.00501763 0)
(0.98756 0.00629347 0)
(0.991418 -0.00514877 0)
(0.980011 -0.0120082 0)
(1.0161 -0.0149665 0)
(1.02101 0.00543797 0)
(1.04036 -0.00737747 0)
(0.95912 0.0411862 0)
(1.04397 0.0161802 0)
(0.966953 0.0138695 0)
(1.01234 0.0027942 0)
(0.994489 -0.017697 0)
(0.998103 -0.014116 0)
(0.993529 -0.0341001 0)
(0.982009 -0.0261958 0)
(0.978794 -0.0356849 0)
(0.975956 -0.0322616 0)
(0.97732 -0.0236114 0)
(0.979324 -0.0297071 0)
(0.987465 -0.00470579 0)
(1.00974 0.00497366 0)
(0.993754 0.00646255 0)
(0.987673 -0.00507301 0)
(0.984801 -0.0122627 0)
(1.00959 -0.0153293 0)
(1.02334 0.00518761 0)
(1.03226 -0.00661343 0)
(0.970906 0.0410135 0)
(1.02818 0.0161716 0)
(0.989682 0.0141134 0)
(1.01039 0.00250956 0)
(1.00722 -0.01733 0)
(0.999421 -0.0142408 0)
(0.996498 -0.0334675 0)
(0.984482 -0.026017 0)
(0.979437 -0.0352585 0)
(0.975831 -0.0325965 0)
(0.975305 -0.0231778 0)
(0.976635 -0.0291298 0)
(0.994299 -0.0046889 0)
(1.00405 0.00493127 0)
(0.998241 0.00661975 0)
(0.986511 -0.00498038 0)
(0.988568 -0.012485 0)
(1.00361 -0.0156748 0)
(1.02254 0.00492365 0)
(1.02475 -0.00596096 0)
(0.980213 0.0409889 0)
(1.02196 0.0160594 0)
(1.00384 0.014147 0)
(1.01481 0.00229275 0)
(1.01381 -0.0169645 0)
(1.00403 -0.014246 0)
(0.998558 -0.0327922 0)
(0.986683 -0.0259935 0)
(0.982637 -0.0346688 0)
(0.974879 -0.0326073 0)
(0.975884 -0.0230958 0)
(0.974698 -0.0284001 0)
(0.999037 -0.00467392 0)
(0.999715 0.0048998 0)
(1.00104 0.00674868 0)
(0.987937 -0.00488086 0)
(0.991662 -0.0126564 0)
(0.998589 -0.0159746 0)
(1.01849 0.00464398 0)
(1.01747 -0.00540907 0)
(0.98667 0.0408746 0)
(1.02159 0.0158812 0)
(1.01275 0.0140425 0)
(1.01967 0.00218804 0)
(1.01843 -0.0165639 0)
(1.00792 -0.0141622 0)
(1.00082 -0.0320062 0)
(0.988287 -0.0259296 0)
(0.984422 -0.0339628 0)
(0.975165 -0.0325644 0)
(0.97528 -0.0230897 0)
(0.974154 -0.0275864 0)
(1.00155 -0.00465604 0)
(0.996894 0.00487564 0)
(1.00285 0.00683457 0)
(0.990975 -0.00478268 0)
(0.994551 -0.0127558 0)
(0.994406 -0.0161927 0)
(1.01234 0.00438575 0)
(1.00965 -0.00497354 0)
(0.991079 0.0405941 0)
(1.02339 0.0156578 0)
(1.01843 0.0138735 0)
(1.0235 0.00214115 0)
(1.02195 -0.0161237 0)
(1.01114 -0.0140423 0)
(1.00319 -0.0311551 0)
(0.990109 -0.0258149 0)
(0.985328 -0.0332471 0)
(0.975829 -0.0324622 0)
(0.974584 -0.0230731 0)
(0.973969 -0.0266611 0)
(1.00239 -0.00463025 0)
(0.995239 0.00484719 0)
(1.0042 0.00687325 0)
(0.994488 -0.0046919 0)
(0.997296 -0.0127738 0)
(0.990966 -0.0162995 0)
(1.00539 0.00417591 0)
(1.00089 -0.00466449 0)
(0.994012 0.0401313 0)
(1.02496 0.0154189 0)
(1.02184 0.013665 0)
(1.02616 0.00212625 0)
(1.02445 -0.0156647 0)
(1.01373 -0.0139057 0)
(1.00545 -0.030232 0)
(0.991959 -0.0256245 0)
(0.986099 -0.0325081 0)
(0.976232 -0.032253 0)
(0.974 -0.0230214 0)
(0.973769 -0.0257404 0)
(1.00229 -0.00459325 0)
(0.994343 0.00480453 0)
(1.00526 0.00686631 0)
(0.997683 -0.00461218 0)
(0.999636 -0.0127139 0)
(0.988318 -0.0162872 0)
(0.998689 0.0040359 0)
(0.99149 -0.00447863 0)
(0.995539 0.0394726 0)
(1.02522 0.0151746 0)
(1.02358 0.0134167 0)
(1.02768 0.0021317 0)
(1.02604 -0.0152043 0)
(1.01569 -0.0137485 0)
(1.00749 -0.0292796 0)
(0.993924 -0.0253715 0)
(0.987178 -0.0317262 0)
(0.976634 -0.0319137 0)
(0.973353 -0.0229761 0)
(0.973353 -0.0249168 0)
(1.00176 -0.00454444 0)
(0.993944 0.00474378 0)
(1.00602 0.00681979 0)
(1.00023 -0.00454391 0)
(1.00131 -0.0125875 0)
(0.986507 -0.0161642 0)
(0.993112 0.00398815 0)
(0.982518 -0.00439792 0)
(0.995821 0.0386252 0)
(1.02414 0.0149185 0)
(1.02419 0.013113 0)
(1.02826 0.00214515 0)
(1.02673 -0.0147504 0)
(1.01693 -0.0135802 0)
(1.00901 -0.0283361 0)
(0.995903 -0.0250384 0)
(0.988638 -0.0308863 0)
(0.977315 -0.0314566 0)
(0.97272 -0.0229294 0)
(0.972596 -0.0241672 0)
(1.00112 -0.0044849 0)
(0.993883 0.00466395 0)
(1.00652 0.00674672 0)
(1.00215 -0.00448208 0)
(1.00224 -0.0124096 0)
(0.985433 -0.0159521 0)
(0.989322 0.00403618 0)
(0.975495 -0.00438977 0)
(0.995544 0.0376095 0)
(1.02249 0.0146534 0)
(1.0242 0.0127443 0)
(1.02813 0.0021671 0)
(1.02658 -0.0143122 0)
(1.01745 -0.0134096 0)
(1.00985 -0.0274116 0)
(0.997687 -0.0246436 0)
(0.990398 -0.0300194 0)
(0.978409 -0.0308698 0)
(0.97237 -0.0228173 0)
(0.971644 -0.023439 0)
(1.00054 -0.0044163 0)
(0.994018 0.00456639 0)
(1.00679 0.0066559 0)
(1.00361 -0.00442046 0)
(1.00257 -0.012193 0)
(0.984889 -0.0156859 0)
(0.987586 0.00415564 0)
(0.971622 -0.00442547 0)
(0.995603 0.0364553 0)
(1.02112 0.014389 0)
(1.02389 0.0123186 0)
(1.02748 0.00221633 0)
(1.02575 -0.0138915 0)
(1.01727 -0.0132284 0)
(1.00996 -0.0265235 0)
(0.999004 -0.0242298 0)
(0.992191 -0.0291375 0)
(0.97984 -0.0301457 0)
(0.972502 -0.0225683 0)
(0.970847 -0.0227242 0)
(1.00013 -0.00434039 0)
(0.994211 0.00445479 0)
(1.00679 0.00654851 0)
(1.00479 -0.00435638 0)
(1.00259 -0.0119445 0)
(0.984687 -0.0153993 0)
(0.987547 0.00430248 0)
(0.971101 -0.0044805 0)
(0.996314 0.0352091 0)
(1.02042 0.0141451 0)
(1.02326 0.0118581 0)
(1.02638 0.00230292 0)
(1.02449 -0.0134852 0)
(1.01652 -0.0130256 0)
(1.00954 -0.0256865 0)
(0.999698 -0.0238233 0)
(0.993697 -0.0282428 0)
(0.981394 -0.0293157 0)
(0.973121 -0.0221786 0)
(0.97055 -0.0219918 0)
(0.999937 -0.0042586 0)
(0.994369 0.00433323 0)
(1.0065 0.00642739 0)
(1.00571 -0.00429046 0)
(1.00254 -0.0116659 0)
(0.984763 -0.0151103 0)
(0.988361 0.00443345 0)
(0.973056 -0.00453478 0)
(0.997116 0.0339233 0)
(1.02008 0.0139418 0)
(1.02219 0.011387 0)
(1.02484 0.00242694 0)
(1.0231 -0.0130975 0)
(1.01537 -0.0128001 0)
(1.00884 -0.0248923 0)
(0.999813 -0.0234302 0)
(0.99468 -0.0273647 0)
(0.982821 -0.0284281 0)
(0.974059 -0.0216752 0)
(0.970886 -0.0211848 0)
(0.999919 -0.00417207 0)
(0.994469 0.00420717 0)
(1.00595 0.00629411 0)
(1.00638 -0.00422787 0)
(1.00258 -0.0113609 0)
(0.985123 -0.0148187 0)
(0.989162 0.00451954 0)
(0.976101 -0.00456418 0)
(0.997163 0.0326368 0)
(1.01951 0.0137829 0)
(1.02067 0.0109194 0)
(1.02294 0.00257174 0)
(1.02183 -0.0127267 0)
(1.01407 -0.0125567 0)
(1.0081 -0.0241307 0)
(0.999573 -0.0230482 0)
(0.995095 -0.0265105 0)
(0.983974 -0.0275551 0)
(0.975097 -0.0210646 0)
(0.971724 -0.020309 0)
(0.999985 -0.00408153 0)
(0.99454 0.00408072 0)
(1.00526 0.0061507 0)
(1.00678 -0.00417412 0)
(1.00274 -0.0110369 0)
(0.985745 -0.014517 0)
(0.989495 0.00455266 0)
(0.979051 -0.00454787 0)
(0.996131 0.0313695 0)
(1.01841 0.0136559 0)
(1.01895 0.0104531 0)
(1.02089 0.00271326 0)
(1.02076 -0.012374 0)
(1.01283 -0.0122937 0)
(1.00743 -0.0233996 0)
(0.999236 -0.0226765 0)
(0.995067 -0.0256545 0)
(0.984835 -0.0267283 0)
(0.976082 -0.0203949 0)
(0.972785 -0.0194081 0)
(1.00005 -0.0039873 0)
(0.994625 0.00395587 0)
(1.00452 0.00600043 0)
(1.00695 -0.00413364 0)
(1.00296 -0.0107026 0)
(0.986543 -0.0141962 0)
(0.989365 0.00454369 0)
(0.981305 -0.00447954 0)
(0.994392 0.0301244 0)
(1.01687 0.0135404 0)
(1.01733 0.00997525 0)
(1.01894 0.00284113 0)
(1.01988 -0.0120431 0)
(1.0118 -0.0120155 0)
(1.00684 -0.0226843 0)
(0.998965 -0.0223059 0)
(0.994797 -0.0247844 0)
(0.985473 -0.0259369 0)
(0.976973 -0.019728 0)
(0.97383 -0.0185062 0)
(1.00007 -0.00388917 0)
(0.994755 0.00383225 0)
(1.00384 0.005847 0)
(1.00692 -0.00410951 0)
(1.00317 -0.0103642 0)
(0.987399 -0.0138478 0)
(0.989011 0.00450501 0)
(0.982797 -0.00435713 0)
(0.992588 0.0288933 0)
(1.01522 0.0134191 0)
(1.016 0.00947316 0)
(1.01727 0.00295073 0)
(1.01912 -0.0117345 0)
(1.01102 -0.0117297 0)
(1.00632 -0.0219624 0)
(0.998796 -0.0219372 0)
(0.994451 -0.0238834 0)
(0.98598 -0.0251772 0)
(0.977799 -0.0190969 0)
(0.974754 -0.0175993 0)
(1.00002 -0.0037869 0)
(0.994938 0.00370832 0)
(1.00323 0.00569377 0)
(1.00675 -0.00410235 0)
(1.00335 -0.0100254 0)
(0.988224 -0.0134686 0)
(0.988661 0.00444828 0)
(0.98374 -0.00418485 0)
(0.991178 0.0276589 0)
(1.01374 0.013289 0)
(1.01503 0.00894042 0)
(1.01596 0.0030499 0)
(1.01843 -0.0114436 0)
(1.01047 -0.0114375 0)
(1.00586 -0.0212212 0)
(0.998701 -0.021579 0)
(0.994117 -0.0229389 0)
(0.986423 -0.0244283 0)
(0.978603 -0.0185155 0)
(0.975564 -0.0166869 0)
(0.999929 -0.00368055 0)
(0.995161 0.00358282 0)
(1.0027 0.00554418 0)
(1.00648 -0.00411109 0)
(1.00346 -0.00968846 0)
(0.988974 -0.0130611 0)
(0.988444 0.00438254 0)
(0.984394 -0.00396862 0)
(0.990305 0.0264066 0)
(1.01253 0.0131478 0)
(1.01434 0.00838201 0)
(1.01495 0.00314716 0)
(1.01776 -0.0111579 0)
(1.01007 -0.0111554 0)
(1.00547 -0.0204323 0)
(0.998653 -0.0212407 0)
(0.993824 -0.0219606 0)
(0.986837 -0.023665 0)
(0.979413 -0.0180061 0)
(0.976304 -0.0157677 0)
(0.99981 -0.0035698 0)
(0.995402 0.00345422 0)
(1.00223 0.00540064 0)
(1.00614 -0.00413298 0)
(1.00349 -0.00935701 0)
(0.989636 -0.0126267 0)
(0.988408 0.00430777 0)
(0.984958 -0.00371563 0)
(0.989902 0.0251313 0)
(1.01157 0.0129983 0)
(1.01384 0.00779838 0)
(1.01414 0.00323231 0)
(1.01709 -0.0108635 0)
(1.00976 -0.010894 0)
(1.00513 -0.0195867 0)
(0.998648 -0.0209134 0)
(0.993588 -0.0209819 0)
(0.98723 -0.0228552 0)
(0.980235 -0.0175849 0)
(0.977008 -0.014855 0)
(0.999695 -0.00345434 0)
(0.995639 0.00332145 0)
(1.00184 0.00526392 0)
(1.00573 -0.00416581 0)
(1.00344 -0.00903067 0)
(0.990205 -0.0121714 0)
(0.988561 0.00422414 0)
(0.985547 -0.00343468 0)
(0.98983 0.0238308 0)
(1.01079 0.0128439 0)
(1.01343 0.0071958 0)
(1.01343 0.00330449 0)
(1.0164 -0.0105442 0)
(1.00948 -0.0106665 0)
(1.00485 -0.018683 0)
(0.998692 -0.020584 0)
(0.993423 -0.0200319 0)
(0.987605 -0.0219678 0)
(0.981068 -0.0172416 0)
(0.977694 -0.013997 0)
(0.999608 -0.00333443 0)
(0.995855 0.003184 0)
(1.00151 0.00513612 0)
(1.00528 -0.00420849 0)
(1.00328 -0.00870936 0)
(0.990679 -0.0116986 0)
(0.988888 0.00412736 0)
(0.986213 -0.00312356 0)
(0.989956 0.022504 0)
(1.01009 0.0126805 0)
(1.01304 0.00659234 0)
(1.01272 0.00336861 0)
(1.01567 -0.0101907 0)
(1.00919 -0.0104808 0)
(1.00457 -0.0177286 0)
(0.998783 -0.0202271 0)
(0.993354 -0.0191318 0)
(0.987964 -0.0209978 0)
(0.981909 -0.0169499 0)
(0.978382 -0.0132172 0)
(0.999559 -0.00321014 0)
(0.996046 0.00304128 0)
(1.00127 0.00501833 0)
(1.00481 -0.00425675 0)
(1.003 -0.00839593 0)
(0.991052 -0.0112128 0)
(0.989359 0.00400842 0)
(0.986962 -0.0027832 0)
(0.990186 0.0211664 0)
(1.0094 0.0125141 0)
(1.01262 0.0059844 0)
(1.01198 0.00341088 0)
(1.01493 -0.00979707 0)
(1.00889 -0.0103358 0)
(1.00429 -0.0167468 0)
(0.998907 -0.0198089 0)
(0.993396 -0.0183049 0)
(0.988312 -0.0199451 0)
(0.982757 -0.016671 0)
(0.979098 -0.0125458 0)
(0.999544 -0.00308158 0)
(0.996216 0.00289252 0)
(1.00113 0.00491091 0)
(1.00435 -0.00430483 0)
(1.00261 -0.00809086 0)
(0.99132 -0.0107212 0)
(0.989928 0.00386052 0)
(0.987775 -0.00241376 0)
(0.99048 0.0198257 0)
(1.0087 0.0123446 0)
(1.01217 0.00538858 0)
(1.01118 0.00341143 0)
(1.01416 -0.00935528 0)
(1.00858 -0.0102416 0)
(1.00399 -0.0157485 0)
(0.999039 -0.0193163 0)
(0.993554 -0.0175669 0)
(0.988655 -0.018835 0)
(0.983606 -0.0163525 0)
(0.979868 -0.0120083 0)
(0.999545 -0.00294929 0)
(0.996374 0.00273668 0)
(1.00107 0.00481182 0)
(1.00395 -0.00434367 0)
(1.00213 -0.00779407 0)
(0.991489 -0.0102258 0)
(0.99054 0.00368243 0)
(0.98861 -0.00202166 0)
(0.990835 0.0184903 0)
(1.00799 0.0121579 0)
(1.01171 0.00482465 0)
(1.01037 0.00336813 0)
(1.01339 -0.00886284 0)
(1.00825 -0.0101844 0)
(1.00366 -0.0147655 0)
(0.999155 -0.0187383 0)
(0.993816 -0.0169219 0)
(0.989003 -0.0177107 0)
(0.984444 -0.0159424 0)
(0.980706 -0.0115981 0)
(0.999542 -0.00281315 0)
(0.996528 0.00257272 0)
(1.00111 0.00471832 0)
(1.00364 -0.00436724 0)
(1.00159 -0.00750117 0)
(0.991582 -0.00973422 0)
(0.991135 0.00347014 0)
(0.989419 -0.00160821 0)
(0.991263 0.0171778 0)
(1.00729 0.0119574 0)
(1.01127 0.00429079 0)
(1.00956 0.00327398 0)
(1.01264 -0.00833153 0)
(1.00794 -0.0101407 0)
(1.00333 -0.0138242 0)
(0.99924 -0.0180623 0)
(0.994158 -0.0163694 0)
(0.989363 -0.0166003 0)
(0.985253 -0.0154229 0)
(0.981609 -0.0113077 0)
(0.999521 -0.00267329 0)
(0.996678 0.0023984 0)
(1.00121 0.00462993 0)
(1.00343 -0.00437091 0)
(1.00105 -0.00721424 0)
(0.991632 -0.00924487 0)
(0.991666 0.00321997 0)
(0.990158 -0.00118021 0)
(0.991763 0.0158954 0)
(1.00663 0.0117331 0)
(1.01085 0.00380565 0)
(1.00881 0.00312409 0)
(1.01191 -0.00776029 0)
(1.00764 -0.0101049 0)
(1.00301 -0.0129373 0)
(0.999283 -0.0172883 0)
(0.994552 -0.0158928 0)
(0.989741 -0.0155444 0)
(0.98601 -0.0147846 0)
(0.982557 -0.0110817 0)
(0.999477 -0.00252937 0)
(0.996819 0.00221245 0)
(1.00134 0.00454123 0)
(1.00332 -0.00434721 0)
(1.00055 -0.00693168 0)
(0.991681 -0.00875208 0)
(0.992102 0.00293855 0)
(0.990796 -0.000755786 0)
(0.992312 0.0146527 0)
(1.00601 0.0114675 0)
(1.01047 0.0033787 0)
(1.00812 0.00292271 0)
(1.01119 -0.00715966 0)
(1.00738 -0.0100533 0)
(1.0027 -0.0121164 0)
(0.999283 -0.0164299 0)
(0.994967 -0.0154537 0)
(0.990141 -0.0145717 0)
(0.986704 -0.0140375 0)
(0.983516 -0.0108768 0)
(0.999419 -0.00238104 0)
(0.996948 0.00201617 0)
(1.00147 0.00444656 0)
(1.00329 -0.0042926 0)
(1.00014 -0.00665317 0)
(0.991763 -0.00825007 0)
(0.992442 0.00263107 0)
(0.991326 -0.000343319 0)
(0.992875 0.0134538 0)
(1.00542 0.0111634 0)
(1.0101 0.00300666 0)
(1.0075 0.00266461 0)
(1.01048 -0.00655183 0)
(1.00713 -0.00996346 0)
(1.00242 -0.0113776 0)
(0.999237 -0.0154917 0)
(0.99538 -0.0150146 0)
(0.990565 -0.0137108 0)
(0.987323 -0.0132103 0)
(0.984448 -0.0106507 0)
(0.999358 -0.00222803 0)
(0.997065 0.00180842 0)
(1.00155 0.00434266 0)
(1.0033 -0.00420871 0)
(0.999843 -0.00637897 0)
(0.991904 -0.0077435 0)
(0.992706 0.00230736 0)
(0.991762 4.47589e-05 0)
(0.993416 0.0123104 0)
(1.00485 0.0108091 0)
(1.00972 0.00269667 0)
(1.00693 0.00237462 0)
(1.00978 -0.00594612 0)
(1.0069 -0.00983026 0)
(1.00217 -0.0107265 0)
(0.999147 -0.0144989 0)
(0.995765 -0.0145435 0)
(0.991013 -0.0129697 0)
(0.987876 -0.0123442 0)
(0.985318 -0.0103434 0)
(0.999307 -0.00207054 0)
(0.997177 0.00159186 0)
(1.00158 0.00422315 0)
(1.00329 -0.00409639 0)
(0.999648 -0.00610889 0)
(0.99211 -0.00723603 0)
(0.992929 0.00198438 0)
(0.992135 0.000391125 0)
(0.993915 0.0112272 0)
(1.0043 0.0104019 0)
(1.00931 0.00243889 0)
(1.00641 0.00205858 0)
(1.00906 -0.0053525 0)
(1.00665 -0.00963219 0)
(1.00195 -0.0101585 0)
(0.999015 -0.0134886 0)
(0.996107 -0.0140117 0)
(0.991485 -0.0123434 0)
(0.988379 -0.0114933 0)
(0.986104 -0.00993638 0)
(0.999272 -0.00190914 0)
(0.997294 0.00136987 0)
(1.00155 0.00408788 0)
(1.00323 -0.00395391 0)
(0.999539 -0.00584627 0)
(0.992376 -0.00672114 0)
(0.993146 0.00166954 0)
(0.992481 0.000686384 0)
(0.994373 0.0102021 0)
(1.00377 0.00994928 0)
(1.00886 0.00223342 0)
(1.00591 0.00172597 0)
(1.00833 -0.0047876 0)
(1.00639 -0.00936423 0)
(1.00177 -0.0096686 0)
(0.998848 -0.0124723 0)
(0.996393 -0.0134015 0)
(0.991974 -0.0118102 0)
(0.988859 -0.0106992 0)
(0.986801 -0.00943251 0)
(0.999254 -0.00174534 0)
(0.997424 0.00114666 0)
(1.00146 0.00393594 0)
(1.00312 -0.00378412 0)
(0.999488 -0.00559104 0)
(0.992686 -0.00620335 0)
(0.993385 0.0013765 0)
(0.992828 0.000931599 0)
(0.9948 0.00924708 0)
(1.00327 0.00944751 0)
(1.00838 0.00207721 0)
(1.00544 0.00139345 0)
(1.00758 -0.00426262 0)
(1.00608 -0.00903342 0)
(1.00161 -0.00925135 0)
(0.998659 -0.0114841 0)
(0.996614 -0.0127144 0)
(0.992472 -0.0113163 0)
(0.989342 -0.0099842 0)
(0.987416 -0.00885143 0)
(0.999251 -0.00158143 0)
(0.997572 0.000928753 0)
(1.00135 0.00376106 0)
(1.00294 -0.00358541 0)
(0.999473 -0.00534519 0)
(0.993026 -0.00569481 0)
(0.993659 0.00111134 0)
(0.993193 0.00112531 0)
(0.995208 0.00836662 0)
(1.0028 0.00890701 0)
(1.00786 0.00194389 0)
(1.005 0.00106824 0)
(1.00684 -0.00377005 0)
(1.00573 -0.00862279 0)
(1.00149 -0.00887792 0)
(0.998465 -0.0105568 0)
(0.996773 -0.0119666 0)
(0.992966 -0.0108418 0)
(0.989846 -0.00936638 0)
(0.987974 -0.00824195 0)
(0.999258 -0.0014188 0)
(0.997739 0.000717723 0)
(1.00121 0.0035688 0)
(1.00271 -0.00336496 0)
(0.999473 -0.00510957 0)
(0.993379 -0.00519575 0)
(0.993969 0.000884268 0)
(0.993581 0.00125904 0)
(0.995607 0.00754971 0)
(1.00238 0.00834856 0)
(1.00734 0.00183861 0)
(1.00458 0.00075002 0)
(1.00611 -0.00333535 0)
(1.00535 -0.0081441 0)
(1.0014 -0.00852518 0)
(0.998281 -0.00969347 0)
(0.996874 -0.011161 0)
(0.993442 -0.0103492 0)
(0.990379 -0.00884362 0)
(0.988506 -0.00767922 0)
(0.999272 -0.00125773 0)
(0.99792 0.000513513 0)
(1.00108 0.00335991 0)
(1.00245 -0.00312292 0)
(0.999479 -0.00487987 0)
(0.993738 -0.00472697 0)
(0.994306 0.000703326 0)
(0.993985 0.00135414 0)
(0.996002 0.0067905 0)
(1.00201 0.00775705 0)
(1.00681 0.00176233 0)
(1.00419 0.000472996 0)
(1.00541 -0.00295325 0)
(1.00493 -0.0076247 0)
(1.00134 -0.00819197 0)
(0.998126 -0.00892262 0)
(0.996929 -0.0103338 0)
(0.993883 -0.00980074 0)
(0.990929 -0.00835579 0)
(0.989036 -0.00718528 0)
(0.999289 -0.0011041 0)
(0.99811 0.00032908 0)
(1.00095 0.00313083 0)
(1.00217 -0.0028754 0)
(0.999485 -0.00464371 0)
(0.994095 -0.0042831 0)
(0.994661 0.000537302 0)
(0.994395 0.0014047 0)
(0.996385 0.00610515 0)
(1.00169 0.00715383 0)
(1.00628 0.00167386 0)
(1.00382 0.000223695 0)
(1.00475 -0.00261164 0)
(1.00448 -0.00705349 0)
(1.00129 -0.00783416 0)
(0.998011 -0.00821321 0)
(0.99696 -0.00953082 0)
(0.994293 -0.00926043 0)
(0.991481 -0.0078799 0)
(0.98957 -0.00672793 0)
(0.999308 -0.000954322 0)
(0.998302 0.00015182 0)
(1.00085 0.00290477 0)
(1.00188 -0.00261937 0)
(0.999491 -0.00442492 0)
(0.994447 -0.00386731 0)
(0.995018 0.000419511 0)
(0.994804 0.00140431 0)
(0.996758 0.00546719 0)
(1.0014 0.00656891 0)
(1.00577 0.00160157 0)
(1.00349 -5.65411e-06 0)
(1.00414 -0.00234271 0)
(1.00403 -0.00647273 0)
(1.00125 -0.00746544 0)
(0.997936 -0.00754616 0)
(0.996961 -0.00868988 0)
(0.994669 -0.00872004 0)
(0.992045 -0.00746491 0)
(0.990112 -0.0063262 0)
(0.999328 -0.000813267 0)
(0.99849 -7.79104e-07 0)
(1.00076 0.00265443 0)
(1.0016 -0.00235361 0)
(0.999496 -0.00417799 0)
(0.994797 -0.00350907 0)
(0.995371 0.000327351 0)
(0.995195 0.00139293 0)
(0.997118 0.00487553 0)
(1.00116 0.00597874 0)
(1.00527 0.00153994 0)
(1.00319 -0.000187644 0)
(1.00359 -0.00210597 0)
(1.00357 -0.00586699 0)
(1.00124 -0.00708105 0)
(0.997928 -0.00699295 0)
(0.996948 -0.00785963 0)
(0.994983 -0.00808075 0)
(0.992595 -0.00703581 0)
(0.990674 -0.00599931 0)
(0.999348 -0.000682353 0)
(0.998668 -0.000134898 0)
(1.00069 0.00241419 0)
(1.00134 -0.00211286 0)
(0.999501 -0.00393222 0)
(0.995138 -0.00316555 0)
(0.995717 0.00025195 0)
(0.995572 0.00134477 0)
(0.997457 0.00434145 0)
(1.00095 0.00541298 0)
(1.0048 0.00146634 0)
(1.00291 -0.000341946 0)
(1.00311 -0.00195007 0)
(1.00312 -0.00527655 0)
(1.0012 -0.00661191 0)
(0.997969 -0.00646649 0)
(0.996966 -0.00711049 0)
(0.995263 -0.00744019 0)
(0.993097 -0.00655355 0)
(0.991189 -0.00559914 0)
(0.999369 -0.000557484 0)
(0.998838 -0.000251783 0)
(1.00064 0.00216209 0)
(1.0011 -0.00186286 0)
(0.999509 -0.00368026 0)
(0.995478 -0.00286874 0)
(0.996048 0.000209429 0)
(0.995924 0.00128525 0)
(0.99778 0.00383597 0)
(1.00077 0.00485927 0)
(1.00434 0.00140749 0)
(1.00264 -0.000444921 0)
(1.00269 -0.00181086 0)
(1.0027 -0.00477262 0)
(1.00118 -0.00618226 0)
(0.998045 -0.00596988 0)
(0.996981 -0.00636886 0)
(0.995515 -0.00676304 0)
(0.993608 -0.00606604 0)
(0.991694 -0.00521812 0)
(0.999393 -0.000450776 0)
(0.998993 -0.000330365 0)
(1.00061 0.00189511 0)
(1.00088 -0.00163477 0)
(0.999515 -0.00340259 0)
(0.995808 -0.00261402 0)
(0.996372 0.000174039 0)
(0.996255 0.00122969 0)
(0.998079 0.00337675 0)
(1.00062 0.00431949 0)
(1.00392 0.00132421 0)
(1.00239 -0.000534664 0)
(1.00231 -0.00168829 0)
(1.00228 -0.00424503 0)
(1.00115 -0.00573327 0)
(0.998188 -0.00559963 0)
(0.997051 -0.0057912 0)
(0.995733 -0.00619808 0)
(0.99405 -0.00565636 0)
(0.992152 -0.00477035 0)
(0.999417 -0.000345491 0)
(0.999138 -0.00040344 0)
(1.0006 0.00165029 0)
(1.00068 -0.00143767 0)
(0.999525 -0.00313756 0)
(0.996136 -0.00236437 0)
(0.996686 0.000152538 0)
(0.996562 0.0011459 0)
(0.998357 0.00295281 0)
(1.0005 0.0038097 0)
(1.00351 0.00125722 0)
(1.00215 -0.000558948 0)
(1.002 -0.0016597 0)
(1.00192 -0.00380995 0)
(1.00108 -0.00529453 0)
(0.998323 -0.00528096 0)
(0.997129 -0.0053573 0)
(0.995949 -0.00577562 0)
(0.994568 -0.00543306 0)
(0.992693 -0.00448363 0)
(0.999442 -0.000264269 0)
(0.999268 -0.000415229 0)
(1.0006 0.00136207 0)
(1.0005 -0.00123136 0)
(0.999532 -0.00284259 0)
(0.996453 -0.0021741 0)
(0.996988 0.000138444 0)
(0.996847 0.00108756 0)
(0.998612 0.00257012 0)
(1.00041 0.00331883 0)
(1.00315 0.00112107 0)
(1.00191 -0.00054602 0)
(1.0017 -0.00156128 0)
(1.00158 -0.00344223 0)
(1.00102 -0.00497726 0)
(0.998482 -0.00503854 0)
(0.997231 -0.00502852 0)
(0.996095 -0.00531564 0)
(0.99498 -0.00507127 0)
(0.993311 -0.00415449 0)
(0.999468 -0.000186249 0)
(0.999383 -0.000426439 0)
(1.0006 0.00112499 0)
(1.00035 -0.00109863 0)
(0.999531 -0.00256067 0)
(0.996762 -0.00196181 0)
(0.997291 0.0001209 0)
(0.997113 0.00100489 0)
(0.998838 0.00223057 0)
(1.00033 0.00285979 0)
(1.00281 0.00102363 0)
(1.00171 -0.000585249 0)
(1.00146 -0.00152338 0)
(1.00124 -0.00311934 0)
(1.00091 -0.00455178 0)
(0.998626 -0.00472327 0)
(0.997375 -0.00459847 0)
(0.996314 -0.00473191 0)
(0.995461 -0.00446782 0)
(0.993934 -0.00360979 0)
(0.999495 -0.000124536 0)
(0.999482 -0.000401608 0)
(1.00061 0.000871769 0)
(1.00022 -0.000992198 0)
(0.999544 -0.00222699 0)
(0.997054 -0.00179984 0)
(0.997569 9.20953e-05 0)
(0.997362 0.000961808 0)
(0.999046 0.00192638 0)
(1.00028 0.00243896 0)
(1.00251 0.000872392 0)
(1.00148 -0.000580777 0)
(1.00123 -0.00143348 0)
(1.00097 -0.00280123 0)
(1.00083 -0.00419983 0)
(0.998805 -0.00441506 0)
(0.997588 -0.00419099 0)
(0.99654 -0.00418541 0)
(0.995889 -0.00396887 0)
(0.99451 -0.00330976 0)
(0.999524 -7.20554e-05 0)
(0.999564 -0.000377394 0)
(1.00062 0.000663721 0)
(1.00012 -0.000920975 0)
(0.999541 -0.00192945 0)
(0.997323 -0.00163038 0)
(0.997861 8.4406e-05 0)
(0.997596 0.000885566 0)
(0.999216 0.0016676 0)
(1.00022 0.00205457 0)
(1.00224 0.000709878 0)
(1.00132 -0.000547708 0)
(1.00105 -0.00137699 0)
(1.00067 -0.00251181 0)
(1.00069 -0.00381644 0)
(0.998978 -0.00409245 0)
(0.997831 -0.00388575 0)
(0.996806 -0.00376684 0)
(0.996289 -0.00361173 0)
(0.995075 -0.00301472 0)
(0.99955 -2.37203e-05 0)
(0.999636 -0.000355686 0)
(1.00063 0.000498221 0)
(1.00003 -0.000914735 0)
(0.999559 -0.00161816 0)
(0.997579 -0.00143868 0)
(0.998114 3.32938e-05 0)
(0.997812 0.000809604 0)
(0.999377 0.00147117 0)
(1.0002 0.00171693 0)
(1.00201 0.000583903 0)
(1.00112 -0.000587348 0)
(1.00087 -0.00129307 0)
(1.00048 -0.00217955 0)
(1.00061 -0.00332899 0)
(0.99913 -0.00370236 0)
(0.998087 -0.00348422 0)
(0.997049 -0.00330072 0)
(0.996662 -0.0031707 0)
(0.99566 -0.00261667 0)
(0.99958 1.20599e-05 0)
(0.99969 -0.000323454 0)
(1.00063 0.000348613 0)
(0.999983 -0.000890054 0)
(0.999574 -0.00134818 0)
(0.997795 -0.00127136 0)
(0.998377 1.53428e-05 0)
(0.998031 0.000754387 0)
(0.999501 0.00127953 0)
(1.00014 0.0014502 0)
(1.00179 0.00044534 0)
(1.001 -0.000547011 0)
(1.00078 -0.00115134 0)
(1.00027 -0.00191687 0)
(1.00046 -0.00293988 0)
(0.999275 -0.00328986 0)
(0.998379 -0.0030998 0)
(0.997351 -0.00284476 0)
(0.997062 -0.00274152 0)
(0.996127 -0.00233448 0)
(0.999606 4.96635e-05 0)
(0.999737 -0.000317126 0)
(1.00062 0.00026667 0)
(0.999937 -0.000900141 0)
(0.999605 -0.00115378 0)
(0.998011 -0.00104642 0)
(0.998601 -5.55503e-08 0)
(0.998221 0.000633459 0)
(0.999625 0.00113831 0)
(1.00013 0.00125051 0)
(1.00162 0.000373062 0)
(1.00086 -0.000510272 0)
(1.00065 -0.0011172 0)
(1.00013 -0.00169216 0)
(1.00041 -0.00248277 0)
(0.999425 -0.00284802 0)
(0.998668 -0.0027809 0)
(0.997625 -0.00250357 0)
(0.997357 -0.00247255 0)
(0.996546 -0.00219945 0)
(0.999633 7.60253e-05 0)
(0.999775 -0.000297151 0)
(1.00061 0.000190518 0)
(0.999914 -0.000902598 0)
(0.999651 -0.000966812 0)
(0.998193 -0.00086986 0)
(0.998809 -4.09641e-06 0)
(0.998426 0.000571944 0)
(0.999736 0.00101004 0)
(1.00008 0.00106953 0)
(1.00143 0.000303844 0)
(1.00075 -0.000472185 0)
(1.00061 -0.00098737 0)
(1.00005 -0.00143358 0)
(1.00032 -0.00215273 0)
(0.999505 -0.00251082 0)
(0.998923 -0.00252195 0)
(0.997911 -0.00224794 0)
(0.997657 -0.00213845 0)
(0.99701 -0.00195661 0)
(0.999657 0.000107338 0)
(0.999807 -0.000304682 0)
(1.00059 0.000158973 0)
(0.999895 -0.000893008 0)
(0.999704 -0.000853844 0)
(0.998378 -0.00070198 0)
(0.998998 5.16759e-05 0)
(0.998596 0.00048173 0)
(0.999835 0.000861044 0)
(1.00007 0.00093717 0)
(1.0013 0.000288607 0)
(1.00065 -0.000403518 0)
(1.00054 -0.000918222 0)
(0.999964 -0.00129761 0)
(1.00028 -0.00186798 0)
(0.999618 -0.00214233 0)
(0.999179 -0.00220979 0)
(0.998235 -0.0019915 0)
(0.99795 -0.00180108 0)
(0.997402 -0.0017202 0)
(0.999681 0.000130756 0)
(0.999835 -0.00030339 0)
(1.00057 0.000134677 0)
(0.999883 -0.000883015 0)
(0.999773 -0.00074084 0)
(0.998552 -0.000573796 0)
(0.99916 9.58959e-05 0)
(0.998763 0.000424101 0)
(0.999942 0.000754998 0)
(1.00006 0.000816907 0)
(1.00116 0.00024711 0)
(1.00055 -0.000344202 0)
(1.00051 -0.000803608 0)
(0.999952 -0.00109482 0)
(1.00027 -0.00157966 0)
(0.999699 -0.00184511 0)
(0.99938 -0.0019303 0)
(0.998543 -0.00178034 0)
(0.998239 -0.00156854 0)
(0.997717 -0.00147241 0)
(0.999703 0.000157738 0)
(0.999859 -0.000319539 0)
(1.00055 0.000125007 0)
(0.999875 -0.000840954 0)
(0.999845 -0.000658214 0)
(0.998727 -0.000491508 0)
(0.999315 0.000161542 0)
(0.998904 0.000407505 0)
(1.00003 0.000634677 0)
(1.00006 0.000688039 0)
(1.00106 0.000246911 0)
(1.00049 -0.000232886 0)
(1.00048 -0.000673347 0)
(0.999916 -0.000952571 0)
(1.00025 -0.0013799 0)
(0.999799 -0.00159145 0)
(0.999592 -0.00164515 0)
(0.998848 -0.00153904 0)
(0.99856 -0.00137974 0)
(0.998002 -0.00118806 0)
(0.999724 0.000179443 0)
(0.99988 -0.000332099 0)
(1.00052 0.000120598 0)
(0.999869 -0.000791452 0)
(0.99992 -0.000586039 0)
(0.998902 -0.000430603 0)
(0.999462 0.000204286 0)
(0.99903 0.000400548 0)
(1.00011 0.000556932 0)
(1.00008 0.000584937 0)
(1.00098 0.000226438 0)
(1.00042 -0.000169353 0)
(1.00045 -0.0005547 0)
(0.999918 -0.000777577 0)
(1.00027 -0.00114088 0)
(0.999911 -0.00133344 0)
(0.999781 -0.00140569 0)
(0.999101 -0.00131673 0)
(0.998886 -0.00124031 0)
(0.998279 -0.000973016 0)
(0.999743 0.000201969 0)
(0.9999 -0.000350032 0)
(1.0005 0.000116967 0)
(0.999865 -0.000722827 0)
(0.999994 -0.000508061 0)
(0.999076 -0.000399234 0)
(0.99961 0.00022636 0)
(0.999145 0.000414227 0)
(1.00017 0.00050836 0)
(1.0001 0.000484459 0)
(1.00094 0.000190591 0)
(1.00039 -8.53359e-05 0)
(1.00044 -0.000395002 0)
(0.999918 -0.000590972 0)
(1.00027 -0.000946905 0)
(0.999997 -0.00114342 0)
(0.999967 -0.00123077 0)
(0.999343 -0.00109884 0)
(0.99921 -0.00108064 0)
(0.998589 -0.000823448 0)
(0.999761 0.00022039 0)
(0.999918 -0.000362198 0)
(1.00049 0.000113461 0)
(0.999865 -0.000647738 0)
(1.00006 -0.000422807 0)
(0.999244 -0.000376292 0)
(0.999763 0.000227647 0)
(0.999256 0.000422743 0)
(1.00023 0.000483387 0)
(1.00012 0.000415137 0)
(1.00091 0.000160304 0)
(1.00038 -4.34727e-05 0)
(1.00044 -0.000281681 0)
(0.999922 -0.000434165 0)
(1.00028 -0.000750098 0)
(1.00009 -0.000931522 0)
(1.00017 -0.00105395 0)
(0.999582 -0.00089998 0)
(0.999491 -0.00090683 0)
(0.998918 -0.000728044 0)
(0.999778 0.000235704 0)
(0.999934 -0.000367179 0)
(1.00048 0.000108692 0)
(0.999869 -0.000572141 0)
(1.00012 -0.000320785 0)
(0.999403 -0.000345972 0)
(0.999919 0.00021287 0)
(0.999369 0.000418626 0)
(1.00027 0.000469623 0)
(1.00013 0.000369612 0)
(1.0009 0.000125129 0)
(1.0004 -3.43427e-05 0)
(1.00048 -0.000193825 0)
(0.999951 -0.000268906 0)
(1.0003 -0.000551579 0)
(1.00015 -0.000722866 0)
(1.00034 -0.000901382 0)
(0.999819 -0.000775513 0)
(0.999737 -0.000741231 0)
(0.999246 -0.000639036 0)
(0.999794 0.00024812 0)
(0.999948 -0.00036661 0)
(1.00048 0.000107325 0)
(0.999883 -0.000500114 0)
(1.00018 -0.000207313 0)
(0.999547 -0.000305515 0)
(1.00008 0.000185498 0)
(0.999487 0.000402124 0)
(1.00031 0.000463061 0)
(1.00015 0.000343607 0)
(1.0009 0.000112378 0)
(1.00044 -2.25958e-05 0)
(1.00055 -0.000152209 0)
(1 -0.000147545 0)
(1.00031 -0.000381963 0)
(1.0002 -0.000531342 0)
(1.00049 -0.000731084 0)
(1.00007 -0.000670275 0)
(0.999987 -0.000599041 0)
(0.999543 -0.000522027 0)
(0.999809 0.000255943 0)
(0.999959 -0.00035571 0)
(1.00048 0.000112051 0)
(0.999904 -0.000438703 0)
(1.00024 -9.86916e-05 0)
(0.999673 -0.000251879 0)
(1.00023 0.000153104 0)
(0.999612 0.000367204 0)
(1.00035 0.00046434 0)
(1.00016 0.000335098 0)
(1.00089 0.000116696 0)
(1.00049 -4.46763e-06 0)
(1.00064 -0.000132604 0)
(1.00009 -7.32592e-05 0)
(1.00036 -0.000225085 0)
(1.00025 -0.000352503 0)
(1.0006 -0.000549352 0)
(1.00029 -0.000552919 0)
(1.00024 -0.000517478 0)