/*--------------------------------*- C++ -*----------------------------------*\
| =========                 |                                                 |
| \\      /  F ield         | OpenFOAM: The Open Source CFD Toolbox           |
|  \\    /   O peration     | Version:  v1912                                 |
|   \\  /    A nd           | Website:  www.openfoam.com                      |
|    \\/     M anipulation  |                                                 |
\*---------------------------------------------------------------------------*/
FoamFile
{
    version     2.0;
    format      ascii;
    class       surfaceScalarField;
    location    "9.65";
    object      phi;
}
// * * * * * * * * * * * * * * * * * * * * * * * * * * * * * * * * * * * * * //

dimensions      [0 3 -1 0 0 0 0];
oriented        oriented;


internalField   nonuniform List<scalar> 
19000
(
1.187e-06
-1.32145e-06
1.23502e-06
7.33326e-07
1.15794e-06
1.62943e-06
1.0865e-06
3.62537e-07
1.19075e-06
-3.10229e-06
1.2382e-06
-1.92603e-06
1.20409e-06
-9.03268e-07
1.21632e-06
6.37074e-07
1.21887e-06
2.1409e-07
1.19826e-06
4.48998e-07
1.20062e-06
-1.45117e-07
1.21216e-06
-1.85357e-07
1.22071e-06
-4.45019e-07
1.20575e-06
-1.66199e-07
1.20786e-06
-4.27088e-07
1.19552e-06
-3.61242e-07
1.20939e-06
-4.60684e-07
1.20333e-06
-2.77822e-07
1.2115e-06
-2.40926e-07
-7.28802e-08
1.18735e-06
1.25009e-06
-1.34728e-06
1.30218e-06
6.8124e-07
1.21478e-06
1.71683e-06
1.16312e-06
4.14203e-07
1.25064e-06
-3.18982e-06
1.28525e-06
-1.96064e-06
1.26378e-06
-8.81792e-07
1.28324e-06
6.1761e-07
1.27933e-06
2.17998e-07
1.27233e-06
4.56003e-07
1.26384e-06
-1.36632e-07
1.27818e-06
-1.99698e-07
1.27674e-06
-4.4358e-07
1.27451e-06
-1.63963e-07
1.25911e-06
-4.11694e-07
1.25958e-06
-3.61707e-07
1.25407e-06
-4.55178e-07
1.27075e-06
-2.94502e-07
1.25534e-06
-2.25515e-07
-8.60477e-08
1.26851e-06
1.31186e-06
-1.37636e-06
1.37444e-06
6.18659e-07
1.28944e-06
1.80183e-06
1.24187e-06
4.61767e-07
1.2994e-06
-3.24734e-06
1.33334e-06
-1.99458e-06
1.32321e-06
-8.71663e-07
1.34878e-06
5.92039e-07
1.34206e-06
2.24711e-07
1.34419e-06
4.53874e-07
1.32792e-06
-1.2036e-07
1.33651e-06
-2.08287e-07
1.32895e-06
-4.36022e-07
1.32871e-06
-1.63723e-07
1.30738e-06
-3.90359e-07
1.30638e-06
-3.60715e-07
1.29817e-06
-4.4696e-07
1.31357e-06
-3.09906e-07
1.30793e-06
-2.19869e-07
-8.92505e-08
1.31113e-06
1.37167e-06
-1.40392e-06
1.44396e-06
5.46361e-07
1.37364e-06
1.87215e-06
1.32557e-06
5.0984e-07
1.34556e-06
-3.26733e-06
1.37986e-06
-2.02887e-06
1.38304e-06
-8.74851e-07
1.41042e-06
5.64661e-07
1.40642e-06
2.28715e-07
1.41075e-06
4.49539e-07
1.39299e-06
-1.02602e-07
1.39212e-06
-2.07414e-07
1.38169e-06
-4.25588e-07
1.37985e-06
-1.61888e-07
1.35942e-06
-3.69922e-07
1.35479e-06
-3.56092e-07
1.34623e-06
-4.384e-07
1.35893e-06
-3.22599e-07
1.35873e-06
-2.19671e-07
-9.29919e-08
1.36247e-06
1.43031e-06
-1.42587e-06
1.50508e-06
4.71585e-07
1.45809e-06
1.91914e-06
1.41006e-06
5.5787e-07
1.3949e-06
-3.25217e-06
1.42655e-06
-2.06052e-06
1.44442e-06
-8.92723e-07
1.47302e-06
5.36065e-07
1.47353e-06
2.28205e-07
1.47727e-06
4.45802e-07
1.46007e-06
-8.54049e-08
1.45157e-06
-1.98916e-07
1.43777e-06
-4.11784e-07
1.43556e-06
-1.59675e-07
1.4167e-06
-3.51066e-07
1.41106e-06
-3.50454e-07
1.40038e-06
-4.27717e-07
1.41059e-06
-3.32813e-07
1.41164e-06
-2.20723e-07
-9.78061e-08
1.41646e-06
1.48921e-06
-1.4394e-06
1.5574e-06
4.03391e-07
1.53707e-06
1.93947e-06
1.49392e-06
6.01021e-07
1.45239e-06
-3.21064e-06
1.47725e-06
-2.08538e-06
1.50819e-06
-9.23663e-07
1.54043e-06
5.03826e-07
1.54412e-06
2.24517e-07
1.54665e-06
4.43267e-07
1.52922e-06
-6.79716e-08
1.51614e-06
-1.85842e-07
1.49866e-06
-3.94302e-07
1.49676e-06
-1.57772e-07
1.47932e-06
-3.33627e-07
1.4738e-06
-3.44931e-07
1.46121e-06
-4.1513e-07
1.46785e-06
-3.39454e-07
1.46899e-06
-2.21858e-07
-1.01858e-07
1.47304e-06
1.55e-06
-1.44318e-06
1.60502e-06
3.48364e-07
1.60974e-06
1.93476e-06
1.57699e-06
6.33771e-07
1.51927e-06
-3.15293e-06
1.53477e-06
-2.10088e-06
1.57431e-06
-9.63211e-07
1.61222e-06
4.65919e-07
1.6172e-06
2.19541e-07
1.61847e-06
4.42e-07
1.59977e-06
-4.92773e-08
1.58453e-06
-1.70597e-07
1.56437e-06
-3.74151e-07
1.5629e-06
-1.563e-07
1.54678e-06
-3.17506e-07
1.54155e-06
-3.397e-07
1.5279e-06
-4.01479e-07
1.53051e-06
-3.42062e-07
1.53098e-06
-2.22334e-07
-1.04153e-07
1.53328e-06
1.61437e-06
-1.43742e-06
1.65423e-06
3.08506e-07
1.67922e-06
1.90976e-06
1.65998e-06
6.53012e-07
1.59401e-06
-3.08696e-06
1.5997e-06
-2.10657e-06
1.64233e-06
-1.00583e-06
1.68556e-06
4.22684e-07
1.69066e-06
2.14443e-07
1.69104e-06
4.41621e-07
1.67105e-06
-2.92848e-08
1.65546e-06
-1.55014e-07
1.63418e-06
-3.52872e-07
1.6334e-06
-1.55521e-07
1.61858e-06
-3.02679e-07
1.6136e-06
-3.34717e-07
1.59953e-06
-3.87416e-07
1.59822e-06
-3.40751e-07
1.59759e-06
-2.21698e-07
-1.04199e-07
1.59763e-06
1.68379e-06
-1.42364e-06
1.71069e-06
2.81611e-07
1.75011e-06
1.87035e-06
1.74406e-06
6.59062e-07
1.67455e-06
-3.01745e-06
1.67127e-06
-2.10329e-06
1.71183e-06
-1.04639e-06
1.758e-06
3.76511e-07
1.76277e-06
2.09677e-07
1.76321e-06
4.41181e-07
1.74292e-06
-8.99159e-09
1.72854e-06
-1.40637e-07
1.70751e-06
-3.31845e-07
1.70778e-06
-1.55785e-07
1.69438e-06
-2.89284e-07
1.6896e-06
-3.29937e-07
1.67559e-06
-3.73408e-07
1.67071e-06
-3.35871e-07
1.66872e-06
-2.19704e-07
-1.0185e-07
1.66637e-06
1.75918e-06
-1.4041e-06
1.77738e-06
2.6341e-07
1.82579e-06
1.82193e-06
1.83023e-06
6.54625e-07
1.75942e-06
-2.94663e-06
1.74846e-06
-2.09234e-06
1.7829e-06
-1.08083e-06
1.82893e-06
3.30483e-07
1.83335e-06
2.05262e-07
1.83511e-06
4.39418e-07
1.816e-06
1.01128e-08
1.80409e-06
-1.28724e-07
1.78429e-06
-3.12042e-07
1.78578e-06
-1.5728e-07
1.77403e-06
-2.77536e-07
1.76944e-06
-3.25343e-07
1.75587e-06
-3.59837e-07
1.74796e-06
-3.27964e-07
1.74441e-06
-2.16155e-07
-9.72802e-08
1.73984e-06
1.84072e-06
-1.38107e-06
1.85419e-06
2.49934e-07
1.90736e-06
1.76877e-06
1.91909e-06
6.42892e-07
1.8479e-06
-2.87544e-06
1.83054e-06
-2.07497e-06
1.85613e-06
-1.10643e-06
1.89942e-06
2.87193e-07
1.90377e-06
2.00917e-07
1.90807e-06
4.35118e-07
1.89151e-06
2.6672e-08
1.88291e-06
-1.20128e-07
1.86488e-06
-2.94012e-07
1.86751e-06
-1.59905e-07
1.85754e-06
-2.67563e-07
1.85309e-06
-3.20898e-07
1.84027e-06
-3.47015e-07
1.82998e-06
-3.17674e-07
1.82483e-06
-2.11005e-07
-9.09342e-08
1.81848e-06
1.92802e-06
-1.35625e-06
1.93918e-06
2.38783e-07
1.99423e-06
1.71371e-06
2.01093e-06
6.26199e-07
1.93978e-06
-2.8043e-06
1.91712e-06
-2.05231e-06
1.93251e-06
-1.12182e-06
1.97153e-06
2.48172e-07
1.9763e-06
1.96145e-07
1.98405e-06
4.2737e-07
1.97086e-06
3.98594e-08
1.96595e-06
-1.15219e-07
1.9499e-06
-2.77963e-07
1.95325e-06
-1.63252e-07
1.94501e-06
-2.59323e-07
1.9406e-06
-3.1649e-07
1.92873e-06
-3.35137e-07
1.91679e-06
-3.05739e-07
1.91016e-06
-2.04377e-07
-8.34588e-08
1.90269e-06
2.02052e-06
-1.33059e-06
2.03029e-06
2.2901e-07
2.08565e-06
1.65836e-06
2.10604e-06
6.05804e-07
2.03512e-06
-2.73338e-06
2.00816e-06
-2.02534e-06
2.01327e-06
-1.12693e-06
2.04761e-06
2.13832e-07
2.05336e-06
1.9039e-07
2.06502e-06
4.1571e-07
2.05537e-06
4.95132e-08
2.05406e-06
-1.13907e-07
2.03999e-06
-2.63895e-07
2.04339e-06
-1.6665e-07
2.03664e-06
-2.52578e-07
2.03211e-06
-3.11956e-07
2.02119e-06
-3.24217e-07
2.00839e-06
-2.92938e-07
2.00056e-06
-1.96547e-07
-7.55794e-08
1.99268e-06
2.11779e-06
-1.30438e-06
2.12645e-06
2.2035e-07
2.18143e-06
1.60337e-06
2.2049e-06
5.82336e-07
2.13415e-06
-2.66262e-06
2.10384e-06
-1.99504e-06
2.09974e-06
-1.12283e-06
2.12987e-06
1.83702e-07
2.13702e-06
1.83243e-07
2.15253e-06
4.00199e-07
2.14597e-06
5.60753e-08
2.14779e-06
-1.15735e-07
2.13564e-06
-2.51747e-07
2.13828e-06
-1.69288e-07
2.13262e-06
-2.46911e-07
2.12782e-06
-3.0716e-07
2.11769e-06
-3.14092e-07
2.10477e-06
-2.80011e-07
2.09608e-06
-1.87862e-07
-6.79505e-08
2.08845e-06
2.21973e-06
-1.27762e-06
2.2275e-06
2.12584e-07
2.28197e-06
1.5489e-06
2.30805e-06
5.5626e-07
2.23719e-06
-2.59177e-06
2.20443e-06
-1.96228e-06
2.19296e-06
-1.11137e-06
2.2199e-06
1.56767e-07
2.22858e-06
1.74565e-07
2.24742e-06
3.81352e-07
2.24311e-06
6.03852e-08
2.24738e-06
-1.19997e-07
2.23715e-06
-2.4152e-07
2.23826e-06
-1.70398e-07
2.23313e-06
-2.41779e-07
2.22801e-06
-3.02041e-07
2.21837e-06
-3.04452e-07
2.20595e-06
-2.67587e-07
2.19679e-06
-1.78706e-07
-6.10141e-08
2.18985e-06
2.3265e-06
-1.25025e-06
2.33374e-06
2.05345e-07
2.38771e-06
1.49493e-06
2.41592e-06
5.28053e-07
2.34464e-06
-2.52048e-06
2.31019e-06
-1.92783e-06
2.29345e-06
-1.09462e-06
2.31835e-06
1.31866e-07
2.32845e-06
1.64457e-07
2.34988e-06
3.59927e-07
2.34688e-06
6.33882e-08
2.35276e-06
-1.25877e-07
2.34456e-06
-2.33319e-07
2.34361e-06
-1.69452e-07
2.33843e-06
-2.36595e-07
2.33301e-06
-2.96621e-07
2.32345e-06
-2.94899e-07
2.31199e-06
-2.56121e-07
2.30273e-06
-1.69449e-07
-5.49691e-08
2.29669e-06
2.4384e-06
-1.22225e-06
2.44554e-06
1.98209e-07
2.49896e-06
1.44151e-06
2.52884e-06
4.98173e-07
2.4569e-06
-2.44855e-06
2.42133e-06
-1.89226e-06
2.40116e-06
-1.07445e-06
2.42501e-06
1.08018e-07
2.43633e-06
1.5314e-07
2.45958e-06
3.36678e-07
2.4571e-06
6.58638e-08
2.46378e-06
-1.32556e-07
2.45774e-06
-2.27282e-07
2.45459e-06
-1.66297e-07
2.44883e-06
-2.30837e-07
2.44315e-06
-2.90943e-07
2.43331e-06
-2.85061e-07
2.42301e-06
-2.45818e-07
2.41398e-06
-1.6042e-07
-4.98046e-08
2.40882e-06
2.55572e-06
-1.19368e-06
2.56313e-06
1.90802e-07
2.61585e-06
1.38879e-06
2.64702e-06
4.66999e-07
2.57434e-06
-2.37587e-06
2.538e-06
-1.85592e-06
2.51581e-06
-1.05226e-06
2.53923e-06
8.46066e-08
2.55151e-06
1.40858e-07
2.576e-06
3.12189e-07
2.57361e-06
6.82482e-08
2.58034e-06
-1.39279e-07
2.57649e-06
-2.23434e-07
2.57142e-06
-1.61226e-07
2.56474e-06
-2.24157e-07
2.5588e-06
-2.85009e-07
2.54841e-06
-2.74669e-07
2.53917e-06
-2.36581e-07
2.53065e-06
-1.51897e-07
-4.53548e-08
2.5262e-06
2.67876e-06
-1.16461e-06
2.68672e-06
1.82842e-07
2.73848e-06
1.33703e-06
2.77068e-06
4.34808e-07
2.69732e-06
-2.30251e-06
2.6604e-06
-1.81899e-06
2.63708e-06
-1.02895e-06
2.66031e-06
6.13763e-08
2.67334e-06
1.27836e-07
2.6987e-06
2.86829e-07
2.69635e-06
7.05942e-08
2.70247e-06
-1.45398e-07
2.70061e-06
-2.21578e-07
2.69425e-06
-1.54867e-07
2.68656e-06
-2.16468e-07
2.68031e-06
-2.78752e-07
2.66923e-06
-2.63595e-07
2.66072e-06
-2.28071e-07
2.65288e-06
-1.44053e-07
-4.14016e-08
2.64893e-06
2.80779e-06
-1.13513e-06
2.81652e-06
1.7411e-07
2.86703e-06
1.28652e-06
2.90003e-06
4.01805e-07
2.82619e-06
-2.22867e-06
2.78869e-06
-1.7815e-06
2.7648e-06
-1.00506e-06
2.78787e-06
3.83079e-08
2.80144e-06
1.14267e-07
2.82745e-06
2.60814e-07
2.82539e-06
7.26556e-08
2.8304e-06
-1.50406e-07
2.83008e-06
-2.21257e-07
2.8232e-06
-1.47984e-07
2.8147e-06
-2.0797e-07
2.80798e-06
-2.72031e-07
2.79623e-06
-2.51848e-07
2.78798e-06
-2.19819e-07
2.78086e-06
-1.36931e-07
-3.77476e-08
2.7772e-06
2.94308e-06
-1.10531e-06
2.95279e-06
1.644e-07
3.00172e-06
1.23759e-06
3.03534e-06
3.68183e-07
2.96126e-06
-2.15459e-06
2.92311e-06
-1.74334e-06
2.89898e-06
-9.80938e-07
2.92183e-06
1.54598e-08
2.93579e-06
1.00311e-07
2.9623e-06
2.34304e-07
2.96092e-06
7.40295e-08
2.96449e-06
-1.53971e-07
2.96504e-06
-2.21815e-07
2.95835e-06
-1.41289e-07
2.94944e-06
-1.99061e-07
2.94209e-06
-2.64679e-07
2.92978e-06
-2.39545e-07
2.92135e-06
-2.11385e-07
2.91485e-06
-1.30426e-07
-3.42705e-08
2.91137e-06
3.08493e-06
-1.07523e-06
3.09584e-06
1.5348e-07
3.14287e-06
1.19056e-06
3.17689e-06
3.34164e-07
3.10288e-06
-2.08058e-06
3.06393e-06
-1.70439e-06
3.03981e-06
-9.56817e-07
3.06241e-06
-7.14666e-09
3.07663e-06
8.60949e-08
3.10344e-06
2.07494e-07
3.10317e-06
7.4305e-08
3.10514e-06
-1.55946e-07
3.10584e-06
-2.22512e-07
3.09985e-06
-1.35298e-07
3.09101e-06
-1.90221e-07
3.08288e-06
-2.56552e-07
3.07021e-06
-2.26874e-07
3.06127e-06
-2.02444e-07
3.05519e-06
-1.24348e-07
-3.09225e-08
3.05184e-06
3.23359e-06
-1.04491e-06
3.24598e-06
1.41095e-07
3.29089e-06
1.14565e-06
3.32503e-06
3.00025e-07
3.25138e-06
-2.00694e-06
3.21147e-06
-1.66448e-06
3.18756e-06
-9.32899e-07
3.20998e-06
-2.95681e-08
3.22435e-06
7.17219e-08
3.2512e-06
1.80646e-07
3.25234e-06
7.3159e-08
3.25276e-06
-1.56361e-07
3.25292e-06
-2.22675e-07
3.2479e-06
-1.30278e-07
3.23956e-06
-1.81879e-07
3.2306e-06
-2.47597e-07
3.21777e-06
-2.14038e-07
3.20816e-06
-1.92839e-07
3.2023e-06
-1.18489e-07
-2.77165e-08
3.1991e-06
3.38935e-06
-1.01433e-06
3.40345e-06
1.26999e-07
3.4462e-06
1.1029e-06
3.48014e-06
2.66083e-07
3.40711e-06
-1.93391e-06
3.36611e-06
-1.62349e-06
3.34256e-06
-9.09346e-07
3.36491e-06
-5.19158e-08
3.37936e-06
5.72649e-08
3.40592e-06
1.5409e-07
3.40867e-06
7.04127e-08
3.4077e-06
-1.55398e-07
3.40681e-06
-2.21779e-07
3.40279e-06
-1.26261e-07
3.39524e-06
-1.74326e-07
3.38555e-06
-2.37909e-07
3.37271e-06
-2.01195e-07
3.36246e-06
-1.82587e-07
3.35665e-06
-1.12684e-07
-2.46838e-08
3.35362e-06
3.55248e-06
-9.83405e-07
3.56846e-06
1.11022e-07
3.60926e-06
1.0621e-06
3.64269e-06
2.32657e-07
3.57041e-06
-1.86162e-06
3.52824e-06
-1.58132e-06
3.50518e-06
-8.86285e-07
3.52756e-06
-7.42968e-08
3.54206e-06
4.27634e-08
3.56795e-06
1.28203e-07
3.57234e-06
6.60181e-08
3.5703e-06
-1.53357e-07
3.56802e-06
-2.19496e-07
3.56484e-06
-1.2308e-07
3.55822e-06
-1.67709e-07
3.54803e-06
-2.27722e-07
3.53532e-06
-1.88479e-07
3.52454e-06
-1.71813e-07
3.51874e-06
-1.06877e-07
-2.18306e-08
3.51588e-06
3.72328e-06
-9.51983e-07
3.74116e-06
9.31441e-08
3.78052e-06
1.02275e-06
3.81317e-06
2.00005e-07
3.74165e-06
-1.79011e-06
3.69828e-06
-1.53795e-06
3.67578e-06
-8.63791e-07
3.69823e-06
-9.67431e-08
3.71277e-06
2.82228e-08
3.73761e-06
1.0336e-07
3.74358e-06
6.00548e-08
3.74083e-06
-1.50611e-07
3.73706e-06
-2.15725e-07
3.73441e-06
-1.20428e-07
3.72875e-06
-1.62047e-07
3.71837e-06
-2.17345e-07
3.70594e-06
-1.76046e-07
3.6948e-06
-1.60674e-07
3.68901e-06
-1.01091e-07
-1.92014e-08
3.68638e-06
3.90209e-06
-9.19889e-07
3.92169e-06
7.35501e-08
3.96034e-06
9.84099e-07
3.99207e-06
1.6827e-07
3.92122e-06
-1.71926e-06
3.87666e-06
-1.49338e-06
3.85476e-06
-8.41889e-07
3.87717e-06
-1.19158e-07
3.89177e-06
1.36295e-08
3.91525e-06
7.98769e-08
3.92259e-06
5.27081e-08
3.91954e-06
-1.47558e-07
3.91442e-06
-2.10602e-07
3.91194e-06
-1.17946e-07
3.90712e-06
-1.57231e-07
3.89689e-06
-2.07119e-07
3.88492e-06
-1.6407e-07
3.87357e-06
-1.49323e-07
3.86784e-06
-9.536e-08
-1.6915e-08
3.86555e-06
4.08932e-06
-8.86953e-07
4.11022e-06
5.26463e-08
4.14903e-06
9.45287e-07
4.17985e-06
1.37454e-07
4.10953e-06
-1.64894e-06
4.06383e-06
-1.44768e-06
4.04248e-06
-8.20541e-07
4.06462e-06
-1.41302e-07
4.07928e-06
-1.02667e-09
4.1012e-06
5.79552e-08
4.10967e-06
4.42397e-08
4.10666e-06
-1.44551e-07
4.10054e-06
-2.04483e-07
4.09793e-06
-1.15331e-07
4.09374e-06
-1.53047e-07
4.08394e-06
-1.97309e-07
4.07258e-06
-1.52712e-07
4.06118e-06
-1.37925e-07
4.0555e-06
-8.96816e-08
-1.51662e-08
4.05375e-06
4.28542e-06
-8.53067e-07
4.30705e-06
3.10172e-08
4.34685e-06
9.05485e-07
4.37688e-06
1.07423e-07
4.30698e-06
-1.57905e-06
4.26021e-06
-1.4009e-06
4.23932e-06
-7.99653e-07
4.26084e-06
-1.62824e-07
4.27555e-06
-1.57368e-08
4.29586e-06
3.76452e-08
4.30515e-06
3.49454e-08
4.30245e-06
-1.41848e-07
4.29583e-06
-1.97858e-07
4.29293e-06
-1.12433e-07
4.28906e-06
-1.49178e-07
4.27985e-06
-1.88104e-07
4.26922e-06
-1.42076e-07
4.25794e-06
-1.26652e-07
4.25225e-06
-8.3992e-08
-1.41736e-08
4.25126e-06
4.49092e-06
-8.18213e-07
4.5126e-06
9.33657e-09
4.55402e-06
8.6407e-07
4.58346e-06
7.79755e-08
4.51399e-06
-1.50957e-06
4.46622e-06
-1.35314e-06
4.44566e-06
-7.79088e-07
4.46617e-06
-1.83338e-07
4.4809e-06
-3.0461e-08
4.49968e-06
1.88592e-08
4.50954e-06
2.50936e-08
4.50726e-06
-1.3957e-07
4.50063e-06
-1.91231e-07
4.49746e-06
-1.09259e-07
4.49352e-06
-1.45242e-07
4.48501e-06
-1.79596e-07
4.4752e-06
-1.32267e-07
4.46421e-06
-1.15659e-07
4.4584e-06
-7.81794e-08
-1.40231e-08
4.45825e-06
4.70639e-06
-7.82485e-07
4.72747e-06
-1.17467e-08
4.77081e-06
8.20733e-07
4.79986e-06
4.89182e-08
4.73095e-06
-1.44066e-06
4.6823e-06
-1.3045e-06
4.66191e-06
-7.58689e-07
4.68107e-06
-2.02506e-07
4.69576e-06
-4.5145e-08
4.7132e-06
1.42154e-09
4.72339e-06
1.48974e-08
4.72155e-06
-1.37728e-07
4.71532e-06
-1.85e-07
4.712e-06
-1.05936e-07
4.70769e-06
-1.40937e-07
4.69982e-06
-1.71725e-07
4.69093e-06
-1.23374e-07
4.68034e-06
-1.05071e-07
4.67435e-06
-7.21903e-08
-1.45253e-08
4.67485e-06
4.93238e-06
-7.4607e-07
4.95235e-06
-3.1716e-08
4.99758e-06
7.75506e-07
5.02634e-06
2.0161e-08
4.95826e-06
-1.37258e-06
4.90889e-06
-1.25512e-06
4.8885e-06
-7.38302e-07
4.90609e-06
-2.20097e-07
4.92069e-06
-5.97418e-08
4.93697e-06
-1.48639e-08
4.94736e-06
4.50434e-09
4.94589e-06
-1.36251e-07
4.9403e-06
-1.79412e-07
4.93701e-06
-1.02647e-07
4.93216e-06
-1.36091e-07
4.92478e-06
-1.64342e-07
4.91682e-06
-1.15413e-07
4.90673e-06
-9.49764e-08
4.90057e-06
-6.60298e-08
-1.52921e-08
4.90133e-06
5.16946e-06
-7.09214e-07
5.18802e-06
-5.02714e-08
5.23481e-06
7.28712e-07
5.2632e-06
-8.22371e-09
5.1963e-06
-1.30568e-06
5.14644e-06
-1.20526e-06
5.12592e-06
-7.17788e-07
5.14183e-06
-2.36008e-07
5.15632e-06
-7.42301e-08
5.17162e-06
-3.01624e-08
5.1821e-06
-5.98073e-09
5.18089e-06
-1.35034e-07
5.17603e-06
-1.74556e-07
5.17295e-06
-9.9566e-08
5.16747e-06
-1.30611e-07
5.16045e-06
-1.57321e-07
5.15337e-06
-1.08333e-07
5.14382e-06
-8.54242e-08
5.13755e-06
-5.97652e-08
-1.58911e-08
5.13815e-06
5.41815e-06
-6.72172e-07
5.43522e-06
-6.73464e-08
5.48309e-06
6.80844e-07
5.51086e-06
-3.59946e-08
5.4455e-06
-1.24032e-06
5.39546e-06
-1.15522e-06
5.37472e-06
-6.97046e-07
5.38894e-06
-2.50232e-07
5.40333e-06
-8.86137e-08
5.41775e-06
-4.45898e-08
5.42825e-06
-1.64762e-08
5.42718e-06
-1.33969e-07
5.42302e-06
-1.70393e-07
5.4203e-06
-9.68446e-08
5.41413e-06
-1.24443e-07
5.40735e-06
-1.50542e-07
5.4011e-06
-1.02084e-07
5.39208e-06
-7.63983e-08
5.38583e-06
-5.35178e-08
-1.5997e-08
5.38594e-06
5.67896e-06
-6.35173e-07
5.69468e-06
-8.30662e-08
5.74308e-06
6.32443e-07
5.76988e-06
-6.27911e-08
5.70635e-06
-1.17679e-06
5.65649e-06
-1.10537e-06
5.63554e-06
-6.761e-07
5.64807e-06
-2.62758e-07
5.66234e-06
-1.02887e-07
5.67598e-06
-5.82271e-08
5.68639e-06
-2.68866e-08
5.68541e-06
-1.32986e-07
5.68181e-06
-1.66795e-07
5.67957e-06
-9.46045e-08
5.67272e-06
-1.17593e-07
5.666e-06
-1.43822e-07
5.66061e-06
-9.66951e-08
5.65207e-06
-6.78585e-08
5.64599e-06
-4.74407e-08
-1.54434e-08
5.64544e-06
5.95242e-06
-5.98397e-07
5.96703e-06
-9.76763e-08
6.01546e-06
5.84008e-07
6.04088e-06
-8.82054e-08
5.97942e-06
-1.11533e-06
5.93006e-06
-1.056e-06
5.90907e-06
-6.55116e-07
5.91989e-06
-2.73576e-07
5.93398e-06
-1.16982e-07
5.94689e-06
-7.11313e-08
5.95711e-06
-3.71107e-08
5.95616e-06
-1.32037e-07
5.95297e-06
-1.63601e-07
5.9513e-06
-9.29306e-08
5.94387e-06
-1.10163e-07
5.937e-06
-1.36961e-07
5.93248e-06
-9.2167e-08
5.92446e-06
-5.98408e-08
5.91855e-06
-4.1534e-08
-1.43357e-08
5.91744e-06
6.23907e-06
-5.61984e-07
6.25284e-06
-1.1144e-07
6.3009e-06
5.35947e-07
6.32458e-06
-1.11882e-07
6.26536e-06
-1.05611e-06
6.21667e-06
-1.00732e-06
6.19588e-06
-6.34319e-07
6.20506e-06
-2.82761e-07
6.21884e-06
-1.30756e-07
6.23107e-06
-8.33667e-08
6.24099e-06
-4.70285e-08
6.24006e-06
-1.31109e-07
6.23712e-06
-1.60657e-07
6.23601e-06
-9.18262e-08
6.22825e-06
-1.02398e-07
6.22092e-06
-1.2963e-07
6.21728e-06
-8.85289e-08
6.20994e-06
-5.24993e-08
6.20408e-06
-3.56744e-08
-1.28828e-08
6.20262e-06
6.53953e-06
-5.26047e-07
6.55266e-06
-1.24564e-07
6.60001e-06
4.88591e-07
6.62173e-06
-1.33598e-07
6.56485e-06
-9.99238e-07
6.51686e-06
-9.59328e-07
6.49651e-06
-6.13961e-07
6.50422e-06
-2.90477e-07
6.51749e-06
-1.44025e-07
6.52911e-06
-9.49805e-08
6.5386e-06
-5.65251e-08
6.5377e-06
-1.30208e-07
6.53488e-06
-1.5784e-07
6.53432e-06
-9.1264e-08
6.52647e-06
-9.45444e-08
6.51849e-06
-1.21649e-07
6.51556e-06
-8.56008e-08
6.50922e-06
-4.61581e-08
6.50325e-06
-2.97087e-08
-1.12123e-08
6.50158e-06
6.85444e-06
-4.90698e-07
6.86704e-06
-1.37165e-07
6.91343e-06
4.42204e-07
6.93313e-06
-1.53303e-07
6.87865e-06
-9.44755e-07
6.83132e-06
-9.11992e-07
6.81152e-06
-5.94161e-07
6.81798e-06
-2.96946e-07
6.83058e-06
-1.56617e-07
6.84159e-06
-1.05993e-07
6.85059e-06
-6.55218e-08
6.84969e-06
-1.29316e-07
6.84696e-06
-1.55102e-07
6.84683e-06
-9.11396e-08
6.83918e-06
-8.68911e-08
6.83046e-06
-1.1293e-07
6.82787e-06
-8.30127e-08
6.82294e-06
-4.123e-08
6.81682e-06
-2.35859e-08
-9.30916e-09
6.81492e-06
7.1845e-06
-4.56061e-07
7.19659e-06
-1.49255e-07
7.24178e-06
3.97013e-07
7.2595e-06
-1.71021e-07
7.20754e-06
-8.92801e-07
7.16082e-06
-8.65269e-07
7.14148e-06
-5.7482e-07
7.14695e-06
-3.02411e-07
7.15872e-06
-1.68395e-07
7.16913e-06
-1.16402e-07
7.17758e-06
-7.39748e-08
7.17671e-06
-1.28446e-07
7.17405e-06
-1.52439e-07
7.17427e-06
-9.13547e-08
7.16704e-06
-7.96696e-08
7.15759e-06
-1.0348e-07
7.15475e-06
-8.01722e-08
7.15153e-06
-3.80043e-08
7.1454e-06
-1.74601e-08
-7.12897e-09
7.14322e-06
7.53045e-06
-4.22288e-07
7.54192e-06
-1.60727e-07
7.58581e-06
3.53127e-07
7.60139e-06
-1.866e-07
7.55223e-06
-8.43645e-07
7.50622e-06
-8.19261e-07
7.48707e-06
-5.5567e-07
7.49174e-06
-3.07081e-07
7.50266e-06
-1.79307e-07
7.51238e-06
-1.26124e-07
7.52029e-06
-8.18882e-08
7.51945e-06
-1.276e-07
7.51683e-06
-1.4982e-07
7.51753e-06
-9.20544e-08
7.51092e-06
-7.3066e-08
7.50064e-06
-9.32017e-08
7.49677e-06
-7.63e-08
7.49498e-06
-3.62126e-08
7.48959e-06
-1.20691e-08
-4.59887e-09
7.48706e-06
7.89309e-06
-3.89564e-07
7.90372e-06
-1.71363e-07
7.94641e-06
3.10443e-07
7.95939e-06
-1.99583e-07
7.91345e-06
-7.97706e-07
7.86839e-06
-7.74203e-07
7.8491e-06
-5.36372e-07
7.85298e-06
-3.10965e-07
7.8631e-06
-1.89424e-07
7.87205e-06
-1.35073e-07
7.87942e-06
-8.92595e-08
7.87862e-06
-1.26803e-07
7.87612e-06
-1.47315e-07
7.87747e-06
-9.34106e-08
7.872e-06
-6.75906e-08
7.86128e-06
-8.24902e-08
7.85519e-06
-7.0208e-08
7.85252e-06
-3.35416e-08
7.84821e-06
-7.75619e-09
-3.62659e-09
7.84724e-06
8.2732e-06
-3.5808e-07
8.28272e-06
-1.80885e-07
8.32446e-06
2.68704e-07
8.33444e-06
-2.0956e-07
8.29188e-06
-7.55152e-07
8.24821e-06
-7.3053e-07
8.22847e-06
-5.16632e-07
8.23136e-06
-3.13855e-07
8.24079e-06
-1.98854e-07
8.24892e-06
-1.43206e-07
8.25573e-06
-9.60669e-08
8.25483e-06
-1.25899e-07
8.25243e-06
-1.4492e-07
8.2547e-06
-9.5681e-08
8.25213e-06
-6.5015e-08
8.2454e-06
-7.57631e-08
8.24697e-06
-7.17793e-08
8.25232e-06
-3.8888e-08
8.25178e-06
-7.21528e-09
1.97133e-09
8.24618e-06
8.67162e-06
-3.28042e-07
8.67972e-06
-1.88982e-07
8.72074e-06
2.27686e-07
8.72755e-06
-2.16367e-07
8.68816e-06
-7.1577e-07
8.64648e-06
-6.8885e-07
8.62609e-06
-4.9624e-07
8.62762e-06
-3.15384e-07
8.63647e-06
-2.07709e-07
8.64391e-06
-1.50643e-07
8.6501e-06
-1.02257e-07
8.64918e-06
-1.24973e-07
8.64717e-06
-1.42918e-07
8.65037e-06
-9.88802e-08
8.6499e-06
-6.45449e-08
8.644e-06
-6.98611e-08
8.64224e-06
-7.00177e-08
8.6459e-06
-4.25531e-08
8.64626e-06
-7.56843e-09
5.80641e-09
8.64242e-06
9.08919e-06
-2.99617e-07
9.09564e-06
-1.95423e-07
9.13603e-06
1.87293e-07
9.13979e-06
-2.20132e-07
9.10273e-06
-6.78701e-07
9.06404e-06
-6.50167e-07
9.04292e-06
-4.75117e-07
9.04283e-06
-3.1529e-07
9.05086e-06
-2.15742e-07
9.05783e-06
-1.57617e-07
9.06361e-06
-1.08036e-07
9.06253e-06
-1.2389e-07
9.06029e-06
-1.40674e-07
9.06426e-06
-1.0285e-07
9.06522e-06
-6.55127e-08
9.05975e-06
-6.43859e-08
9.05805e-06
-6.83206e-08
9.06322e-06
-4.77183e-08
9.06499e-06
-9.34189e-09
1.1612e-08
9.05918e-06
9.52682e-06
-2.72973e-07
9.53144e-06
-2.00048e-07
9.57108e-06
1.47658e-07
9.57226e-06
-2.21312e-07
9.53653e-06
-6.42977e-07
9.50145e-06
-6.15089e-07
9.48003e-06
-4.53691e-07
9.47795e-06
-3.13211e-07
9.48483e-06
-2.22626e-07
9.49151e-06
-1.64294e-07
9.49696e-06
-1.13486e-07
9.49661e-06
-1.23543e-07
9.49442e-06
-1.38487e-07
9.49576e-06
-1.04186e-07
9.49332e-06
-6.30764e-08
9.48327e-06
-5.43286e-08
9.47173e-06
-5.67836e-08
9.46708e-06
-4.307e-08
9.46917e-06
-1.14354e-08
8.94867e-09
9.47184e-06
9.9854e-06
-2.48235e-07
9.98802e-06
-2.02675e-07
1.00268e-05
1.08928e-07
1.0026e-05
-2.20577e-07
9.99083e-06
-6.0779e-07
9.95922e-06
-5.83476e-07
9.93852e-06
-4.32992e-07
9.93419e-06
-3.08883e-07
9.93952e-06
-2.27958e-07
9.9457e-06
-1.70475e-07
9.95045e-06
-1.1823e-07
9.94877e-06
-1.21868e-07
9.94684e-06
-1.36557e-07
9.95232e-06
-1.09665e-07
9.95707e-06
-6.7825e-08
9.95592e-06
-5.31753e-08
9.95453e-06
-5.54002e-08
9.95796e-06
-4.64907e-08
9.95913e-06
-1.26055e-08
1.45758e-08
9.9535e-06
1.04659e-05
-2.25486e-07
1.04665e-05
-2.0329e-07
1.05039e-05
7.15689e-08
1.05023e-05
-2.1898e-07
1.04668e-05
-5.72301e-07
1.04383e-05
-5.55013e-07
1.0419e-05
-4.1363e-07
1.04127e-05
-3.02657e-07
1.04159e-05
-2.31079e-07
1.04214e-05
-1.76062e-07
1.04259e-05
-1.22664e-07
1.04246e-05
-1.20555e-07
1.04202e-05
-1.3219e-07
1.04201e-05
-1.09565e-07
1.04192e-05
-6.69763e-08
1.04134e-05
-4.72952e-08
1.04042e-05
-4.6251e-08
1.03988e-05
-4.10999e-08
1.0401e-05
-1.4807e-08
9.90899e-09
1.04057e-05
1.09693e-05
-2.04767e-07
1.09679e-05
-2.01874e-07
1.10034e-05
3.60091e-08
1.10018e-05
-2.17314e-07
1.0966e-05
-5.36501e-07
1.09396e-05
-5.28596e-07
1.09222e-05
-3.96259e-07
1.09148e-05
-2.95251e-07
1.09152e-05
-2.31498e-07
1.09196e-05
-1.80439e-07
1.09234e-05
-1.26499e-07
1.09213e-05
-1.18429e-07
1.0915e-05
-1.25898e-07
1.09144e-05
-1.0899e-07
1.09149e-05
-6.74902e-08
1.09113e-05
-4.3688e-08
1.09048e-05
-3.9678e-08
1.09009e-05
-3.72653e-08
1.09038e-05
-1.76381e-08
6.61558e-09
1.0907e-05
1.14967e-05
-1.86091e-07
1.14933e-05
-1.9844e-07
1.15267e-05
2.60122e-09
1.15254e-05
-2.16056e-07
1.14899e-05
-5.00987e-07
1.1464e-05
-5.02699e-07
1.14491e-05
-3.81336e-07
1.14411e-05
-2.87309e-07
1.14391e-05
-2.29501e-07
1.14417e-05
-1.82975e-07
1.14449e-05
-1.29702e-07
1.1443e-05
-1.16603e-07
1.14369e-05
-1.19716e-07
1.14348e-05
-1.06937e-07
1.14358e-05
-6.84452e-08
1.14344e-05
-4.23458e-08
1.14294e-05
-3.47044e-08
1.14249e-05
-3.27049e-08
1.14256e-05
-1.83746e-08
2.27248e-09
1.143e-05
1.20491e-05
-1.6938e-07
1.2044e-05
-1.93306e-07
1.20746e-05
-2.80254e-08
1.20743e-05
-2.15734e-07
1.20396e-05
-4.66274e-07
1.20135e-05
-4.76597e-07
1.20004e-05
-3.6822e-07
1.19929e-05
-2.79876e-07
1.19889e-05
-2.25457e-07
1.19893e-05
-1.83376e-07
1.19919e-05
-1.32352e-07
1.19907e-05
-1.15405e-07
1.19847e-05
-1.13656e-07
1.19816e-05
-1.03821e-07
1.19825e-05
-6.93503e-08
1.1982e-05
-4.18614e-08
1.19784e-05
-3.10954e-08
1.19746e-05
-2.8893e-08
1.19741e-05
-1.79692e-08
-1.51567e-09
1.19779e-05
1.26277e-05
-1.54509e-07
1.26212e-05
-1.86787e-07
1.26486e-05
-5.54314e-08
1.26494e-05
-2.16545e-07
1.26161e-05
-4.32944e-07
1.25895e-05
-4.49984e-07
1.25772e-05
-3.55923e-07
1.25708e-05
-2.73531e-07
1.25658e-05
-2.20392e-07
1.25642e-05
-1.81826e-07
1.25657e-05
-1.33829e-07
1.25647e-05
-1.14439e-07
1.25592e-05
-1.0809e-07
1.25555e-05
-1.00124e-07
1.25559e-05
-6.97896e-08
1.25562e-05
-4.21163e-08
1.25537e-05
-2.86566e-08
1.25504e-05
-2.55609e-08
1.25491e-05
-1.6692e-08
-4.32262e-09
1.25519e-05
1.32337e-05
-1.41294e-07
1.32263e-05
-1.79362e-07
1.325e-05
-7.91058e-08
1.32517e-05
-2.1828e-07
1.32205e-05
-4.01723e-07
1.31936e-05
-4.23111e-07
1.3181e-05
-3.43319e-07
1.31759e-05
-2.68392e-07
1.31707e-05
-2.15276e-07
1.31675e-05
-1.78527e-07
1.31674e-05
-1.33773e-07
1.31665e-05
-1.13501e-07
1.31616e-05
-1.03225e-07
1.31574e-05
-9.59791e-08
1.31572e-05
-6.9531e-08
1.31579e-05
-4.28051e-08
1.31563e-05
-2.71133e-08
1.31538e-05
-2.3075e-08
1.31524e-05
-1.52528e-08
-6.07841e-09
1.31542e-05
1.38684e-05
-1.2951e-07
1.38605e-05
-1.71494e-07
1.38801e-05
-9.86953e-08
1.38824e-05
-2.20584e-07
1.3854e-05
-3.73309e-07
1.38271e-05
-3.96222e-07
1.38135e-05
-3.29695e-07
1.3809e-05
-2.63864e-07
1.38046e-05
-2.10886e-07
1.38003e-05
-1.74265e-07
1.37986e-05
-1.32095e-07
1.37972e-05
-1.12059e-07
1.37929e-05
-9.89583e-08
1.37887e-05
-9.17558e-08
1.37878e-05
-6.86555e-08
1.37887e-05
-4.37223e-08
1.37879e-05
-2.63191e-08
1.37862e-05
-2.13218e-08
1.37847e-05
-1.37246e-08
-7.02598e-09
1.37856e-05
1.45331e-05
-1.18915e-07
1.45252e-05
-1.6363e-07
1.45406e-05
-1.14102e-07
1.45429e-05
-2.22899e-07
1.45175e-05
-3.47892e-07
1.44912e-05
-3.69904e-07
1.44764e-05
-3.1495e-07
1.44714e-05
-2.58834e-07
1.4468e-05
-2.0746e-07
1.44637e-05
-1.69986e-07
1.44606e-05
-1.29001e-07
1.44585e-05
-1.09911e-07
1.44546e-05
-9.51353e-08
1.44505e-05
-8.76515e-08
1.44492e-05
-6.72641e-08
1.445e-05
-4.45942e-08
1.44497e-05
-2.5986e-08
1.44486e-05
-2.0216e-08
1.44474e-05
-1.25215e-08
-7.34106e-09
1.44477e-05
1.52292e-05
-1.09281e-07
1.52217e-05
-1.56119e-07
1.52331e-05
-1.25477e-07
1.52347e-05
-2.24496e-07
1.52123e-05
-3.25477e-07
1.51872e-05
-3.44766e-07
1.51713e-05
-2.99072e-07
1.51649e-05
-2.52444e-07
1.51619e-05
-2.04495e-07
1.51585e-05
-1.66587e-07
1.51549e-05
-1.25355e-07
1.51519e-05
-1.0695e-07
1.51482e-05
-9.14305e-08
1.51443e-05
-8.37257e-08
1.51424e-05
-6.54083e-08
1.51432e-05
-4.53171e-08
1.51433e-05
-2.60954e-08
1.51427e-05
-1.96175e-08
1.51419e-05
-1.17824e-08
-7.15113e-09
1.51417e-05
1.59585e-05
-1.00418e-07
1.59515e-05
-1.49137e-07
1.59593e-05
-1.3325e-07
1.59593e-05
-2.24494e-07
1.59396e-05
-3.05822e-07
1.59162e-05
-3.21323e-07
1.58996e-05
-2.82541e-07
1.58916e-05
-2.44378e-07
1.58878e-05
-2.00771e-07
1.58857e-05
-1.64463e-07
1.58826e-05
-1.22206e-07
1.5879e-05
-1.03398e-07
1.58752e-05
-8.75712e-08
1.58714e-05
-8.00054e-08
1.58693e-05
-6.32415e-08
1.58697e-05
-4.57927e-08
1.58701e-05
-2.64837e-08
1.58698e-05
-1.9295e-08
1.58696e-05
-1.158e-08
-6.81246e-09
1.58693e-05
1.67224e-05
-9.22029e-08
1.67159e-05
-1.42684e-07
1.67206e-05
-1.37926e-07
1.67184e-05
-2.2227e-07
1.67011e-05
-2.88548e-07
1.66797e-05
-2.99908e-07
1.66631e-05
-2.65943e-07
1.66537e-05
-2.34969e-07
1.66485e-05
-1.95588e-07
1.66468e-05
-1.62714e-07
1.66447e-05
-1.20177e-07
1.66413e-05
-9.99657e-08
1.66372e-05
-8.34723e-08
1.66336e-05
-7.63727e-08
1.66312e-05
-6.08423e-08
1.66313e-05
-4.58945e-08
1.66319e-05
-2.71147e-08
1.66318e-05
-1.91618e-08
1.66319e-05
-1.17334e-08
-6.74795e-09
1.66319e-05
1.75227e-05
-8.45719e-08
1.75166e-05
-1.36518e-07
1.75188e-05
-1.40173e-07
1.75142e-05
-2.17669e-07
1.74986e-05
-2.72956e-07
1.74795e-05
-2.80744e-07
1.74633e-05
-2.49824e-07
1.7453e-05
-2.24638e-07
1.74464e-05
-1.88959e-07
1.74439e-05
-1.60241e-07
1.74428e-05
-1.19054e-07
1.74401e-05
-9.72493e-08
1.7436e-05
-7.94493e-08
1.74323e-05
-7.26857e-08
1.74298e-05
-5.82908e-08
1.74294e-05
-4.55363e-08
1.74302e-05
-2.78524e-08
1.74303e-05
-1.92358e-08
1.74304e-05
-1.19111e-08
-7.17104e-09
1.74309e-05
1.83613e-05
-7.74924e-08
1.83551e-05
-1.30326e-07
1.83556e-05
-1.40672e-07
1.8349e-05
-2.11068e-07