/*--------------------------------*- C++ -*----------------------------------*\
| =========                 |                                                 |
| \\      /  F ield         | OpenFOAM: The Open Source CFD Toolbox           |
|  \\    /   O peration     | Version:  v1912                                 |
|   \\  /    A nd           | Website:  www.openfoam.com                      |
|    \\/     M anipulation  |                                                 |
\*---------------------------------------------------------------------------*/
FoamFile
{
    version     2.0;
    format      ascii;
    class       surfaceScalarField;
    location    "9.45";
    object      phi;
}
// * * * * * * * * * * * * * * * * * * * * * * * * * * * * * * * * * * * * * //

dimensions      [0 3 -1 0 0 0 0];
oriented        oriented;


internalField   nonuniform List<scalar> 
19000
(
1.16875e-06
-5.1229e-09
1.17719e-06
5.31171e-07
1.15644e-06
-4.33873e-07
1.16292e-06
-1.46035e-06
1.22087e-06
1.62945e-07
1.20077e-06
3.52531e-07
1.15104e-06
7.9082e-07
1.15352e-06
8.52465e-07
1.16327e-06
5.75802e-07
1.10619e-06
-9.80236e-07
1.1583e-06
1.05222e-07
1.09951e-06
-1.14544e-06
1.14504e-06
-5.28973e-07
1.11421e-06
-5.8262e-07
1.14929e-06
-6.36657e-07
1.15523e-06
-2.43823e-07
1.15842e-06
-4.61022e-07
1.18348e-06
6.55892e-08
1.18363e-06
1.6687e-08
2.95545e-07
1.18702e-06
1.22381e-06
-4.66776e-09
1.23374e-06
5.21233e-07
1.21326e-06
-4.13392e-07
1.21911e-06
-1.46619e-06
1.27677e-06
1.05285e-07
1.25905e-06
3.70253e-07
1.20332e-06
8.46541e-07
1.21044e-06
8.45351e-07
1.21895e-06
5.67291e-07
1.17138e-06
-9.32664e-07
1.20734e-06
6.92644e-08
1.15917e-06
-1.09728e-06
1.19248e-06
-5.62281e-07
1.17881e-06
-5.68952e-07
1.20217e-06
-6.60009e-07
1.22935e-06
-2.71006e-07
1.21081e-06
-4.42483e-07
1.26106e-06
1.53364e-08
1.2312e-06
4.65511e-08
2.56863e-07
1.26988e-06
1.28079e-06
-2.67438e-09
1.29079e-06
5.11232e-07
1.27231e-06
-3.94916e-07
1.27829e-06
-1.47217e-06
1.33236e-06
5.12215e-08
1.31948e-06
3.83135e-07
1.26347e-06
9.02549e-07
1.26971e-06
8.39108e-07
1.28043e-06
5.56567e-07
1.24455e-06
-8.96785e-07
1.26685e-06
4.69685e-08
1.23479e-06
-1.06522e-06
1.24956e-06
-5.77051e-07
1.25521e-06
-5.74608e-07
1.2611e-06
-6.65895e-07
1.29591e-06
-3.05814e-07
1.271e-06
-4.17576e-07
1.30719e-06
-2.08528e-08
1.29683e-06
5.69089e-08
2.53781e-07
1.29992e-06
1.34082e-06
6.13682e-10
1.34898e-06
5.03068e-07
1.33351e-06
-3.79443e-07
1.34064e-06
-1.47931e-06
1.38836e-06
3.50793e-09
1.38064e-06
3.90845e-07
1.33189e-06
9.51306e-07
1.3358e-06
8.35197e-07
1.34712e-06
5.45242e-07
1.32111e-06
-8.70774e-07
1.33122e-06
3.68649e-08
1.3099e-06
-1.04391e-06
1.31251e-06
-5.79656e-07
1.32729e-06
-5.89387e-07
1.32426e-06
-6.62867e-07
1.35501e-06
-3.36561e-07
1.33952e-06
-4.02086e-07
1.35605e-06
-3.73844e-08
1.35979e-06
5.31653e-08
2.56787e-07
1.35679e-06
1.4048e-06
4.16815e-09
1.40956e-06
4.98305e-07
1.39752e-06
-3.67402e-07
1.40564e-06
-1.48743e-06
1.44543e-06
-3.6276e-08
1.44138e-06
3.94894e-07
1.40571e-06
9.86971e-07
1.40914e-06
8.31767e-07
1.41904e-06
5.35345e-07
1.39834e-06
-8.5007e-07
1.40101e-06
3.41968e-08
1.38363e-06
-1.02653e-06
1.38032e-06
-5.76344e-07
1.39503e-06
-6.04091e-07
1.3905e-06
-6.58337e-07
1.41512e-06
-3.61182e-07
1.40963e-06
-3.96605e-07
1.41909e-06
-4.6844e-08
1.42422e-06
4.80417e-08
2.55774e-07
1.42523e-06
1.47315e-06
6.69276e-09
1.4739e-06
4.97555e-07
1.46492e-06
-3.58421e-07
1.47315e-06
-1.49566e-06
1.50413e-06
-6.72557e-08
1.50143e-06
3.97594e-07
1.48057e-06
1.00784e-06
1.4868e-06
8.25537e-07
1.4948e-06
5.27345e-07
1.47585e-06
-8.31123e-07
1.47482e-06
3.52277e-08
1.45695e-06
-1.00866e-06
1.45072e-06
-5.70117e-07
1.46185e-06
-6.15226e-07
1.45828e-06
-6.54767e-07
1.47833e-06
-3.81232e-07
1.47802e-06
-3.96293e-07
1.48773e-06
-5.65518e-08
1.49265e-06
4.31232e-08
2.52204e-07
1.49622e-06
1.54563e-06
7.28406e-09
1.54292e-06
5.00259e-07
1.53594e-06
-3.51443e-07
1.54338e-06
-1.50309e-06
1.56518e-06
-8.90572e-08
1.56143e-06
4.01339e-07
1.55403e-06
1.01524e-06
1.56568e-06
8.13891e-07
1.57277e-06
5.2025e-07
1.55414e-06
-8.12493e-07
1.55196e-06
3.74108e-08
1.53193e-06
-9.8863e-07
1.52353e-06
-5.61713e-07
1.53036e-06
-6.22065e-07
1.52759e-06
-6.51994e-07
1.54417e-06
-3.97807e-07
1.54587e-06
-3.97999e-07
1.55637e-06
-6.70453e-08
1.56233e-06
3.71584e-08
2.47025e-07
1.56751e-06
1.62166e-06
5.7549e-09
1.61683e-06
5.0509e-07
1.61065e-06
-3.45265e-07
1.61661e-06
-1.50905e-06
1.62947e-06
-1.01917e-07
1.62282e-06
4.07987e-07
1.62641e-06
1.01164e-06
1.64457e-06
7.9574e-07
1.65195e-06
5.12867e-07
1.63363e-06
-7.94172e-07
1.63213e-06
3.891e-08
1.60982e-06
-9.66325e-07
1.59962e-06
-5.51508e-07
1.60193e-06
-6.24378e-07
1.59926e-06
-6.49326e-07
1.61274e-06
-4.11281e-07
1.6152e-06
-4.00466e-07
1.62515e-06
-7.69876e-08
1.63216e-06
3.01483e-08
2.40244e-07
1.63894e-06
1.70083e-06
2.50186e-09
1.69537e-06
5.10546e-07
1.68911e-06
-3.38999e-07
1.69303e-06
-1.51297e-06
1.69792e-06
-1.06814e-07
1.68767e-06
4.18242e-07
1.69972e-06
9.99596e-07
1.724e-06
7.71457e-07
1.73227e-06
5.04599e-07
1.71465e-06
-7.76553e-07
1.7152e-06
3.83614e-08
1.69108e-06
-9.42211e-07
1.67975e-06
-5.40179e-07
1.67732e-06
-6.21943e-07
1.67407e-06
-6.46074e-07
1.68451e-06
-4.21718e-07
1.68734e-06
-4.03297e-07
1.69591e-06
-8.55594e-08
1.70333e-06
2.27259e-08
2.31939e-07
1.71164e-06
1.78304e-06
-1.8124e-09
1.77832e-06
5.15263e-07
1.77151e-06
-3.32189e-07
1.77267e-06
-1.51414e-06
1.77132e-06
-1.05462e-07
1.75823e-06
4.31326e-07
1.77631e-06
9.81524e-07
1.80524e-06
7.4252e-07
1.81437e-06
4.95476e-07
1.79765e-06
-7.59834e-07
1.80101e-06
3.50007e-08
1.77569e-06
-9.16892e-07
1.7643e-06
-5.28793e-07
1.75713e-06
-6.14773e-07
1.75262e-06
-6.41559e-07
1.75982e-06
-4.2892e-07
1.7629e-06
-4.06379e-07
1.77007e-06
-9.27259e-08
1.77743e-06
1.53611e-08
2.22188e-07
1.78718e-06
1.86843e-06
-6.49295e-09
1.86564e-06
5.18051e-07
1.85815e-06
-3.24695e-07
1.85554e-06
-1.51152e-06
1.85014e-06
-1.0007e-07
1.83629e-06
4.45179e-07
1.85808e-06
9.59737e-07
1.88949e-06
7.11107e-07
1.89919e-06
4.85779e-07
1.8832e-06
-7.43845e-07
1.88948e-06
2.87185e-08
1.86351e-06
-8.90916e-07
1.85328e-06
-5.18566e-07
1.84179e-06
-6.0328e-07
1.83548e-06
-6.3525e-07
1.83901e-06
-4.32451e-07
1.84212e-06
-4.09492e-07
1.84826e-06
-9.88619e-08
1.85534e-06
8.27991e-09
2.1083e-07
1.8667e-06
1.95726e-06
-1.09133e-08
1.95742e-06
5.17887e-07
1.94931e-06
-3.16579e-07
1.94176e-06
-1.50397e-06
1.93454e-06
-9.2847e-08
1.92255e-06
4.57161e-07
1.94606e-06
9.36232e-07
1.97758e-06
6.79588e-07
1.98768e-06
4.7568e-07
1.97192e-06
-7.28085e-07
1.98075e-06
1.98827e-08
1.95452e-06
-8.64684e-07
1.9464e-06
-5.10445e-07
1.93134e-06
-5.88221e-07
1.92305e-06
-6.26959e-07
1.92252e-06
-4.31924e-07
1.92516e-06
-4.12131e-07
1.9306e-06
-1.04302e-07
1.93709e-06
1.78575e-09
1.97576e-07
1.95035e-06
2.04984e-06
-1.45629e-08
2.05369e-06
5.1404e-07
2.04516e-06
-3.08058e-07
2.03171e-06
-1.49052e-06
2.0243e-06
-8.54356e-08
2.01653e-06
4.64928e-07
2.0404e-06
9.12368e-07
2.07001e-06
6.49971e-07
2.08057e-06
4.65122e-07
2.06435e-06
-7.11864e-07
2.07518e-06
9.05009e-09
2.04888e-06
-8.38383e-07
2.04326e-06
-5.04822e-07
2.02553e-06
-5.70494e-07
2.01543e-06
-6.1686e-07
2.01085e-06
-4.27344e-07
2.01235e-06
-4.1363e-07
2.01711e-06
-1.09065e-07
2.02226e-06
-3.36173e-09
1.82421e-07
2.03742e-06
2.14653e-06
-1.70932e-08
2.15433e-06
5.06239e-07
2.14574e-06
-2.99462e-07
2.12597e-06
-1.47075e-06
2.11914e-06
-7.86132e-08
2.11695e-06
4.67118e-07
2.14063e-06
8.88693e-07
2.16712e-06
6.23476e-07
2.17834e-06
4.53905e-07
2.16098e-06
-6.94507e-07
2.17329e-06
-3.25217e-09
2.14688e-06
-8.11982e-07
2.14361e-06
-5.01548e-07
2.12407e-06
-5.50951e-07
2.11252e-06
-6.05309e-07
2.10439e-06
-4.19214e-07
2.10416e-06
-4.13404e-07
2.10803e-06
-1.12934e-07
2.11061e-06
-5.94431e-09
1.65974e-07
2.12706e-06
2.24774e-06
-1.83481e-08
2.25925e-06
4.94736e-07
2.25095e-06
-2.91162e-07
2.22519e-06
-1.445e-06
2.21897e-06
-7.23839e-08
2.22249e-06
4.63595e-07
2.24609e-06
8.65095e-07
2.26914e-06
6.00427e-07
2.28123e-06
4.41813e-07
2.26226e-06
-6.75537e-07
2.27561e-06
-1.6607e-08
2.24893e-06
-7.85297e-07
2.24753e-06
-5.00147e-07
2.22684e-06
-5.30261e-07
2.21422e-06
-5.92687e-07
2.20339e-06
-4.08383e-07
2.20105e-06
-4.11069e-07
2.20382e-06
-1.15701e-07
2.20275e-06
-4.87694e-09
1.49473e-07
2.21925e-06
2.35388e-06
-1.83527e-08
2.3684e-06
4.80213e-07
2.36072e-06
-2.83482e-07
2.32998e-06
-1.41426e-06
2.32393e-06
-6.63292e-08
2.33226e-06
4.5526e-07
2.35622e-06
8.41135e-07
2.37622e-06
5.80431e-07
2.38937e-06
4.28661e-07
2.36857e-06
-6.54736e-07
2.38266e-06
-3.06977e-08
2.35545e-06
-7.5809e-07
2.35535e-06
-5.00042e-07
2.33398e-06
-5.0889e-07
2.32062e-06
-5.79326e-07
2.30808e-06
-3.95846e-07
2.30333e-06
-4.06318e-07
2.30504e-06
-1.17418e-07
2.29999e-06
1.73983e-10
1.34426e-07
2.31504e-06
2.4653e-06
-1.72572e-08
2.48196e-06
4.63557e-07
2.47509e-06
-2.76611e-07
2.44073e-06
-1.37991e-06
2.43438e-06
-5.99746e-08
2.44602e-06
4.43623e-07
2.47079e-06
8.16365e-07
2.48852e-06
5.627e-07
2.5029e-06
4.14283e-07
2.48027e-06
-6.32113e-07
2.49485e-06
-4.52753e-08
2.4669e-06
-7.30139e-07
2.46753e-06
-5.00669e-07
2.44577e-06
-4.87129e-07
2.43196e-06
-5.65515e-07
2.41871e-06
-3.82604e-07
2.41123e-06
-3.9883e-07
2.41216e-06
-1.18355e-07
2.40364e-06
8.69264e-09
1.22057e-07
2.41601e-06
2.5823e-06
-1.52607e-08
2.60024e-06
4.45615e-07
2.5942e-06
-2.70576e-07
2.55766e-06
-1.34336e-06
2.5507e-06
-5.30233e-08
2.564e-06
4.30323e-07
2.5899e-06
7.90469e-07
2.60624e-06
5.46362e-07
2.62198e-06
3.98546e-07
2.59768e-06
-6.07816e-07
2.61254e-06
-6.0135e-08
2.58369e-06
-7.01292e-07
2.58453e-06
-5.0151e-07
2.56256e-06
-4.65154e-07
2.54852e-06
-5.51477e-07
2.5355e-06
-3.69582e-07
2.52499e-06
-3.88322e-07
2.5255e-06
-1.18869e-07
2.51468e-06
1.95136e-08
1.13041e-07
2.5237e-06
2.70511e-06
-1.25398e-08
2.72369e-06
4.27034e-07
2.71838e-06
-2.65267e-07
2.68082e-06
-1.3058e-06
2.67323e-06
-4.54342e-08
2.68679e-06
4.16771e-07
2.71398e-06
7.63277e-07
2.72964e-06
5.30704e-07
2.74679e-06
3.81386e-07
2.72105e-06
-5.82071e-07
2.73601e-06
-7.50962e-08
2.70621e-06
-6.71491e-07
2.70681e-06
-5.02113e-07
2.68479e-06
-4.4313e-07
2.67057e-06
-5.37254e-07
2.65853e-06
-3.57547e-07
2.64488e-06
-3.74676e-07
2.6453e-06
-1.19279e-07
2.63374e-06
3.10685e-08
1.07482e-07
2.6393e-06
2.83393e-06
-9.20565e-09
2.85276e-06
4.08205e-07
2.84801e-06
-2.60509e-07
2.81029e-06
-1.26808e-06
2.80224e-06
-3.73855e-08
2.81504e-06
4.03973e-07
2.84358e-06
7.34739e-07
2.85899e-06
5.15289e-07
2.87753e-06
3.62843e-07
2.8506e-06
-5.55141e-07
2.86549e-06
-8.9978e-08
2.83479e-06
-6.40793e-07
2.83478e-06
-5.02109e-07
2.81295e-06
-4.21297e-07
2.79837e-06
-5.22674e-07
2.7878e-06
-3.46974e-07
2.77119e-06
-3.58065e-07
2.77169e-06
-1.19787e-07
2.76111e-06
4.16479e-08
1.0495e-07
2.76365e-06
2.96899e-06
-5.29977e-09
2.98788e-06
3.89315e-07
2.98351e-06
-2.56144e-07
2.94613e-06
-1.2307e-06
2.93793e-06
-2.91849e-08
2.94938e-06
3.92518e-07
2.97923e-06
7.0489e-07
2.99455e-06
4.99969e-07
3.01436e-06
3.43039e-07
2.98652e-06
-5.27308e-07
3.00113e-06
-1.04579e-07
2.96973e-06
-6.09395e-07
2.96882e-06
-5.01199e-07
2.94754e-06
-4.00021e-07
2.93227e-06
-5.07408e-07
2.92325e-06
-3.37954e-07
2.90414e-06
-3.38951e-07
2.90477e-06
-1.20415e-07
2.89671e-06
4.97069e-08
1.04669e-07
2.89699e-06
3.11053e-06
-8.23349e-10
3.1294e-06
3.70441e-07
3.12533e-06
-2.52066e-07
3.08849e-06
-1.19387e-06
3.0805e-06
-2.1191e-08
3.09034e-06
3.82678e-07
3.12137e-06
6.73856e-07
3.13653e-06
4.84818e-07
3.15742e-06
3.22144e-07
3.12898e-06
-4.9887e-07
3.14308e-06
-1.18673e-07
3.11132e-06
-5.77639e-07
3.10923e-06
-4.99111e-07
3.08897e-06
-3.79756e-07
3.07268e-06
-4.91125e-07
3.06501e-06
-3.30282e-07
3.04396e-06
-3.179e-07
3.04453e-06
-1.20985e-07
3.04007e-06
5.41631e-08
1.05704e-07
3.03904e-06
3.25887e-06
4.21483e-09
3.27769e-06
3.51626e-07
3.27382e-06
-2.48203e-07
3.23757e-06
-1.15761e-06
3.23015e-06
-1.37697e-08
3.23833e-06
3.74497e-07
3.27033e-06
6.41851e-07
3.28512e-06
4.70029e-07
3.30691e-06
3.00355e-07
3.27818e-06
-4.70141e-07
3.29151e-06
-1.32006e-07
3.25988e-06
-5.46001e-07
3.25635e-06
-4.95582e-07
3.23752e-06
-3.60925e-07
3.22001e-06
-4.73615e-07
3.21334e-06
-3.23612e-07
3.19097e-06
-2.95537e-07
3.19098e-06
-1.20987e-07
3.19064e-06
5.45034e-08
1.07158e-07
3.18918e-06
3.41439e-06
9.75323e-09
3.43311e-06
3.32913e-07
3.42936e-06
-2.44458e-07
3.39355e-06
-1.12181e-06
3.38707e-06
-7.2882e-09
3.39372e-06
3.67851e-07
3.42642e-06
6.09152e-07
3.44063e-06
4.55812e-07
3.46306e-06
2.77925e-07
3.43439e-06
-4.41465e-07
3.44668e-06
-1.44301e-07
3.41572e-06
-5.15037e-07
3.41051e-06
-4.90376e-07
3.3934e-06
-3.43812e-07
3.37462e-06
-4.54831e-07
3.36862e-06
-3.17615e-07
3.34556e-06
-2.72479e-07
3.34438e-06
-1.19803e-07
3.34796e-06
5.09235e-08
1.0825e-07
3.34687e-06
3.57751e-06
1.56519e-08
3.59609e-06
3.14336e-07
3.59229e-06
-2.40657e-07
3.55668e-06
-1.0862e-06
3.55151e-06
-2.11325e-09
3.55689e-06
3.62469e-07
3.58998e-06
5.76067e-07
3.60348e-06
4.4231e-07
3.62622e-06
2.55181e-07
3.59796e-06
-4.13205e-07
3.60892e-06
-1.55255e-07
3.57917e-06
-4.85285e-07
3.57215e-06
-4.83362e-07
3.55684e-06
-3.28498e-07
3.53683e-06
-4.34819e-07
3.53125e-06
-3.12038e-07
3.50817e-06
-2.494e-07
3.50522e-06
-1.16849e-07
3.51196e-06
4.41829e-08
1.08338e-07
3.51187e-06
3.74866e-06
2.16972e-08
3.76711e-06
2.95883e-07
3.76299e-06
-2.36535e-07
3.72721e-06
-1.05042e-06
3.7237e-06
1.40087e-09
3.72822e-06
3.57949e-07
3.76141e-06
5.42881e-07
3.77418e-06
4.29537e-07
3.79682e-06
2.3254e-07
3.76935e-06
-3.85737e-07
3.77867e-06
-1.64575e-07
3.75053e-06
-4.57141e-07
3.74171e-06
-4.74541e-07
3.72809e-06
-3.14882e-07
3.70696e-06
-4.13686e-07
3.70157e-06
-3.06646e-07
3.67918e-06
-2.27013e-07
3.67413e-06
-1.11797e-07
3.68293e-06
3.53751e-08
1.06931e-07
3.68434e-06
3.92825e-06
2.76371e-08
3.94666e-06
2.77469e-07
3.94191e-06
-2.31781e-07
3.90546e-06
-1.01398e-06
3.9039e-06
2.95983e-09
3.90806e-06
3.53786e-07
3.94111e-06
5.09831e-07
3.95331e-06
4.17343e-07
3.97536e-06
2.10491e-07
3.94907e-06
-3.59447e-07
3.95649e-06
-1.71994e-07
3.93012e-06
-4.30777e-07
3.91963e-06
-4.6405e-07
3.90749e-06
-3.02741e-07
3.88536e-06
-3.91561e-07
3.87987e-06
-3.01152e-07
3.85894e-06
-2.06078e-07
3.85172e-06
-1.0458e-07
3.86142e-06
2.56726e-08
1.03667e-07
3.86469e-06
4.11665e-06
3.32337e-08
4.13519e-06
2.58934e-07
4.12953e-06
-2.26123e-07
4.09183e-06
-9.76278e-07
4.09239e-06
2.39972e-09
4.09674e-06
3.4944e-07
4.12948e-06
4.77087e-07
4.14141e-06
4.05414e-07
4.16235e-06
1.89551e-07
4.13761e-06
-3.34706e-07
4.14294e-06
-1.7732e-07
4.11829e-06
-4.06135e-07
4.10634e-06
-4.52096e-07
4.09541e-06
-2.91815e-07
4.07243e-06
-3.6858e-07
4.0665e-06
-2.95223e-07
4.04767e-06
-1.87241e-07
4.03858e-06
-9.54945e-08
4.04802e-06
1.62355e-08
9.83105e-08
4.05338e-06
4.31422e-06
3.8314e-08
4.33307e-06
2.40082e-07
4.32638e-06
-2.19425e-07
4.28684e-06
-9.36738e-07
4.28948e-06
-2.42778e-10
4.29452e-06
3.44402e-07
4.32684e-06
4.44765e-07
4.33896e-06
3.93291e-07
4.3583e-06
1.7021e-07
4.33539e-06
-3.11793e-07
4.33859e-06
-1.80519e-07
4.31543e-06
-3.82977e-07
4.30224e-06
-4.389e-07
4.29225e-06
-2.81831e-07
4.26861e-06
-3.44941e-07
4.26187e-06
-2.8848e-07
4.24558e-06
-1.70954e-07
4.23516e-06
-8.50766e-08
4.2433e-06
8.09511e-09
9.08027e-08
4.25081e-06
4.52129e-06
4.27973e-08
4.54063e-06
2.20745e-07
4.53295e-06
-2.11745e-07
4.49108e-06
-8.94871e-07
4.49554e-06
-4.69927e-09
4.50168e-06
3.38257e-07
4.53348e-06
4.1297e-07
4.54633e-06
3.80436e-07
4.56369e-06
1.52854e-07
4.54274e-06
-2.90842e-07
4.54397e-06
-1.8175e-07
4.52195e-06
-3.60958e-07
4.50771e-06
-4.24659e-07
4.49841e-06
-2.72537e-07
4.47438e-06
-3.20904e-07
4.46645e-06
-2.80553e-07
4.45288e-06
-1.57383e-07
4.44181e-06
-7.40109e-08
4.44789e-06
2.01667e-09
8.14104e-08
4.45728e-06
4.73822e-06
4.66935e-08
4.75811e-06
2.00855e-07
4.74971e-06
-2.03346e-07
4.70525e-06
-8.5041e-07
4.71106e-06
-1.05056e-08
4.71858e-06
3.30733e-07
4.74969e-06
3.81863e-07
4.76381e-06
3.66319e-07
4.77899e-06
1.37666e-07
4.75995e-06
-2.71799e-07
4.75951e-06
-1.81306e-07
4.7383e-06
-3.39754e-07
4.72314e-06
-4.09493e-07
4.71433e-06
-2.63727e-07
4.69021e-06
-2.96788e-07
4.68076e-06
-2.71099e-07
4.66981e-06
-1.4644e-07
4.65883e-06
-6.30279e-08
4.66246e-06
-1.60785e-09
7.08325e-08
4.67303e-06
4.96542e-06
5.00734e-08
4.98579e-06
1.80483e-07
4.97708e-06
-1.94639e-07
4.93008e-06
-8.03407e-07
4.93666e-06
-1.70816e-08
4.94567e-06
3.21717e-07
4.97583e-06
3.51699e-07
4.99165e-06
3.50507e-07
5.00473e-06
1.24587e-07
4.98736e-06
-2.54429e-07
4.98561e-06
-1.79559e-07
4.96495e-06
-3.19094e-07
4.94894e-06
-3.93485e-07
4.94046e-06
-2.55249e-07
4.91658e-06
-2.72905e-07
4.90542e-06
-2.59943e-07
4.89676e-06
-1.37776e-07
4.88651e-06
-5.27809e-08
4.88764e-06
-2.74e-09
6.00455e-08
4.89843e-06
5.20336e-06
5.30265e-08
5.22399e-06
1.59854e-07
5.21544e-06
-1.86091e-07
5.16624e-06
-7.54201e-07
5.17303e-06
-2.38709e-08
5.18351e-06
3.11237e-07
5.21238e-06
3.22829e-07
5.23012e-06
3.32761e-07
5.24134e-06
1.1337e-07
5.22535e-06
-2.38434e-07
5.22262e-06
-1.76831e-07
5.20239e-06
-2.98863e-07
5.18557e-06
-3.76664e-07
5.17729e-06
-2.46978e-07
5.15397e-06
-2.49581e-07
5.1411e-06
-2.47075e-07
5.13417e-06
-1.30847e-07
5.12516e-06
-4.37711e-08
5.12412e-06
-1.69999e-09
5.01181e-08
5.13405e-06
5.45259e-06
5.56229e-08
5.47313e-06
1.39315e-07
5.46518e-06
-1.78135e-07
5.41435e-06
-7.0338e-07
5.42086e-06
-3.03756e-08
5.43273e-06
2.99365e-07
5.45992e-06
2.95637e-07
5.47953e-06
3.1315e-07
5.4893e-06
1.03601e-07
5.47438e-06
-2.2351e-07
5.47092e-06
-1.73371e-07
5.45112e-06
-2.79069e-07
5.43348e-06
-3.59017e-07
5.42535e-06
-2.38852e-07
5.40288e-06
-2.27111e-07
5.38844e-06
-2.32637e-07
5.38264e-06
-1.25043e-07
5.3751e-06
-3.62355e-08
5.37258e-06
8.21761e-10
4.20214e-08
5.38068e-06
5.71369e-06
5.78937e-08
5.73372e-06
1.19282e-07
5.72668e-06
-1.71097e-07
5.67499e-06
-6.51689e-07
5.68081e-06
-3.61912e-08
5.694e-06
2.8617e-07
5.71923e-06
2.70414e-07
5.74029e-06
2.92083e-07
5.74907e-06
9.48211e-08
5.735e-06
-2.09435e-07
5.73094e-06
-1.69318e-07
5.71169e-06
-2.59815e-07
5.69323e-06
-3.40553e-07
5.68518e-06
-2.30802e-07
5.66382e-06
-2.05754e-07
5.64806e-06
-2.16879e-07
5.64283e-06
-1.19807e-07
5.6368e-06
-3.02051e-08
5.63359e-06
4.02373e-09
3.62633e-08
5.63935e-06
5.98726e-06
5.98257e-08
6.00635e-06
1.00188e-07
6.00042e-06
-1.65162e-07
5.94868e-06
-5.99947e-07
5.95348e-06
-4.09948e-08
5.96796e-06
2.71693e-07
5.99107e-06
2.47302e-07
6.01296e-06
2.70196e-07
6.02117e-06
8.6613e-08
6.00781e-06
-1.96079e-07
6.00324e-06
-1.64747e-07
5.98461e-06
-2.4118e-07
5.96542e-06
-3.21372e-07
5.95736e-06
-2.22733e-07
5.93733e-06
-1.85731e-07
5.92049e-06
-2.00033e-07
5.91549e-06
-1.14808e-07
5.91081e-06
-2.55262e-08
5.90754e-06
7.29705e-09
3.27507e-08
5.91105e-06
6.27395e-06
6.13671e-08
6.2917e-06
8.24377e-08
6.28691e-06
-1.60373e-07
6.23595e-06
-5.48992e-07
6.23945e-06
-4.44911e-08
6.25521e-06
2.55935e-07
6.27623e-06
2.26283e-07
6.29823e-06
2.48195e-07
6.30615e-06
7.86903e-08
6.29349e-06
-1.83417e-07
6.28843e-06
-1.59692e-07
6.27046e-06
-2.2321e-07
6.25071e-06
-3.01623e-07
6.24251e-06
-2.14528e-07
6.22398e-06
-1.67206e-07
6.20632e-06
-1.82366e-07
6.20127e-06
-1.09758e-07
6.19778e-06
-2.20355e-08
6.19479e-06
1.02858e-08
3.08906e-08
6.19665e-06
6.57439e-06
6.24473e-08
6.59046e-06
6.63681e-08
6.58674e-06
-1.56654e-07
6.53737e-06
-4.99625e-07
6.53928e-06
-4.6396e-08
6.55628e-06
2.38934e-07
6.57538e-06
2.07179e-07
6.59686e-06
2.26716e-07
6.60464e-06
7.09117e-08
6.59269e-06
-1.71465e-07
6.58718e-06
-1.54185e-07
6.56994e-06
-2.05968e-07
6.54977e-06
-2.81457e-07
6.5413e-06
-2.06056e-07
6.52439e-06
-1.50294e-07
6.5062e-06
-1.64182e-07
6.50082e-06
-1.04378e-07
6.49836e-06
-1.95765e-08
6.49571e-06
1.29433e-08
2.98726e-08
6.49672e-06
6.88924e-06
6.29939e-08
6.90339e-06
5.22207e-08
6.90058e-06
-1.53839e-07
6.85353e-06
-4.5258e-07
6.85357e-06
-4.64314e-08
6.87169e-06
2.20817e-07
6.88916e-06
1.89703e-07
6.90966e-06
2.06215e-07
6.91727e-06
6.3307e-08
6.90611e-06
-1.60308e-07
6.90021e-06
-1.48289e-07
6.8837e-06
-1.89457e-07
6.86331e-06
-2.61059e-07
6.85441e-06
-1.97164e-07
6.83916e-06
-1.35041e-07
6.82076e-06
-1.45779e-07
6.81474e-06
-9.83601e-08
6.81329e-06
-1.81279e-08
6.81092e-06
1.53143e-08
2.91965e-08
6.81159e-06
7.21919e-06
6.29449e-08
7.23126e-06
4.0146e-08
7.22915e-06
-1.51728e-07
7.18509e-06
-4.08519e-07
7.18306e-06
-4.4405e-08
7.20199e-06
2.01884e-07
7.21818e-06
1.73521e-07
7.23745e-06
1.86936e-07
7.24473e-06
5.6028e-08
7.23439e-06
-1.49961e-07
7.22827e-06
-1.42171e-07
7.21257e-06
-1.73753e-07
7.19215e-06
-2.4064e-07
7.18269e-06
-1.87707e-07
7.16895e-06
-1.213e-07
7.15067e-06
-1.27502e-07
7.14355e-06
-9.12357e-08
7.14299e-06
-1.75746e-08
7.14115e-06
1.71619e-08
2.88155e-08
7.14153e-06
7.56491e-06
6.22635e-08
7.57486e-06
3.01888e-08
7.57322e-06
-1.5008e-07
7.53267e-06
-3.67977e-07
7.52858e-06
-4.03099e-08
7.54784e-06
1.82619e-07
7.56309e-06
1.58275e-07
7.58104e-06
1.68989e-07
7.58783e-06
4.92329e-08
7.57824e-06
-1.40372e-07
7.572e-06
-1.3593e-07
7.55718e-06
-1.58934e-07
7.53715e-06
-2.20607e-07
7.52723e-06
-1.7779e-07
7.51468e-06
-1.08746e-07
7.49671e-06
-1.09532e-07
7.48802e-06
-8.25468e-08
7.48777e-06
-1.73278e-08
7.48678e-06
1.81563e-08
2.86238e-08
7.48697e-06
7.92713e-06
6.09438e-08
7.93499e-06
2.23256e-08
7.93359e-06
-1.48675e-07
7.89684e-06
-3.31229e-07
7.89095e-06
-3.44173e-08
7.90992e-06
1.6365e-07
7.92469e-06
1.43501e-07
7.94117e-06
1.52511e-07
7.94734e-06
4.30624e-08
7.93836e-06
-1.31394e-07
7.93224e-06
-1.29806e-07
7.91823e-06
-1.44922e-07
7.899e-06
-2.01381e-07
7.88949e-06
-1.68282e-07
7.87843e-06
-9.76812e-08
7.85983e-06
-9.09346e-08
7.84886e-06
-7.15752e-08
7.84803e-06
-1.64992e-08
7.84727e-06
1.89149e-08
2.70162e-08
7.84888e-06
8.3066e-06
5.90207e-08
8.31252e-06
1.64096e-08
8.31107e-06
-1.47224e-07
8.27822e-06
-2.98378e-07
8.27101e-06
-2.72143e-08
8.28903e-06
1.45635e-07
8.30365e-06
1.28883e-07
8.31866e-06
1.37497e-07
8.3241e-06
3.76206e-08
8.31561e-06
-1.22898e-07
8.30958e-06
-1.23784e-07
8.29636e-06
-1.31703e-07
8.27769e-06
-1.82703e-07
8.26921e-06
-1.59802e-07
8.26357e-06
-9.20392e-08
8.25313e-06
-8.04949e-08
8.2505e-06
-6.89488e-08
8.25461e-06
-2.06074e-08
8.25606e-06
1.74575e-08
3.1583e-08
8.2515e-06
8.70412e-06
5.65636e-08
8.70835e-06
1.21811e-08
8.70652e-06
-1.45392e-07
8.67755e-06
-2.69411e-07
8.6696e-06
-1.92651e-08
8.68605e-06
1.29185e-07
8.70063e-06
1.14298e-07
8.71429e-06
1.23844e-07
8.71891e-06
3.29942e-08
8.71094e-06
-1.14928e-07
8.70522e-06
-1.18058e-07
8.69267e-06
-1.19157e-07
8.67545e-06
-1.65479e-07
8.66854e-06
-1.5289e-07
8.66508e-06
-8.85865e-08
8.65476e-06
-7.0167e-08
8.64936e-06
-6.35491e-08
8.65237e-06
-2.36211e-08
8.65351e-06
1.63145e-08
3.40467e-08
8.65105e-06
9.1205e-06
5.36831e-08
9.12351e-06
9.17329e-09
9.12075e-06
-1.42633e-07
9.09561e-06
-2.44277e-07
9.0875e-06
-1.11535e-08
9.1021e-06
1.14587e-07
9.11629e-06
1.00105e-07
9.1291e-06
1.11034e-07
9.13256e-06
2.95357e-08
9.12512e-06
-1.07489e-07
9.12002e-06
-1.12952e-07
9.10863e-06
-1.07772e-07
9.09148e-06
-1.48324e-07
9.08425e-06
-1.45663e-07
9.08263e-06
-8.69621e-08
9.07507e-06
-6.26145e-08
9.06956e-06
-5.80319e-08
9.0715e-06
-2.55615e-08
9.07307e-06
1.47438e-08
3.77178e-08
9.0694e-06
9.55661e-06
5.05296e-08
9.55894e-06
6.84705e-09
9.55472e-06
-1.38414e-07
9.53327e-06
-2.22821e-07
9.52559e-06
-3.48248e-09
9.53813e-06
1.02056e-07
9.5516e-06
8.66352e-08
9.56386e-06
9.8773e-08
9.5662e-06
2.71956e-08
9.55894e-06
-1.00236e-07
9.55454e-06
-1.08553e-07
9.54561e-06
-9.88348e-08
9.52983e-06
-1.32545e-07
9.5181e-06
-1.33937e-07
9.50995e-06
-7.88079e-08
9.49491e-06
-4.7571e-08
9.48038e-06
-4.3504e-08
9.47492e-06
-2.0104e-08
9.47661e-06
1.30563e-08
3.22852e-08
9.48204e-06
1.00134e-05
4.72406e-08
1.00155e-05
4.73885e-09
1.00095e-05
-1.32345e-07
9.99126e-06
-2.04615e-07
9.98481e-06
2.96442e-09
9.99511e-06
9.17586e-08
1.00077e-05
7.40275e-08
1.00194e-05
8.70711e-08
1.00209e-05
2.56772e-08
1.00132e-05
-9.25081e-08
1.00093e-05
-1.04687e-07
9.99968e-06
-8.91752e-08
9.98357e-06
-1.16435e-07
9.97768e-06
-1.28043e-07
9.98023e-06
-8.13648e-08
9.97826e-06
-4.5593e-08
9.97266e-06
-3.79096e-08
9.97229e-06
-1.97283e-08
9.97254e-06
1.28049e-08
3.67219e-08
9.9681e-06
1.04919e-05
4.40042e-08
1.04942e-05
2.38622e-09
1.0486e-05
-1.24106e-07
1.04708e-05
-1.89389e-07
1.04658e-05
7.95422e-09
1.04744e-05
8.31699e-08
1.04853e-05
6.30923e-08
1.04967e-05
7.56247e-08
1.04975e-05
2.49077e-08
1.04892e-05
-8.4223e-08
1.04855e-05
-1.00929e-07
1.0478e-05
-8.16892e-08
1.04624e-05
-1.00879e-07
1.04481e-05
-1.1373e-07
1.04414e-05
-7.46275e-08
1.04323e-05
-3.6531e-08
1.04207e-05
-2.625e-08
1.04149e-05
-1.39788e-08
1.04156e-05
1.2113e-08
3.27681e-08
1.04196e-05
1.09931e-05
4.09329e-08
1.09959e-05
-4.5794e-10
1.09857e-05
-1.13885e-07
1.09726e-05
-1.76294e-07
1.09696e-05
1.10012e-08
1.09767e-05
7.6032e-08
1.09858e-05
5.39561e-08
1.09968e-05
6.46679e-08
1.09971e-05
2.46577e-08
1.09879e-05
-7.50222e-08
1.0983e-05
-9.60648e-08
1.09759e-05
-7.4608e-08
1.09597e-05
-8.46642e-08
1.0945e-05
-9.90569e-08
1.09394e-05
-6.89945e-08
1.09342e-05
-3.13683e-08
1.09252e-05
-1.72215e-08
1.09196e-05
-8.38509e-09
1.09206e-05
1.11437e-08
3.04429e-08
1.09229e-05
1.15182e-05
3.81108e-08
1.15216e-05
-3.83621e-09
1.151e-05
-1.02329e-07
1.1498e-05
-1.64297e-07
1.14971e-05
1.18816e-08
1.15032e-05
6.99814e-08
1.15106e-05
4.65569e-08
1.15205e-05
5.47787e-08
1.15207e-05
2.43829e-08
1.15106e-05
-6.48511e-08
1.1504e-05
-8.95106e-08
1.14977e-05
-6.83245e-08
1.14837e-05
-7.06371e-08
1.14689e-05
-8.42974e-08
1.14623e-05
-6.23835e-08
1.14591e-05
-2.81084e-08
1.14528e-05
-1.09943e-08
1.14476e-05
-3.16277e-09
1.14484e-05
1.0323e-08
2.85241e-08
1.14504e-05
1.20683e-05
3.56117e-08
1.20723e-05
-7.84518e-09
1.20599e-05
-8.99269e-08
1.20484e-05
-1.52747e-07
1.20492e-05
1.10449e-08
1.2055e-05
6.41542e-08
1.20605e-05
4.10719e-08
1.20694e-05
4.59222e-08
1.20695e-05
2.4217e-08
1.2059e-05
-5.4307e-08
1.20511e-05
-8.16334e-08
1.20457e-05
-6.28607e-08
1.20338e-05
-5.87604e-08
1.20197e-05
-7.02388e-08
1.20125e-05
-5.51138e-08
1.20096e-05
-2.52752e-08
1.20054e-05
-6.76893e-09
1.20005e-05
1.74476e-09
1.20003e-05
1.0528e-08
2.63844e-08
1.20024e-05
1.26448e-05
3.34179e-08
1.26492e-05
-1.22614e-08
1.26367e-05
-7.74534e-08
1.26251e-05
-1.4107e-07
1.26271e-05
8.9961e-09
1.26332e-05
5.80951e-08
1.26371e-05
3.71246e-08
1.26446e-05
3.84462e-08
1.26448e-05
2.39704e-08
1.26346e-05
-4.40446e-08
1.26257e-05
-7.27674e-08
1.26205e-05
-5.76102e-08
1.26106e-05
-4.88884e-08
1.25976e-05
-5.72183e-08
1.25896e-05
-4.71731e-08
1.25864e-05
-2.20924e-08
1.25839e-05
-4.26543e-09
1.25802e-05
5.46409e-09
1.25789e-05
1.18762e-08
2.42347e-08
1.2581e-05
1.32488e-05
3.15058e-08
1.32535e-05
-1.68753e-08
1.32415e-05
-6.54661e-08
1.32295e-05
-1.29078e-07
1.32321e-05
6.4022e-09
1.32386e-05
5.1568e-08
1.32416e-05
3.41662e-08
1.32477e-05
3.23363e-08
1.32479e-05
2.37372e-08
1.32381e-05
-3.42289e-08
1.32286e-05
-6.32668e-08
1.32231e-05
-5.2138e-08
1.32149e-05
-4.06466e-08
1.32031e-05
-4.54822e-08
1.31952e-05
-3.92788e-08
1.31919e-05
-1.87059e-08
1.31897e-05
-2.08695e-09
1.3187e-05
8.12556e-09
1.31853e-05
1.36128e-08
2.27096e-08
1.31868e-05
1.38818e-05
2.98222e-08
1.38864e-05
-2.13971e-08
1.38753e-05
-5.4425e-08
1.38631e-05
-1.16854e-07
1.38656e-05
3.89452e-09
1.38726e-05
4.46236e-08
1.38751e-05
3.16563e-08
1.38799e-05
2.7537e-08
1.388e-05
2.36159e-08
1.38708e-05
-2.5058e-08
1.3861e-05
-5.34958e-08
1.38552e-05
-4.62551e-08
1.38481e-05
-3.36282e-08
1.38378e-05
-3.5153e-08
1.383e-05
-3.14251e-08
1.38263e-05
-1.50185e-08
1.38244e-05
-1.83175e-10
1.38226e-05
9.93024e-09
1.38213e-05
1.4899e-08
2.19586e-08
1.3822e-05
1.45452e-05
2.83174e-08
1.45494e-05
-2.55875e-08
1.45395e-05
-4.45475e-08
1.45274e-05
-1.04741e-07
1.45292e-05
2.02005e-09
1.45363e-05
3.75383e-08
1.45388e-05
2.91634e-08
1.45426e-05
2.37743e-08
1.45425e-05
2.37402e-08
1.45339e-05
-1.65289e-08
1.45242e-05
-4.37259e-08
1.4518e-05
-4.00465e-08
1.45117e-05
-2.74152e-08
1.45027e-05
-2.61628e-08
1.44952e-05
-2.3854e-08
1.44914e-05
-1.12751e-08
1.44899e-05
1.39178e-09
1.44883e-05
1.15006e-08
1.44874e-05
1.58317e-08
2.18323e-08
1.44875e-05
1.52403e-05
2.69418e-08
1.52439e-05
-2.92697e-08
1.52352e-05
-3.58401e-08
1.52236e-05
-9.31282e-08
1.52245e-05
1.12664e-09
1.52313e-05
3.07388e-08
1.52339e-05
2.65597e-08
1.52371e-05
2.06161e-08
1.52367e-05
2.41362e-08
1.52288e-05
-8.64838e-09
1.52193e-05
-3.42355e-08
1.52129e-05
-3.36691e-08
1.52073e-05
-2.17634e-08
1.51995e-05
-1.83372e-08
1.51924e-05
-1.67982e-08
1.51884e-05
-7.22864e-09
1.51869e-05
2.87038e-09
1.51858e-05
1.25985e-08
1.5185e-05
1.66206e-08
2.1601e-08
1.51852e-05
1.59686e-05
2.56567e-08
1.59717e-05
-3.23584e-08
1.5964e-05
-2.81552e-08
1.59531e-05
-8.22238e-08
1.59529e-05
1.29573e-09
1.5959e-05
2.47008e-08
1.59617e-05
2.38487e-08
1.59645e-05
1.77896e-08
1.5964e-05
2.4624e-08
1.59569e-05
-1.47043e-09
1.59478e-05
-2.51697e-08
1.59414e-05
-2.73167e-08
1.59363e-05
-1.66201e-08
1.59294e-05
-1.14194e-08
1.5923e-05
-1.04164e-08
1.59188e-05
-2.9844e-09
1.59172e-05
4.37379e-09
1.59168e-05
1.30654e-08
1.59161e-05
1.72625e-08
2.15466e-08
1.59162e-05
1.67318e-05
2.44361e-08
1.67343e-05
-3.48288e-08
1.67274e-05
-2.12649e-08
1.67173e-05
-7.21249e-08
1.67161e-05
2.45323e-09
1.6721e-05
1.989e-08
1.67235e-05
2.13126e-08
1.67261e-05
1.51614e-08
1.6726e-05
2.47194e-08
1.67197e-05
4.87908e-09
1.67111e-05
-1.65818e-08
1.67049e-05
-2.11405e-08
1.67004e-05
-1.20679e-08
1.66943e-05
-5.3385e-09
1.66884e-05
-4.55333e-09
1.66844e-05
1.03639e-09
1.66825e-05
6.24921e-09
1.66822e-05
1.33971e-08
1.66821e-05
1.7304e-08
2.18124e-08
1.66819e-05
1.75315e-05
2.3266e-08
1.75333e-05
-3.66314e-08
1.75271e-05
-1.49836e-08
1.75178e-05
-6.283e-08
1.75158e-05
4.38833e-09
1.75192e-05
1.64835e-08
1.75211e-05
1.94388e-08
1.75235e-05
1.27498e-08
1.7524e-05
2.42201e-08
1.75188e-05
1.00862e-08
1.75108e-05
-8.60509e-09
1.75048e-05
-1.51611e-08
1.75009e-05
-8.13539e-09
1.74958e-05
-2.33376e-10
1.74904e-05
8.73817e-10
1.74866e-05
4.81555e-09
1.74846e-05
8.26817e-09
1.7484e-05
1.39393e-08
1.74847e-05
1.66668e-08
2.19395e-08
1.74846e-05
1.83695e-05
2.21467e-08
1.83705e-05
-3.77118e-08
1.83648e-05
-9.19499e-09
1.83563e-05
-5.43364e-08
1.83538e-05
6.87763e-09
1.83559e-05
1.43802e-08
1.83568e-05
1.85603e-08
1.83587e-05
1.08011e-08
1.83598e-05
2.30898e-08
1.83559e-05
1.4034e-08
1.83488e-05
-1.48156e-09
1.83429e-05
-9.27143e-09
1.83395e-05
-4.75391e-09
1.83356e-05
3.64533e-09