/*--------------------------------*- C++ -*----------------------------------*\
| =========                 |                                                 |
| \\      /  F ield         | OpenFOAM: The Open Source CFD Toolbox           |
|  \\    /   O peration     | Version:  v1912                                 |
|   \\  /    A nd           | Website:  www.openfoam.com                      |
|    \\/     M anipulation  |                                                 |
\*---------------------------------------------------------------------------*/
FoamFile
{
    version     2.0;
    format      ascii;
    class       volVectorField;
    location    "2.75";
    object      U;
}
// * * * * * * * * * * * * * * * * * * * * * * * * * * * * * * * * * * * * * //

dimensions      [0 1 -1 0 0 0 0];


internalField   nonuniform List<vector> 
9600
(
(0.727919 -0.00467371 0)
(1.41245 0.0158075 0)
(0.407294 -0.0281409 0)
(1.29466 0.0134839 0)
(0.90223 0.0212777 0)
(1.25602 0.00580868 0)
(0.64457 -0.00313824 0)
(1.39372 0.00376614 0)
(0.611636 0.0028869 0)
(1.2779 0.0306849 0)
(0.758926 0.0141491 0)
(1.22794 0.0176177 0)
(0.816774 0.00334247 0)
(1.19459 0.0171436 0)
(0.885415 0.0119745 0)
(1.14237 0.0199145 0)
(0.885176 0.011594 0)
(1.12808 0.0100292 0)
(0.87974 -0.000388792 0)
(1.14426 -0.00386841 0)
(0.73312 -0.0060552 0)
(1.4075 0.0184437 0)
(0.464011 -0.0276424 0)
(1.29316 0.0099406 0)
(0.907672 0.0209597 0)
(1.26534 0.0093928 0)
(0.664521 -0.00553713 0)
(1.39424 0.00462731 0)
(0.622542 0.00389321 0)
(1.27057 0.0298576 0)
(0.785564 0.0142952 0)
(1.21256 0.0172848 0)
(0.859321 0.00358711 0)
(1.16837 0.0162819 0)
(0.938649 0.01276 0)
(1.09656 0.0201437 0)
(0.962374 0.012141 0)
(1.05391 0.00992892 0)
(0.990617 -0.000274086 0)
(1.0291 -0.00532122 0)
(0.744241 -0.00707163 0)
(1.39757 0.0207692 0)
(0.540684 -0.0271935 0)
(1.28222 0.00638744 0)
(0.923814 0.0209859 0)
(1.2768 0.0117094 0)
(0.70232 -0.0071414 0)
(1.39159 0.00591257 0)
(0.665607 0.00495485 0)
(1.24228 0.028114 0)
(0.847502 0.0147267 0)
(1.17528 0.0163818 0)
(0.933066 0.00413965 0)
(1.12212 0.0150029 0)
(1.00265 0.0142507 0)
(1.05626 0.0197809 0)
(1.01066 0.0131833 0)
(1.02689 0.00904731 0)
(1.01668 0.000751276 0)
(1.01446 -0.00506387 0)
(0.762154 -0.00814069 0)
(1.3805 0.0222781 0)
(0.635246 -0.0266849 0)
(1.25619 0.00368883 0)
(0.951727 0.0207185 0)
(1.28113 0.0139963 0)
(0.756858 -0.00862 0)
(1.37463 0.0067998 0)
(0.748532 0.00646197 0)
(1.18705 0.0259696 0)
(0.924371 0.0153363 0)
(1.12977 0.0151503 0)
(0.999314 0.00490153 0)
(1.08335 0.0139819 0)
(1.0389 0.0153116 0)
(1.04411 0.0197407 0)
(1.02808 0.0137614 0)
(1.02647 0.00898032 0)
(1.02093 0.00125463 0)
(1.0133 -0.00471556 0)
(0.787524 -0.00928246 0)
(1.35394 0.0232629 0)
(0.736776 -0.0258552 0)
(1.21351 0.00144948 0)
(0.988722 0.0201007 0)
(1.27174 0.0161375 0)
(0.825291 -0.00980247 0)
(1.33505 0.00701304 0)
(0.853869 0.00878683 0)
(1.12116 0.0238984 0)
(0.988926 0.0157175 0)
(1.09592 0.0140762 0)
(1.03883 0.00558032 0)
(1.06336 0.0134706 0)
(1.05104 0.0158735 0)
(1.04578 0.0199858 0)
(1.03775 0.0143881 0)
(1.0309 0.00908161 0)
(1.02455 0.00207412 0)
(1.01219 -0.00418422 0)
(0.81972 -0.0104253 0)
(1.31646 0.0237254 0)
(0.831205 -0.0247019 0)
(1.15822 -0.000491325 0)
(1.02825 0.019158 0)
(1.24666 0.0179377 0)
(0.897726 -0.0104752 0)
(1.27311 0.00662165 0)
(0.948938 0.0115516 0)
(1.07255 0.0223862 0)
(1.03169 0.0156436 0)
(1.08036 0.0133987 0)
(1.05584 0.00613903 0)
(1.05586 0.0134022 0)
(1.05318 0.0161947 0)
(1.04976 0.0201945 0)
(1.04596 0.0149975 0)
(1.0369 0.0093997 0)
(1.02803 0.0030434 0)
(1.01267 -0.00326152 0)
(0.856148 -0.0115221 0)
(1.26876 0.0236654 0)
(0.907106 -0.0232778 0)
(1.10002 -0.00212716 0)
(1.06094 0.0179749 0)
(1.20936 0.0193415 0)
(0.960096 -0.0105258 0)
(1.19862 0.00592433 0)
(1.01086 0.0140418 0)
(1.05417 0.0215841 0)
(1.05732 0.0152621 0)
(1.07624 0.0131312 0)
(1.0597 0.00671778 0)
(1.05219 0.0135372 0)
(1.05231 0.0163467 0)
(1.05266 0.0201898 0)
(1.05183 0.0155331 0)
(1.04236 0.00990028 0)
(1.0307 0.00418334 0)
(1.01387 -0.00194915 0)
(0.892604 -0.0125086 0)
(1.21407 0.023228 0)
(0.96004 -0.0216956 0)
(1.0501 -0.00353211 0)
(1.07839 0.0166661 0)
(1.16668 0.0203654 0)
(1.00253 -0.00999456 0)
(1.12573 0.0052348 0)
(1.03688 0.0156728 0)
(1.05628 0.0211515 0)
(1.07114 0.0148727 0)
(1.07368 0.013234 0)
(1.05584 0.00738946 0)
(1.04741 0.0136709 0)
(1.04924 0.0163288 0)
(1.05267 0.0199822 0)
(1.05363 0.0160012 0)
(1.04465 0.0105211 0)
(1.03146 0.0054424 0)
(1.01455 -0.000395702 0)
(0.924736 -0.0133174 0)
(1.1576 0.0225996 0)
(0.992284 -0.020116 0)
(1.01523 -0.00471473 0)
(1.07743 0.0153573 0)
(1.12512 0.0210491 0)
(1.0237 -0.00903469 0)
(1.06656 0.00473525 0)
(1.03796 0.0162191 0)
(1.06145 0.0206715 0)
(1.07438 0.0146725 0)
(1.06693 0.0136419 0)
(1.04705 0.00813009 0)
(1.03994 0.0137189 0)
(1.04311 0.0161813 0)
(1.04835 0.0196456 0)
(1.05028 0.0163988 0)
(1.04249 0.011194 0)
(1.02957 0.00670855 0)
(1.01408 0.00125511 0)
(0.949714 -0.0139026 0)
(1.1055 0.0219164 0)
(1.00938 -0.0186943 0)
(0.99561 -0.00560661 0)
(1.06158 0.0141725 0)
(1.08878 0.0214295 0)
(1.02878 -0.00784011 0)
(1.02685 0.00444326 0)
(1.02785 0.0158774 0)
(1.05892 0.0200215 0)
(1.06749 0.0146859 0)
(1.05536 0.0142238 0)
(1.03607 0.00887974 0)
(1.0306 0.013692 0)
(1.0342 0.0159677 0)
(1.03983 0.0192523 0)
(1.04238 0.0167097 0)
(1.03652 0.011828 0)
(1.02549 0.0078512 0)
(1.01254 0.00284035 0)
(0.966989 -0.0142512 0)
(1.06302 0.0212456 0)
(1.01692 -0.0175248 0)
(0.987152 -0.0061544 0)
(1.03882 0.0131894 0)
(1.0596 0.0215296 0)
(1.02497 -0.00660664 0)
(1.00525 0.00428667 0)
(1.0159 0.0151069 0)
(1.04744 0.0193254 0)
(1.05338 0.0148193 0)
(1.04149 0.0148116 0)
(1.02566 0.0095784 0)
(1.02139 0.013633 0)
(1.02432 0.0157627 0)
(1.02918 0.0188531 0)
(1.0322 0.016921 0)
(1.02872 0.0123413 0)
(1.0205 0.00877741 0)
(1.01055 0.00420589 0)
(0.977857 -0.014386 0)
(1.03271 0.0206044 0)
(1.01901 -0.0166197 0)
(0.985023 -0.00638397 0)
(1.01735 0.0124205 0)
(1.03816 0.0213839 0)
(1.0183 -0.00547253 0)
(0.996126 0.00419362 0)
(1.00594 0.0143349 0)
(1.03144 0.0187265 0)
(1.03706 0.0149425 0)
(1.02857 0.0152581 0)
(1.01767 0.010172 0)
(1.01407 0.013585 0)
(1.01564 0.0156242 0)
(1.01907 0.0184851 0)
(1.0224 0.0170192 0)
(1.02122 0.012694 0)
(1.01591 0.00945041 0)
(1.00879 0.00530695 0)
(0.984381 -0.0143578 0)
(1.01384 0.0199917 0)
(1.0182 -0.0159326 0)
(0.985627 -0.00637621 0)
(1.00208 0.0118387 0)
(1.02389 0.0210485 0)
(1.01223 -0.00448447 0)
(0.993374 0.00413064 0)
(0.99875 0.0137783 0)
(1.01637 0.0182691 0)
(1.02319 0.0149612 0)
(1.01888 0.0154833 0)
(1.01264 0.0106416 0)
(1.00939 0.0135771 0)
(1.00951 0.0155757 0)
(1.01142 0.0181644 0)
(1.01488 0.0170127 0)
(1.01547 0.0128887 0)
(1.01258 0.00989316 0)
(1.00768 0.00615961 0)
(0.988415 -0.014223 0)
(1.00342 0.0194074 0)
(1.01594 -0.0153927 0)
(0.986953 -0.00623261 0)
(0.993817 0.0113975 0)
(1.01524 0.0205948 0)
(1.00791 -0.00362254 0)
(0.992922 0.00408596 0)
(0.99416 0.0134538 0)
(1.00566 0.0179186 0)
(1.01414 0.0148443 0)
(1.01306 0.0155002 0)
(1.01016 0.0110075 0)
(1.00711 0.0136159 0)
(1.00615 0.0156088 0)
(1.00685 0.0178958 0)
(1.01028 0.0169324 0)
(1.01192 0.0129494 0)
(1.01067 0.0101591 0)
(1.0073 0.00681289 0)
(0.991133 -0.0140267 0)
(0.998128 0.0188538 0)
(1.01315 -0.0149337 0)
(0.988149 -0.00605065 0)
(0.99071 0.0110507 0)
(1.01029 0.0200877 0)
(1.00522 -0.00284077 0)
(0.992992 0.00405016 0)
(0.99181 0.0132796 0)
(0.999928 0.0176165 0)
(1.00979 0.0146146 0)
(1.0104 0.0153787 0)
(1.00935 0.0113061 0)
(1.0065 0.0136893 0)
(1.00503 0.0156975 0)
(1.00496 0.0176754 0)
(1.00828 0.0168083 0)
(1.01032 0.0129241 0)
(1.00995 0.0103061 0)
(1.00745 0.00733367 0)
(0.993067 -0.0137976 0)
(0.9955 0.0183323 0)
(1.01048 -0.0145113 0)
(0.988961 -0.0058798 0)
(0.990309 0.0107666 0)
(1.00738 0.0195681 0)
(1.00371 -0.00210313 0)
(0.993182 0.00401078 0)
(0.991193 0.0131642 0)
(0.997942 0.0173233 0)
(1.00855 0.0143172 0)
(1.00964 0.0151913 0)
(1.00935 0.0115669 0)
(1.00676 0.0137793 0)
(1.00533 0.015812 0)
(1.00491 0.0174825 0)
(1.0081 0.0166691 0)
(1.01009 0.0128689 0)
(1.01004 0.0103902 0)
(1.00791 0.00778088 0)
(0.994411 -0.0135501 0)
(0.994233 0.0178371 0)
(1.00834 -0.0140981 0)
(0.989383 -0.00573722 0)
(0.990824 0.0105228 0)
(1.00547 0.0190497 0)
(1.00302 -0.00138988 0)
(0.993524 0.00395985 0)
(0.991664 0.0130503 0)
(0.997978 0.0170265 0)
(1.00869 0.0139926 0)
(1.00956 0.0149871 0)
(1.00948 0.0118066 0)
(1.00726 0.0138626 0)
(1.00626 0.0159224 0)
(1.00581 0.0172966 0)
(1.00891 0.0165358 0)
(1.01065 0.0128227 0)
(1.01057 0.0104448 0)
(1.00849 0.00818582 0)
(0.995291 -0.0132908 0)
(0.993732 0.0173559 0)
(1.00685 -0.013677 0)
(0.989495 -0.0056255 0)
(0.991379 0.0103035 0)
(1.00402 0.0185276 0)
(1.00288 -0.000696312 0)
(0.994042 0.00389727 0)
(0.992632 0.0129139 0)
(0.998731 0.0167319 0)
(1.00907 0.0136667 0)
(1.00942 0.0147908 0)
(1.00936 0.012032 0)
(1.00761 0.0139179 0)
(1.00725 0.0160044 0)
(1.00697 0.0171042 0)
(1.01006 0.0164125 0)
(1.01153 0.012804 0)
(1.01131 0.0104868 0)
(1.00912 0.00856968 0)
(0.995837 -0.0130227 0)
(0.993676 0.0168759 0)
(1.00594 -0.0132383 0)
(0.989418 -0.00553507 0)
(0.991711 0.010098 0)
(1.00283 0.0179916 0)
(1.00302 -2.52419e-05 0)
(0.99469 0.00382721 0)
(0.993752 0.0127497 0)
(0.999532 0.0164546 0)
(1.00918 0.0133552 0)
(1.00893 0.0146115 0)
(1.00882 0.0122417 0)
(1.00764 0.0139326 0)
(1.00798 0.0160477 0)
(1.00802 0.0168936 0)
(1.01119 0.0162849 0)
(1.01247 0.0128208 0)
(1.0121 0.0105277 0)
(1.00976 0.00894175 0)
(0.996144 -0.0127466 0)
(0.993841 0.0163864 0)
(1.00547 -0.0127759 0)
(0.989267 -0.0054553 0)
(0.991821 0.00989978 0)
(1.00184 0.0174355 0)
(1.0032 0.000618439 0)
(0.995396 0.00375323 0)
(0.994913 0.0125593 0)
(1.00017 0.0162094 0)
(1.00892 0.0130732 0)
(1.00811 0.014448 0)
(1.00791 0.0124344 0)
(1.00738 0.0138958 0)
(1.0084 0.0160512 0)
(1.00882 0.0166552 0)
(1.01213 0.0161321 0)
(1.01332 0.0128727 0)
(1.01284 0.0105762 0)
(1.01038 0.00929756 0)
(0.996258 -0.0124622 0)
(0.994098 0.0158797 0)
(1.00531 -0.0122863 0)
(0.989133 -0.00537654 0)
(0.991779 0.00970523 0)
(1.00104 0.0168582 0)
(1.00332 0.00123213 0)
(0.996086 0.00367462 0)
(0.996067 0.0123475 0)
(1.00062 0.0160106 0)
(1.00837 0.0128279 0)
(1.00714 0.0142997 0)
(1.00677 0.012609 0)
(1.00696 0.0137996 0)
(1.00854 0.0160036 0)
(1.00939 0.0163928 0)
(1.01283 0.0159391 0)
(1.01398 0.0129558 0)
(1.01342 0.0106375 0)
(1.01093 0.00962091 0)
(0.99622 -0.0121684 0)
(0.994392 0.0153493 0)
(1.00534 -0.0117683 0)
(0.989081 -0.00528985 0)
(0.991663 0.00951003 0)
(1.00047 0.0162625 0)
(1.00335 0.00181782 0)
(0.996696 0.00359074 0)
(0.997107 0.0121139 0)
(1.00092 0.0158722 0)
(1.00766 0.0126206 0)
(1.00622 0.0141624 0)
(1.00557 0.0127674 0)
(1.00651 0.0136397 0)
(1.00849 0.0158991 0)
(1.00974 0.0161191 0)
(1.01325 0.0156933 0)
(1.01441 0.0130612 0)
(1.01379 0.010721 0)
(1.01136 0.00989898 0)
(0.996099 -0.0118636 0)
(0.994698 0.01479 0)
(1.00542 -0.0112233 0)
(0.989159 -0.00519113 0)
(0.99155 0.00931067 0)
(1.00014 0.0156515 0)
(1.00335 0.0023755 0)
(0.997201 0.00350865 0)
(0.9979 0.0118591 0)
(1.00107 0.0157906 0)
(1.00694 0.0124499 0)
(1.00549 0.014028 0)
(1.0045 0.0129152 0)
(1.00615 0.0134242 0)
(1.00832 0.0157362 0)
(1.00988 0.0158464 0)
(1.01337 0.0153931 0)
(1.01457 0.0131747 0)
(1.01392 0.0108406 0)
(1.01165 0.0101247 0)
(0.99597 -0.0115474 0)
(0.994991 0.0142019 0)
(1.00542 -0.0106567 0)
(0.989398 -0.00507787 0)
(0.991496 0.00910149 0)
(0.999989 0.0150293 0)
(1.00333 0.0029096 0)
(0.997631 0.0034329 0)
(0.998359 0.0115868 0)
(1.00112 0.0157535 0)
(1.00633 0.0123078 0)
(1.00507 0.013888 0)
(1.00369 0.0130583 0)
(1.00592 0.0131677 0)
(1.00808 0.01552 0)
(1.00985 0.0155914 0)
(1.01323 0.0150511 0)
(1.0145 0.0132706 0)
(1.01384 0.0110032 0)
(1.01183 0.0102943 0)
(0.995881 -0.0112201 0)
(0.995254 0.0135873 0)
(1.00529 -0.0100717 0)
(0.989797 -0.00495192 0)
(0.991529 0.00888021 0)
(0.999944 0.014401 0)
(1.0033 0.00342256 0)
(0.998049 0.00337647 0)
(0.998481 0.011293 0)
(1.0011 0.0157481 0)
(1.00593 0.0121858 0)
(1.00494 0.0137335 0)
(1.00317 0.0132027 0)
(1.00585 0.0128948 0)
(1.00782 0.0152607 0)
(1.00969 0.0153637 0)
(1.0129 0.0146871 0)
(1.01426 0.0133169 0)
(1.01361 0.0112082 0)
(1.01191 0.010417 0)
(0.99585 -0.0108819 0)
(0.99548 0.0129507 0)
(1.00502 -0.00947314 0)
(0.990332 -0.00481552 0)
(0.991642 0.00864735 0)
(0.999927 0.0137732 0)
(1.00323 0.00390816 0)
(0.99852 0.00335696 0)
(0.998332 0.0109779 0)
(1.00103 0.0157476 0)
(1.00575 0.0120777 0)
(1.00504 0.0135593 0)
(1.00294 0.0133533 0)
(1.00589 0.0126304 0)
(1.0076 0.0149617 0)
(1.00947 0.0151652 0)
(1.01244 0.0143269 0)
(1.01392 0.0132884 0)
(1.01327 0.0114469 0)
(1.01191 0.0105279 0)
(0.995876 -0.0105334 0)
(0.995667 0.0122965 0)
(1.00466 -0.00886741 0)
(0.990961 -0.00466958 0)
(0.991817 0.00840287 0)
(0.999892 0.0131509 0)
(1.00313 0.00436307 0)
(0.999079 0.00337895 0)
(0.998017 0.0106508 0)
(1.00089 0.0157287 0)
(1.00574 0.0119791 0)
(1.00529 0.0133617 0)
(1.00295 0.0135083 0)
(1.00602 0.0123961 0)
(1.00746 0.0146268 0)
(1.00923 0.0149937 0)
(1.01194 0.013998 0)
(1.01353 0.0131717 0)
(1.01287 0.0116872 0)
(1.01182 0.0106677 0)
(0.995953 -0.0101764 0)
(0.995818 0.0116306 0)
(1.00425 -0.00825911 0)
(0.991638 -0.00451551 0)
(0.992039 0.00815025 0)
(0.999817 0.0125382 0)
(1.00298 0.00478335 0)
(0.999719 0.00344526 0)
(0.997664 0.0103196 0)
(1.00067 0.0156768 0)
(1.00583 0.0118847 0)
(1.0056 0.0131361 0)
(1.00312 0.013661 0)
(1.00619 0.0122105 0)
(1.00741 0.0142654 0)
(1.009 0.01484 0)
(1.01143 0.0137209 0)
(1.01312 0.0129759 0)
(1.01243 0.0118851 0)
(1.01164 0.0108594 0)
(0.996075 -0.0098099 0)
(0.995931 0.0109547 0)
(1.00383 -0.00765301 0)
(0.992321 -0.0043547 0)
(0.992305 0.00788361 0)
(0.999704 0.0119462 0)
(1.00275 0.00515757 0)
(1.0004 0.00355759 0)
(0.99739 0.00999492 0)
(1.00038 0.0155826 0)
(1.00593 0.01179 0)
(1.00591 0.0128834 0)
(1.00336 0.0138001 0)
(1.00637 0.0120815 0)
(1.00744 0.01389 0)
(1.0088 0.0146931 0)
(1.01093 0.0135054 0)
(1.01272 0.0127267 0)
(1.01199 0.0120042 0)
(1.01137 0.0111081 0)
(0.996235 -0.00943603 0)
(0.99601 0.0102734 0)
(1.00341 -0.00705294 0)
(0.99298 -0.00418705 0)
(0.992618 0.00760548 0)
(0.999564 0.0113741 0)
(1.00245 0.00548341 0)
(1.00106 0.00370908 0)
(0.997278 0.00968216 0)
(1.00004 0.0154441 0)
(1.00599 0.0116939 0)
(1.00617 0.012606 0)
(1.00361 0.0139147 0)
(1.00653 0.0120079 0)
(1.00755 0.0135092 0)
(1.00864 0.0145447 0)
(1.01047 0.0133537 0)
(1.01235 0.012457 0)
(1.0116 0.01202 0)
(1.01105 0.0113831 0)
(0.996421 -0.00905517 0)
(0.996066 0.00959019 0)
(1.00301 -0.00646402 0)
(0.993595 -0.00400728 0)
(0.992974 0.00731832 0)
(0.999416 0.0108294 0)
(1.00208 0.00576209 0)
(1.00163 0.00388553 0)
(0.997354 0.00938903 0)
(0.999716 0.0152659 0)
(1.00599 0.0115965 0)
(1.00639 0.0122999 0)
(1.00381 0.0139992 0)
(1.00664 0.0119914 0)
(1.0077 0.013127 0)
(1.00854 0.0143879 0)
(1.01005 0.0132653 0)
(1.01203 0.0122001 0)
(1.01128 0.0119316 0)
(1.01073 0.011624 0)
(0.996624 -0.00866661 0)
(0.996111 0.00890398 0)
(1.00263 -0.00588467 0)
(0.994158 -0.00382127 0)
(0.993368 0.00701656 0)
(0.999276 0.0103146 0)
(1.00169 0.0059981 0)
(1.00209 0.00407814 0)
(0.997599 0.00911734 0)
(0.999446 0.0150589 0)
(1.00592 0.0115081 0)
(1.00657 0.011972 0)
(1.00395 0.0140468 0)
(1.00666 0.0120323 0)
(1.00787 0.0127427 0)
(1.0085 0.0142066 0)
(1.00967 0.0132344 0)
(1.01176 0.0119841 0)
(1.01106 0.0117624 0)
(1.01045 0.0117758 0)
(0.996832 -0.00827472 0)
(0.996158 0.00822486 0)
(1.00226 -0.00532456 0)
(0.994671 -0.00362333 0)
(0.993787 0.00670212 0)
(0.999156 0.00982437 0)
(1.0013 0.00619659 0)
(1.00242 0.00427449 0)
(0.997966 0.00885721 0)
(0.999261 0.0148282 0)
(1.00578 0.011438 0)
(1.00673 0.0116274 0)
(1.00404 0.014043 0)
(1.0066 0.0121253 0)
(1.00802 0.0123711 0)
(1.0085 0.0139852 0)
(1.00934 0.0132438 0)
(1.0115 0.0118238 0)
(1.01092 0.0115477 0)
(1.01027 0.0118092 0)
(0.997041 -0.00787781 0)
(0.996217 0.00755197 0)
(1.0019 -0.00478334 0)
(0.99514 -0.00341778 0)
(0.994218 0.00638519 0)
(0.999059 0.0093538 0)
(1.00094 0.00636071 0)
(1.00263 0.00447391 0)
(0.998401 0.00860746 0)
(0.999168 0.0145673 0)
(1.00559 0.0113858 0)
(1.00687 0.0112737 0)
(1.0041 0.0139803 0)
(1.00645 0.0122603 0)
(1.00815 0.0120283 0)
(1.00855 0.0137193 0)
(1.00903 0.0132756 0)
(1.01124 0.0117217 0)
(1.01086 0.0113209 0)
(1.01019 0.0117222 0)
(0.997244 -0.00747781 0)
(0.996291 0.00688473 0)
(1.00156 -0.00425431 0)
(0.995572 -0.00321238 0)
(0.994652 0.0060636 0)
(0.998984 0.00890573 0)
(1.00062 0.00649851 0)
(1.00275 0.00467288 0)
(0.998861 0.00836447 0)
(0.999151 0.0142854 0)
(1.00536 0.011357 0)
(1.007 0.0109206 0)
(1.00416 0.0138553 0)
(1.00624 0.0124258 0)
(1.00823 0.011715 0)
(1.00865 0.013398 0)
(1.00877 0.0133192 0)
(1.01097 0.011681 0)
(1.01082 0.0111136 0)
(1.01021 0.0115507 0)
(0.997442 -0.00707753 0)
(0.996382 0.00623229 0)
(1.00122 -0.00375042 0)
(0.99597 -0.00299764 0)
(0.995082 0.00574175 0)
(0.99893 0.00847304 0)
(1.00032 0.00661485 0)
(1.0028 0.00487255 0)
(0.999324 0.0081154 0)
(0.999191 0.0139824 0)
(1.0051 0.0113598 0)
(1.00713 0.0105756 0)
(1.00424 0.0136611 0)
(1.00599 0.0126221 0)
(1.00826 0.0114544 0)
(1.00878 0.0130103 0)
(1.00854 0.0133571 0)
(1.01066 0.0117011 0)
(1.01078 0.0109293 0)
(1.01029 0.0113302 0)
(0.997633 -0.0066771 0)
(0.996488 0.00559548 0)
(1.00088 -0.00326904 0)
(0.996339 -0.00278309 0)
(0.995504 0.00543375 0)
(0.998894 0.00805144 0)
(1.00006 0.00669985 0)
(1.0028 0.00507747 0)
(0.999776 0.00787066 0)
(0.999274 0.0136435 0)
(1.00481 0.0113883 0)
(1.00725 0.0102611 0)
(1.00436 0.0133863 0)
(1.00571 0.012825 0)
(1.00823 0.0112768 0)
(1.00895 0.0125595 0)
(1.00837 0.0133625 0)
(1.01031 0.011795 0)
(1.0107 0.0107774 0)
(1.01042 0.011076 0)
(0.997817 -0.00627835 0)
(0.996608 0.00497355 0)
(1.00056 -0.00280704 0)
(0.996681 -0.00257159 0)
(0.995914 0.00512831 0)
(0.998876 0.0076476 0)
(0.999825 0.00675921 0)
(1.00277 0.00527109 0)
(1.00021 0.0076314 0)
(0.999389 0.0132769 0)
(1.00449 0.0114243 0)
(1.00735 0.00999633 0)
(1.00453 0.0130399 0)
(1.00543 0.0129983 0)
(1.00811 0.0111913 0)
(1.00915 0.012066 0)
(1.00827 0.0132884 0)
(1.00993 0.011963 0)
(1.01057 0.0106872 0)
(1.01054 0.0108112 0)
(0.997993 -0.00588195 0)
(0.996741 0.00437357 0)
(1.00025 -0.00237326 0)
(0.996994 -0.00236541 0)
(0.996311 0.00483913 0)
(0.998875 0.00725451 0)
(0.999607 0.00678982 0)
(1.00272 0.00547502 0)
(1.00063 0.0073892 0)
(0.999532 0.0128744 0)
(1.00415 0.0114657 0)
(1.00742 0.00978031 0)
(1.00475 0.0126346 0)
(1.00516 0.0131257 0)
(1.00792 0.0111951 0)
(1.00934 0.0115793 0)
(1.00825 0.0131017 0)
(1.00954 0.0121661 0)
(1.01035 0.0106796 0)
(1.01065 0.0105502 0)
(0.99816 -0.00549114 0)
(0.996884 0.00379683 0)
(0.99995 -0.00196317 0)
(0.997282 -0.00216179 0)
(0.996691 0.00455736 0)
(0.998887 0.00688721 0)
(0.99941 0.00678803 0)
(1.00264 0.00566839 0)
(1.00102 0.00717589 0)
(0.999705 0.0124376 0)
(1.00381 0.0115018 0)
(1.00744 0.00962849 0)
(1.00501 0.0121675 0)
(1.00494 0.0131823 0)
(1.00765 0.0112739 0)
(1.0095 0.0111366 0)
(1.00832 0.0128076 0)
(1.00916 0.0123567 0)
(1.01005 0.0107726 0)
(1.01069 0.0103335 0)
(0.998317 -0.00510458 0)
(0.997036 0.00324211 0)
(0.999666 -0.00157695 0)
(0.997542 -0.00196227 0)
(0.997053 0.00428312 0)
(0.998914 0.00653683 0)
(0.999231 0.00676442 0)
(1.00253 0.00585076 0)
(1.00139 0.00697617 0)
(0.999905 0.0119884 0)
(1.00347 0.0115074 0)
(1.0074 0.00953922 0)
(1.00531 0.0116798 0)
(1.00477 0.01313 0)
(1.00731 0.0114272 0)
(1.00962 0.0107622 0)
(1.00847 0.0124099 0)
(1.00883 0.012497 0)
(1.00966 0.0109532 0)
(1.01065 0.0102025 0)
(0.998465 -0.00472468 0)
(0.997197 0.00271404 0)
(0.999397 -0.00121812 0)
(0.997777 -0.00176804 0)
(0.997398 0.00401362 0)
(0.99895 0.00621696 0)
(0.999074 0.00669651 0)
(1.00241 0.00602092 0)
(1.00172 0.00680298 0)
(1.00013 0.0115128 0)
(1.00315 0.0114851 0)
(1.0073 0.00949703 0)
(1.00561 0.0112028 0)
(1.00467 0.0129648 0)
(1.00692 0.0115959 0)
(1.00965 0.0105149 0)
(1.0087 0.0118927 0)
(1.00859 0.0125461 0)
(1.00922 0.0112076 0)
(1.01048 0.010184 0)
(0.998602 -0.00435321 0)
(0.997367 0.00221389 0)
(0.999144 -0.000887012 0)
(0.997984 -0.00157013 0)
(0.997726 0.00373526 0)
(0.998996 0.00592844 0)
(0.998933 0.00660989 0)
(1.00227 0.00615592 0)
(1.00201 0.00665239 0)
(1.00038 0.0110338 0)
(1.00284 0.0114192 0)
(1.00715 0.00948238 0)
(1.0059 0.0107479 0)
(1.00465 0.0127147 0)
(1.00651 0.0117276 0)
(1.00958 0.0103768 0)
(1.00898 0.01133 0)
(1.00848 0.0123926 0)
(1.00875 0.0114514 0)
(1.0102 0.0102581 0)
(0.998729 -0.00398897 0)
(0.997543 0.00173955 0)
(0.99891 -0.000583183 0)
(0.998164 -0.00136938 0)
(0.998038 0.003455 0)
(0.999053 0.00566757 0)
(0.998809 0.00650067 0)
(1.00212 0.00627207 0)
(1.00226 0.00652173 0)
(1.00065 0.0105655 0)
(1.00257 0.0113007 0)
(1.00695 0.00949556 0)
(1.00617 0.0103112 0)
(1.00469 0.0123883 0)
(1.00611 0.0118316 0)
(1.0094 0.010296 0)
(1.00924 0.01078 0)
(1.0085 0.0120326 0)
(1.00833 0.0115561 0)
(1.00983 0.0103636 0)
(0.998843 -0.00363543 0)
(0.997727 0.00129643 0)
(0.998696 -0.000312648 0)
(0.998312 -0.0011597 0)
(0.998335 0.00316963 0)
(0.99912 0.0054258 0)
(0.998699 0.00637666 0)
(1.00195 0.00635604 0)
(1.00247 0.00642133 0)
(1.00093 0.0101012 0)
(1.00233 0.011143 0)
(1.0067 0.00952618 0)
(1.0064 0.00991334 0)
(1.0048 0.011994 0)
(1.00573 0.0118553 0)
(1.0091 0.0103184 0)
(1.00945 0.0102892 0)
(1.00862 0.0115386 0)
(1.00799 0.0115584 0)
(1.00941 0.0105491 0)
(0.998947 -0.00329295 0)
(0.997915 0.000886024 0)
(0.998506 -7.98443e-05 0)
(0.998432 -0.000938695 0)
(0.998614 0.00288547 0)
(0.999201 0.00519186 0)
(0.998606 0.00626132 0)
(1.00178 0.00639942 0)
(1.00263 0.00632185 0)
(1.00121 0.00966462 0)
(1.00212 0.0109475 0)
(1.0064 0.00953705 0)
(1.00659 0.00956964 0)
(1.00497 0.0115611 0)
(1.0054 0.0117888 0)
(1.00872 0.0104078 0)
(1.00955 0.00994731 0)
(1.00884 0.0110052 0)
(1.00781 0.0115017 0)
(1.00899 0.0107997 0)
(0.99904 -0.00296172 0)
(0.99811 0.000505976 0)
(0.998342 0.000118935 0)
(0.998522 -0.000703865 0)
(0.998875 0.00260051 0)
(0.999299 0.00496453 0)
(0.998526 0.00614609 0)
(1.00159 0.00641272 0)
(1.00276 0.00622595 0)
(1.00151 0.00924504 0)
(1.00196 0.0107175 0)
(1.00607 0.00955209 0)
(1.00672 0.00925336 0)
(1.00518 0.0111058 0)
(1.00514 0.0116761 0)
(1.00829 0.0104939 0)
(1.00954 0.0097568 0)
(1.0091 0.0105285 0)
(1.00778 0.0113298 0)
(1.00859 0.0109748 0)
(0.999122 -0.00264529 0)
(0.998308 0.000165664 0)
(0.998208 0.000273202 0)
(0.998583 -0.000454846 0)
(0.999114 0.00232397 0)
(0.999416 0.00472745 0)
(0.998464 0.00605069 0)
(1.0014 0.00640664 0)
(1.00285 0.00612251 0)
(1.00179 0.00883534 0)
(1.00183 0.0104673 0)
(1.00571 0.00957108 0)
(1.00678 0.0089704 0)
(1.00542 0.0106322 0)
(1.00496 0.0115014 0)
(1.00783 0.0105776 0)
(1.00942 0.00969499 0)
(1.00935 0.0101068 0)
(1.00788 0.011022 0)
(1.00826 0.0110191 0)
(0.999193 -0.00234515 0)
(0.998508 -0.000135263 0)
(0.998108 0.000384092 0)
(0.998618 -0.000193808 0)
(0.999331 0.00206937 0)
(0.999556 0.0044798 0)
(0.998419 0.00595924 0)
(1.00119 0.00639804 0)
(1.00291 0.00601295 0)
(1.00209 0.00842654 0)
(1.00176 0.0101986 0)
(1.00532 0.00958442 0)
(1.00677 0.00875307 0)
(1.00569 0.010147 0)
(1.00487 0.0112506 0)
(1.00738 0.0106454 0)
(1.00919 0.0097172 0)
(1.00952 0.00976055 0)
(1.00807 0.0106078 0)
(1.00804 0.0109303 0)
(0.999255 -0.00206076 0)
(0.998707 -0.00039426 0)
(0.998043 0.000444928 0)
(0.998631 7.85927e-05 0)
(0.999519 0.00185729 0)
(0.999718 0.00420529 0)
(0.998402 0.00586772 0)
(1.00097 0.00640244 0)
(1.00291 0.00590139 0)
(1.00237 0.00802253 0)
(1.00174 0.00989839 0)
(1.00493 0.00958566 0)
(1.00668 0.00860685 0)
(1.00595 0.00966248 0)
(1.00487 0.0109369 0)
(1.00698 0.0106563 0)
(1.00886 0.00976121 0)
(1.00959 0.00951568 0)
(1.00831 0.0101588 0)
(1.00796 0.0107116 0)
(0.999307 -0.00179708 0)
(0.998902 -0.000606598 0)
(0.998017 0.000463708 0)
(0.998629 0.000348848 0)
(0.999674 0.00169172 0)
(0.999901 0.00391172 0)
(0.998417 0.00576314 0)
(1.00075 0.00641451 0)
(1.00288 0.00580775 0)
(1.00265 0.00761742 0)
(1.00178 0.00956428 0)
(1.00455 0.00957374 0)
(1.0065 0.00852782 0)
(1.00619 0.00921419 0)
(1.00495 0.010557 0)
(1.00663 0.0105818 0)
(1.00848 0.00978665 0)
(1.00953 0.00937459 0)
(1.00855 0.00974978 0)
(1.00801 0.0103738 0)
(0.999353 -0.00155424 0)
(0.99909 -0.000772724 0)
(0.998029 0.000439791 0)
(0.998619 0.00060608 0)
(0.999793 0.0015788 0)
(1.0001 0.00359647 0)
(0.998473 0.00562232 0)
(1.00053 0.00645327 0)
(1.00279 0.0057585 0)
(1.00291 0.00721037 0)
(1.00188 0.00918241 0)
(1.0042 0.00952483 0)
(1.00624 0.008502 0)
(1.00637 0.00882716 0)
(1.00511 0.0101115 0)
(1.00635 0.0104319 0)
(1.00807 0.00977634 0)
(1.00936 0.00929053 0)
(1.0087 0.00942326 0)
(1.00815 0.00995591 0)
(0.999392 -0.00133347 0)
(0.999267 -0.000893494 0)
(0.99808 0.000380471 0)
(0.998608 0.000840256 0)
(0.999873 0.00151942 0)
(1.00031 0.00327962 0)
(0.998582 0.00544092 0)
(1.00032 0.00649014 0)
(1.00265 0.00575322 0)
(1.00314 0.00684202 0)
(1.00204 0.0087559 0)
(1.00391 0.00941187 0)
(1.00592 0.00850506 0)
(1.00647 0.00852943 0)
(1.00531 0.00962965 0)
(1.00616 0.0101982 0)
(1.00768 0.00971764 0)
(1.00911 0.00920998 0)
(1.00875 0.00919164 0)
(1.00831 0.0095436 0)
(0.999427 -0.00113692 0)
(0.999432 -0.000966848 0)
(0.998165 0.000296916 0)
(0.998606 0.00103781 0)
(0.999915 0.00151282 0)
(1.00052 0.00298127 0)
(0.998745 0.00521407 0)
(1.00013 0.00650694 0)
(1.00246 0.00579358 0)
(1.00333 0.00653757 0)
(1.00225 0.00828438 0)
(1.00368 0.0092182 0)
(1.00557 0.00850357 0)
(1.00647 0.00832665 0)
(1.00552 0.00915822 0)
(1.00607 0.0098742 0)
(1.00731 0.00961187 0)
(1.00882 0.00911544 0)
(1.00871 0.0090203 0)
(1.00841 0.00922114 0)
(0.999458 -0.000965284 0)
(0.999582 -0.000995764 0)
(0.99828 0.000197026 0)
(0.998618 0.00119485 0)
(0.999922 0.00155337 0)
(1.00073 0.00270981 0)
(0.998964 0.00493284 0)
(0.99999 0.0064955 0)
(1.00223 0.00587303 0)
(1.00345 0.00630907 0)
(1.00249 0.00779838 0)
(1.00354 0.00894762 0)
(1.00522 0.00846077 0)
(1.00638 0.00818494 0)
(1.0057 0.00874018 0)
(1.00605 0.00948462 0)
(1.00699 0.00945044 0)
(1.00851 0.00900458 0)
(1.00861 0.00883777 0)
(1.00841 0.0090005 0)
(0.999486 -0.000818523 0)
(0.999715 -0.000980734 0)
(0.99842 8.92349e-05 0)
(0.998653 0.00130384 0)
(0.999896 0.00163229 0)
(1.00091 0.00248932 0)
(0.999235 0.00459775 0)
(0.999909 0.00642758 0)
(1.00198 0.00596188 0)
(1.00349 0.00615474 0)
(1.00273 0.00733857 0)
(1.00348 0.00861265 0)
(1.0049 0.00836557 0)
(1.00623 0.00806862 0)
(1.00582 0.00839261 0)
(1.00609 0.00907527 0)
(1.00675 0.00922006 0)
(1.00817 0.00889053 0)
(1.00848 0.00861887 0)
(1.00836 0.00880804 0)
(0.999511 -0.000696338 0)
(0.99983 -0.000928088 0)
(0.998576 -1.37596e-05 0)
(0.998714 0.00136093 0)
(0.999848 0.00173533 0)
(1.00106 0.00233786 0)
(0.999546 0.00422887 0)
(0.999901 0.00628586 0)
(1.00173 0.00603734 0)
(1.00346 0.00606613 0)
(1.00296 0.00692375 0)
(1.0035 0.00821733 0)
(1.00462 0.00821239 0)
(1.00602 0.00795918 0)
(1.00588 0.00810009 0)
(1.00615 0.00867769 0)
(1.00659 0.0089183 0)
(1.00783 0.00876987 0)
(1.00832 0.00841141 0)
(1.0083 0.00856085 0)
(0.999535 -0.000595662 0)
(0.999926 -0.000847924 0)
(0.998741 -0.000103393 0)
(0.998803 0.00136623 0)
(0.999788 0.00184299 0)
(1.00116 0.00227606 0)
(0.999877 0.00385323 0)
(0.999973 0.00605341 0)
(1.0015 0.00607685 0)
(1.00337 0.00602584 0)
(1.00314 0.00657766 0)
(1.00357 0.00779167 0)
(1.0044 0.0079903 0)
(1.00579 0.00784008 0)
(1.00587 0.00784595 0)
(1.00621 0.00830615 0)
(1.0065 0.00856172 0)
(1.00752 0.00859394 0)
(1.00809 0.00825673 0)
(1.00825 0.00826108 0)
(0.999558 -0.000514348 0)
(1 -0.000748127 0)
(0.998905 -0.000173115 0)
(0.998921 0.00133311 0)
(0.999733 0.00192912 0)
(1.00121 0.0023046 0)
(1.0002 0.00351042 0)
(1.00012 0.00572797 0)
(1.00131 0.0060494 0)
(1.00322 0.00599577 0)
(1.00326 0.00630051 0)
(1.00366 0.00737818 0)
(1.00426 0.00770443 0)
(1.00557 0.00768771 0)
(1.0058 0.00762491 0)
(1.00622 0.00797541 0)
(1.00647 0.00819023 0)
(1.0073 0.00832597 0)
(1.00781 0.00812345 0)
(1.00816 0.00798801 0)
(0.99958 -0.000449722 0)
(1.00007 -0.000635172 0)
(0.999061 -0.000217661 0)
(0.99906 0.00127587 0)
(0.999695 0.00198031 0)
(1.00121 0.00237616 0)
(1.00048 0.00324623 0)
(1.00033 0.00534789 0)
(1.00118 0.00594219 0)
(1.00304 0.0059546 0)
(1.00333 0.00607309 0)
(1.00376 0.00699391 0)
(1.00418 0.0073812 0)
(1.00536 0.00748635 0)
(1.0057 0.0074083 0)
(1.0062 0.00768149 0)
(1.00643 0.00784532 0)
(1.00715 0.0079932 0)
(1.00755 0.00793968 0)
(1.008 0.00778166 0)
(0.999601 -0.000397962 0)
(1.00011 -0.000518756 0)
(0.999205 -0.000235425 0)
(0.999217 0.00120153 0)
(0.999679 0.00199978 0)
(1.00119 0.00244683 0)
(1.00072 0.00307122 0)
(1.00058 0.00495628 0)
(1.00112 0.00574989 0)
(1.00286 0.00589397 0)
(1.00334 0.00588566 0)
(1.00385 0.0066384 0)
(1.00413 0.00704209 0)
(1.00518 0.00725361 0)
(1.00558 0.00717848 0)
(1.00614 0.00740108 0)
(1.00637 0.00754156 0)
(1.00704 0.00765673 0)
(1.00735 0.00766919 0)
(1.0078 0.00759208 0)
(0.99962 -0.000355587 0)
(1.00015 -0.000406073 0)
(0.999331 -0.000224909 0)
(0.999383 0.00111726 0)
(0.999687 0.00198412 0)
(1.00115 0.00250201 0)
(1.0009 0.00296746 0)
(1.00084 0.00459383 0)
(1.00113 0.00548108 0)
(1.00269 0.00578855 0)
(1.00329 0.00572492 0)
(1.00392 0.00631752 0)
(1.00413 0.00668776 0)
(1.00504 0.00699558 0)
(1.00544 0.00694791 0)
(1.00608 0.00711308 0)
(1.00629 0.00724816 0)
(1.00692 0.00735675 0)
(1.0072 0.0073501 0)
(1.0076 0.00736225 0)
(0.999637 -0.000319421 0)
(1.00018 -0.000303449 0)
(0.999437 -0.000188708 0)
(0.99955 0.00103158 0)
(0.999718 0.00193739 0)
(1.0011 0.0025351 0)
(1.00103 0.00290147 0)
(1.00108 0.00428319 0)
(1.00119 0.00517347 0)
(1.00255 0.00562724 0)
(1.00322 0.00556874 0)
(1.00394 0.00604098 0)
(1.00414 0.00633583 0)
(1.00494 0.00669315 0)
(1.0053 0.00671342 0)
(1.00599 0.00683045 0)
(1.00623 0.00692602 0)
(1.00678 0.00707916 0)
(1.00706 0.0070424 0)
(1.00743 0.00708482 0)
(0.999652 -0.000286958 0)
(1.0002 -0.000215161 0)
(0.999523 -0.00013377 0)
(0.999711 0.000952178 0)
(0.99977 0.00186519 0)
(1.00105 0.00254539 0)
(1.00112 0.00285084 0)
(1.00129 0.00401917 0)
(1.00129 0.0048573 0)
(1.00245 0.00542162 0)
(1.00313 0.0053974 0)
(1.00392 0.00579148 0)
(1.00413 0.00601911 0)
(1.00487 0.00636302 0)
(1.00518 0.00644537 0)
(1.00586 0.006578 0)
(1.00616 0.00659157 0)
(1.00667 0.00677607 0)