/*--------------------------------*- C++ -*----------------------------------*\
| =========                 |                                                 |
| \\      /  F ield         | OpenFOAM: The Open Source CFD Toolbox           |
|  \\    /   O peration     | Version:  v1912                                 |
|   \\  /    A nd           | Website:  www.openfoam.com                      |
|    \\/     M anipulation  |                                                 |
\*---------------------------------------------------------------------------*/
FoamFile
{
    version     2.0;
    format      ascii;
    class       volVectorField;
    location    "1.8";
    object      U;
}
// * * * * * * * * * * * * * * * * * * * * * * * * * * * * * * * * * * * * * //

dimensions      [0 1 -1 0 0 0 0];


internalField   nonuniform List<vector> 
9600
(
(0.96916 -0.00893855 0)
(1.00569 0.0101809 0)
(0.988567 -0.000966518 0)
(1.00327 -0.0191764 0)
(0.996326 0.00106039 0)
(1.03931 0.00101953 0)
(1.00931 0.0230163 0)
(1.02391 0.0202134 0)
(0.998847 0.0214864 0)
(1.01557 -0.0285398 0)
(0.889552 0.0102087 0)
(1.05826 -0.0370987 0)
(0.790672 -0.0257505 0)
(1.13773 -0.0382716 0)
(0.708506 -0.035736 0)
(1.21485 -0.0124375 0)
(0.76306 -0.0228746 0)
(1.20449 0.0135444 0)
(0.855576 0.00211388 0)
(1.19553 0.0299314 0)
(0.974047 -0.00876731 0)
(1.00526 0.0100888 0)
(0.990652 -0.000940604 0)
(1.0003 -0.0191895 0)
(0.997699 0.000655516 0)
(1.03763 0.00095273 0)
(1.01165 0.0229465 0)
(1.01914 0.0203203 0)
(1.00313 0.0213724 0)
(1.01214 -0.0263922 0)
(0.917911 0.00892636 0)
(1.02792 -0.0344069 0)
(0.850863 -0.0280754 0)
(1.08382 -0.0356322 0)
(0.782298 -0.0383048 0)
(1.15677 -0.0134573 0)
(0.847487 -0.0229702 0)
(1.13304 0.0111899 0)
(0.973356 0.00270762 0)
(1.0832 0.0284784 0)
(0.980835 -0.00863423 0)
(1.00426 0.00995658 0)
(0.99241 -0.000904688 0)
(0.993754 -0.0192251 0)
(0.999611 0.00021673 0)
(1.03469 0.000871076 0)
(1.01563 0.0230482 0)
(1.01381 0.0205045 0)
(1.00863 0.021511 0)
(1.0101 -0.0255809 0)
(0.945875 0.00870281 0)
(1.01489 -0.0338591 0)
(0.907298 -0.0289254 0)
(1.03787 -0.0351436 0)
(0.875195 -0.0392111 0)
(1.07924 -0.0152056 0)
(0.936379 -0.0218063 0)
(1.05317 0.00724319 0)
(1.02306 0.0042325 0)
(1.04648 0.0248975 0)
(0.987752 -0.00854428 0)
(1.00272 0.00986108 0)
(0.993151 -0.000814793 0)
(0.985194 -0.0192776 0)
(1.00071 -0.000226162 0)
(1.03165 0.000773611 0)
(1.0196 0.0232817 0)
(1.01215 0.0206702 0)
(1.01463 0.0214547 0)
(1.00985 -0.024583 0)
(0.969961 0.00838299 0)
(1.0056 -0.0329434 0)
(0.945382 -0.0290714 0)
(1.0024 -0.0348922 0)
(0.936098 -0.0394551 0)
(1.02192 -0.0169334 0)
(0.986191 -0.0210961 0)
(1.01505 0.00513835 0)
(1.02458 0.00423165 0)
(1.03845 0.023052 0)
(0.993387 -0.00847947 0)
(1.00088 0.00981551 0)
(0.993477 -0.000657159 0)
(0.977171 -0.0193301 0)
(1.00031 -0.00072836 0)
(1.02889 0.000635519 0)
(1.02307 0.0234528 0)
(1.01468 0.0207637 0)
(1.02088 0.0214338 0)
(1.0125 -0.0238916 0)
(0.98579 0.00826329 0)
(1.00533 -0.0323747 0)
(0.967226 -0.0289153 0)
(0.986137 -0.0350945 0)
(0.963815 -0.0392913 0)
(0.995688 -0.0185053 0)
(1.0026 -0.0209266 0)
(1.00834 0.00441359 0)
(1.02282 0.00355289 0)
(1.03439 0.022073 0)
(0.996873 -0.00842774 0)
(0.999165 0.00979832 0)
(0.994603 -0.00043462 0)
(0.971533 -0.0193697 0)
(0.998766 -0.00131636 0)
(1.02577 0.000424143 0)
(1.0261 0.023499 0)
(1.0196 0.0208317 0)
(1.02728 0.0214155 0)
(1.01624 -0.0232071 0)
(0.996708 0.00814192 0)
(1.00736 -0.0317254 0)
(0.977465 -0.0284897 0)
(0.979684 -0.0351839 0)
(0.972771 -0.0390536 0)
(0.987393 -0.0198824 0)
(1.00379 -0.0210348 0)
(1.01004 0.00358961 0)
(1.02582 0.00298884 0)
(1.03415 0.0211749 0)
(0.998157 -0.00837828 0)
(0.997958 0.00978159 0)
(0.997376 -0.000163687 0)
(0.968957 -0.0193741 0)
(0.996793 -0.00195133 0)
(1.02129 0.000145754 0)
(1.02814 0.0234336 0)
(1.0247 0.0208713 0)
(1.03305 0.0214135 0)
(1.02028 -0.0225488 0)
(1.00461 0.00802364 0)
(1.011 -0.0310246 0)
(0.983052 -0.027925 0)
(0.977644 -0.0352357 0)
(0.974976 -0.0388378 0)
(0.984875 -0.021049 0)
(1.00066 -0.0214184 0)
(1.01051 0.00242165 0)
(1.02784 0.0025474 0)
(1.03557 0.0200336 0)
(0.99787 -0.00832091 0)
(0.99739 0.00973355 0)
(1.00158 0.000133912 0)
(0.969273 -0.0193152 0)
(0.994793 -0.00256386 0)
(1.01477 -0.000178542 0)
(1.02806 0.0232406 0)
(1.02821 0.0208588 0)
(1.03756 0.0214136 0)
(1.02347 -0.0218877 0)
(1.01097 0.00788104 0)
(1.01476 -0.030217 0)
(0.986578 -0.0272726 0)
(0.976951 -0.0351824 0)
(0.974888 -0.0385995 0)
(0.983278 -0.0221264 0)
(0.997221 -0.0219445 0)
(1.00898 0.00122723 0)
(1.02683 0.00201654 0)
(1.03559 0.018579 0)
(0.996875 -0.00824955 0)
(0.997307 0.00962849 0)
(1.00612 0.000433634 0)
(0.971844 -0.0191778 0)
(0.992798 -0.00309223 0)
(1.00629 -0.000521178 0)
(1.02493 0.0228991 0)
(1.02917 0.0207687 0)
(1.04057 0.0213986 0)
(1.02522 -0.0212276 0)
(1.01612 0.00769166 0)
(1.01849 -0.0293046 0)
(0.98965 -0.026537 0)
(0.976964 -0.0349746 0)
(0.973941 -0.0383974 0)
(0.981578 -0.0231318 0)
(0.99444 -0.0225108 0)
(1.00663 1.30369e-05 0)
(1.0242 0.00131282 0)
(1.03383 0.0170445 0)
(0.99584 -0.00816317 0)
(0.997465 0.00945837 0)
(1.00984 0.000712424 0)
(0.975765 -0.018963 0)
(0.990827 -0.0034904 0)
(0.99695 -0.000841334 0)
(1.01896 0.0224095 0)
(1.02759 0.0205706 0)
(1.04231 0.0213504 0)
(1.02527 -0.0205798 0)
(1.02018 0.00742738 0)
(1.02158 -0.0283021 0)
(0.992848 -0.0257163 0)
(0.977747 -0.0346004 0)
(0.972789 -0.0382259 0)
(0.979576 -0.024042 0)
(0.992196 -0.0231485 0)
(1.00431 -0.00123741 0)
(1.02154 0.000551559 0)
(1.03149 0.0155354 0)
(0.995113 -0.00806393 0)
(0.997711 0.00923195 0)
(1.01217 0.000954073 0)
(0.98005 -0.0186799 0)
(0.989109 -0.00373623 0)
(0.988587 -0.00110552 0)
(1.01171 0.0217871 0)
(1.02441 0.0202328 0)
(1.04326 0.02126 0)
(1.02383 -0.0199419 0)
(1.02316 0.00706644 0)
(1.02351 -0.0272341 0)
(0.996424 -0.0248553 0)
(0.979653 -0.0340283 0)
(0.972137 -0.0380224 0)
(0.977319 -0.0248784 0)
(0.98992 -0.0239319 0)
(1.0022 -0.00250013 0)
(1.01956 -0.000182176 0)
(1.0297 0.0139513 0)
(0.994824 -0.00795559 0)
(0.997965 0.00896497 0)
(1.01317 0.0011657 0)
(0.98392 -0.0183489 0)
(0.987951 -0.00383767 0)
(0.982901 -0.00130409 0)
(1.00542 0.0210599 0)
(1.02095 0.0197503 0)
(1.04366 0.0211315 0)
(1.02151 -0.0192978 0)
(1.02494 0.00660743 0)
(1.02398 -0.026138 0)
(1.00017 -0.0240303 0)
(0.98275 -0.0332445 0)
(0.972572 -0.0377387 0)
(0.975154 -0.025624 0)
(0.986981 -0.0248252 0)
(0.99987 -0.00384261 0)
(1.01803 -0.000986264 0)
(1.02883 0.0122252 0)
(0.995018 -0.00784183 0)
(0.998097 0.0086728 0)
(1.01322 0.00135729 0)
(0.987048 -0.0179927 0)
(0.98746 -0.00384013 0)
(0.980549 -0.00144818 0)
(1.00158 0.0202656 0)
(1.01807 0.0191582 0)
(1.04335 0.020975 0)
(1.01915 -0.0186303 0)
(1.02527 0.00606517 0)
(1.02316 -0.0250372 0)
(1.00349 -0.0233162 0)
(0.986659 -0.0322822 0)
(0.974276 -0.0373233 0)
(0.973623 -0.0261858 0)
(0.9831 -0.0257568 0)
(0.996586 -0.00532523 0)
(1.01592 -0.00193551 0)
(1.02815 0.0103357 0)
(0.995666 -0.00772454 0)
(0.99793 0.00836868 0)
(1.01267 0.00152627 0)
(0.989543 -0.0176231 0)
(0.98742 -0.00379818 0)
(0.980882 -0.00156335 0)
(1.00009 0.0194521 0)
(1.01573 0.0185105 0)
(1.04188 0.0207984 0)
(1.01743 -0.0179261 0)
(1.02397 0.00547083 0)
(1.02163 -0.0239478 0)
(1.00577 -0.0227598 0)
(0.990652 -0.0311889 0)
(0.976934 -0.0367583 0)
(0.973121 -0.0264644 0)
(0.978641 -0.026624 0)
(0.991844 -0.00698013 0)
(1.01199 -0.00299507 0)
(1.02592 0.00825535 0)
(0.996634 -0.00760366 0)
(0.997378 0.00806283 0)
(1.01178 0.00167317 0)
(0.991693 -0.0172434 0)
(0.987473 -0.00374115 0)
(0.982517 -0.0016665 0)
(0.999596 0.0186615 0)
(1.01336 0.0178667 0)
(1.03899 0.020586 0)
(1.01659 -0.0171724 0)
(1.02123 0.00484919 0)
(1.01997 -0.0228804 0)
(1.00672 -0.0223802 0)
(0.993959 -0.0300084 0)
(0.97997 -0.0360692 0)
(0.973601 -0.0264294 0)
(0.9745 -0.0272717 0)
(0.985812 -0.00873976 0)
(1.00558 -0.00416846 0)
(1.02048 0.00598872 0)
(0.99771 -0.00747781 0)
(0.996534 0.00776341 0)
(1.01069 0.00179331 0)
(0.993672 -0.0168547 0)
(0.987377 -0.00367475 0)
(0.984202 -0.00175499 0)
(0.998778 0.0179192 0)
(1.01053 0.0172675 0)
(1.03493 0.0203043 0)
(1.01644 -0.0163696 0)
(1.01767 0.00420391 0)
(1.01855 -0.021857 0)
(1.00661 -0.0221397 0)
(0.9961 -0.028827 0)
(0.98287 -0.0352997 0)
(0.974631 -0.0261094 0)
(0.971579 -0.0275622 0)
(0.979364 -0.0104439 0)
(0.997148 -0.00531508 0)
(1.01147 0.00364707 0)
(0.998685 -0.00734458 0)
(0.995618 0.00747316 0)
(1.00956 0.00188366 0)
(0.995459 -0.0164607 0)
(0.987116 -0.00359899 0)
(0.985332 -0.00182035 0)
(0.997165 0.017236 0)
(1.00732 0.0167164 0)
(1.03039 0.0199224 0)
(1.01657 -0.0155375 0)
(1.01408 0.00355344 0)
(1.0174 -0.0208814 0)
(1.00601 -0.0219847 0)
(0.99704 -0.0277003 0)
(0.985343 -0.0344975 0)
(0.975737 -0.0255655 0)
(0.970232 -0.0274469 0)
(0.973677 -0.0119545 0)
(0.988093 -0.00622877 0)
(1.00027 0.0014442 0)
(0.999432 -0.00720199 0)
(0.994842 0.0071903 0)
(1.00851 0.00194457 0)
(0.996938 -0.0160633 0)
(0.986808 -0.0035065 0)
(0.985895 -0.00185018 0)
(0.995101 0.0166019 0)
(1.00419 0.0162046 0)
(1.02615 0.0194214 0)
(1.01663 -0.0146852 0)
(1.01108 0.00289345 0)
(1.01639 -0.0199428 0)
(1.00538 -0.0218806 0)
(0.997099 -0.0266336 0)
(0.987278 -0.0336797 0)
(0.976674 -0.0249178 0)
(0.970159 -0.0269582 0)
(0.969626 -0.0131507 0)
(0.979994 -0.00682682 0)
(0.989199 -0.000390506 0)
(0.999925 -0.00704916 0)
(0.994314 0.00691076 0)
(1.0076 0.00198079 0)
(0.998039 -0.0156618 0)
(0.986571 -0.00338805 0)
(0.986148 -0.00184036 0)
(0.99318 0.0160039 0)
(1.00159 0.0157169 0)
(1.02265 0.0188074 0)
(1.01651 -0.0138227 0)
(1.00893 0.00222491 0)
(1.01543 -0.0190362 0)
(1.00496 -0.0217917 0)
(0.996699 -0.0256216 0)
(0.988668 -0.0328527 0)
(0.977432 -0.0242462 0)
(0.970764 -0.026159 0)
(0.967427 -0.0139887 0)
(0.973903 -0.00710867 0)
(0.980205 -0.0017612 0)
(1.0002 -0.00688614 0)
(0.994038 0.00662979 0)
(1.00684 0.00200179 0)
(0.998779 -0.0152566 0)
(0.986461 -0.00324998 0)
(0.986327 -0.00179527 0)
(0.991789 0.0154264 0)
(0.999727 0.0152445 0)
(1.02001 0.0181007 0)
(1.01621 -0.012955 0)
(1.00756 0.00155157 0)
(1.01447 -0.018146 0)
(1.00472 -0.0217069 0)
(0.996169 -0.0246386 0)
(0.989583 -0.0320071 0)
(0.978097 -0.0235846 0)
(0.971561 -0.0251359 0)
(0.96674 -0.0145503 0)
(0.970072 -0.00710484 0)
(0.974094 -0.00263243 0)
(1.00032 -0.00671348 0)
(0.993964 0.00634408 0)
(1.0062 0.0020158 0)
(0.999238 -0.0148483 0)
(0.986476 -0.00309692 0)
(0.986553 -0.00172163 0)
(0.991002 0.0148571 0)
(0.998576 0.0147844 0)
(1.01808 0.0173216 0)
(1.01582 -0.0120739 0)
(1.00675 0.000862589 0)
(1.01355 -0.0172691 0)
(1.00457 -0.0216096 0)
(0.995677 -0.0236827 0)
(0.990131 -0.0311106 0)
(0.97874 -0.0229857 0)
(0.972322 -0.0239595 0)
(0.96703 -0.0149069 0)
(0.968164 -0.00692426 0)
(0.970636 -0.00304403 0)
(1.00034 -0.00653152 0)
(0.994024 0.00605048 0)
(1.00565 0.00202954 0)
(0.999508 -0.0144371 0)
(0.986592 -0.00293317 0)
(0.986851 -0.00162951 0)
(0.990704 0.0142854 0)
(0.99797 0.0143354 0)
(1.01666 0.0164905 0)
(1.01538 -0.0111868 0)
(1.00629 0.0001748 0)
(1.01267 -0.016396 0)
(1.00442 -0.0214857 0)
(0.995273 -0.0227624 0)
(0.990434 -0.0301506 0)
(0.979388 -0.0224501 0)
(0.973009 -0.0227001 0)
(0.967835 -0.0150735 0)
(0.967614 -0.00670519 0)
(0.96912 -0.00312323 0)
(1.00031 -0.00634041 0)
(0.994164 0.00574721 0)
(1.00516 0.00204622 0)
(0.999662 -0.0140226 0)
(0.986788 -0.00276469 0)
(0.987204 -0.00152416 0)
(0.990727 0.0137018 0)
(0.997723 0.0139008 0)
(1.01555 0.0156193 0)
(1.01493 -0.0102969 0)
(1.00602 -0.000504541 0)
(1.01184 -0.0155234 0)
(1.00425 -0.0213267 0)
(0.99495 -0.0218726 0)
(0.990594 -0.0291329 0)
(0.980043 -0.0219611 0)
(0.973648 -0.0214074 0)
(0.968869 -0.0150705 0)
(0.967901 -0.00652822 0)
(0.968816 -0.0029802 0)
(1.00025 -0.00614076 0)
(0.994346 0.00543397 0)
(1.00469 0.00206831 0)
(0.999747 -0.0136064 0)
(0.987048 -0.00259478 0)
(0.98759 -0.00140462 0)
(0.990929 0.0130993 0)
(0.997682 0.013479 0)
(1.01462 0.0147277 0)
(1.01447 -0.00941092 0)
(1.00584 -0.00116224 0)
(1.01105 -0.0146655 0)
(1.00406 -0.0211116 0)
(0.994689 -0.0210278 0)
(0.990684 -0.0280459 0)
(0.980703 -0.021517 0)
(0.974264 -0.0201191 0)
(0.969974 -0.0149232 0)
(0.968652 -0.00645032 0)
(0.969183 -0.00273686 0)
(1.00019 -0.00593286 0)
(0.994546 0.00511069 0)
(1.00424 0.00209687 0)
(0.99979 -0.0131885 0)
(0.98736 -0.00242539 0)
(0.987989 -0.00127697 0)
(0.991219 0.0124857 0)
(0.99774 0.0130674 0)
(1.01378 0.0138168 0)
(1.01399 -0.00853145 0)
(1.0057 -0.00179501 0)
(1.01029 -0.0138314 0)
(1.00386 -0.0208263 0)
(0.994474 -0.0202416 0)
(0.990743 -0.0268836 0)
(0.98137 -0.0210983 0)
(0.974873 -0.0188894 0)
(0.971073 -0.0146243 0)
(0.96964 -0.00646669 0)
(0.96988 -0.00243407 0)
(1.00014 -0.00571618 0)
(0.99475 0.00477662 0)
(1.0038 0.00213234 0)
(0.999802 -0.0127697 0)
(0.987714 -0.00226162 0)
(0.988394 -0.00113976 0)
(0.991545 0.0118533 0)
(0.997828 0.0126656 0)
(1.01299 0.0128956 0)
(1.01349 -0.00767306 0)
(1.00558 -0.00238859 0)
(1.00955 -0.0130359 0)
(1.00366 -0.0204616 0)
(0.994299 -0.0195071 0)
(0.99079 -0.0256603 0)
(0.982045 -0.0206818 0)
(0.97549 -0.0177309 0)
(0.972132 -0.0141876 0)
(0.970744 -0.00656581 0)
(0.970722 -0.00215692 0)
(1.0001 -0.00549185 0)
(0.994955 0.00443318 0)
(1.00338 0.00217501 0)
(0.99979 -0.0123511 0)
(0.988094 -0.00210228 0)
(0.9888 -0.000987745 0)
(0.991886 0.0111955 0)
(0.997913 0.0122729 0)
(1.01222 0.0119796 0)
(1.01297 -0.00685184 0)
(1.00545 -0.00291892 0)
(1.00881 -0.0122997 0)
(1.00347 -0.0200141 0)
(0.994161 -0.0188173 0)
(0.990832 -0.0243958 0)
(0.982729 -0.02025 0)
(0.976127 -0.0166548 0)
(0.973133 -0.0136398 0)
(0.971894 -0.00671216 0)
(0.97163 -0.00195957 0)
(1.00007 -0.00526005 0)
(0.995158 0.00408258 0)
(1.00297 0.00222244 0)
(0.999762 -0.0119293 0)
(0.98849 -0.00195189 0)
(0.989208 -0.000824493 0)
(0.992238 0.0105259 0)
(0.99798 0.011892 0)
(1.01147 0.0110782 0)
(1.01242 -0.00607221 0)
(1.00531 -0.00338402 0)
(1.00807 -0.0116257 0)
(1.00327 -0.019487 0)
(0.994063 -0.0181711 0)
(0.990868 -0.0231168 0)
(0.983419 -0.0197911 0)
(0.976797 -0.0156821 0)
(0.974075 -0.0129899 0)
(0.973063 -0.00685468 0)
(0.97258 -0.00184583 0)
(1.00005 -0.00502049 0)
(0.995361 0.00372398 0)
(1.00258 0.00227537 0)
(0.999724 -0.0115044 0)
(0.988891 -0.00181846 0)
(0.989617 -0.000645363 0)
(0.992603 0.00983939 0)
(0.998031 0.011514 0)
(1.01072 0.0102054 0)
(1.01186 -0.00535881 0)
(1.00515 -0.00376813 0)
(1.00735 -0.0110172 0)
(1.00307 -0.0188867 0)
(0.994003 -0.0175553 0)
(0.990901 -0.0218364 0)
(0.984113 -0.0192909 0)
(0.97751 -0.0148187 0)
(0.974963 -0.012267 0)
(0.974223 -0.00696458 0)
(0.973572 -0.00183825 0)
(1.00003 -0.00477465 0)
(0.995562 0.00335986 0)
(1.00221 0.00233183 0)
(0.999682 -0.0110751 0)
(0.989293 -0.00169685 0)
(0.990025 -0.000449321 0)
(0.992983 0.00914111 0)
(0.998067 0.0111275 0)
(1.00999 0.00936654 0)
(1.01129 -0.00472882 0)
(1.00497 -0.00404738 0)
(1.00664 -0.0104777 0)
(1.00286 -0.0182276 0)
(0.993983 -0.0169502 0)
(0.99093 -0.0205581 0)
(0.984801 -0.0187315 0)
(0.978274 -0.0140645 0)
(0.975807 -0.0115033 0)
(0.975363 -0.00699439 0)
(0.974613 -0.00194103 0)
(1.00001 -0.00452178 0)
(0.995764 0.00298998 0)
(1.00186 0.00239113 0)
(0.999643 -0.010637 0)
(0.989695 -0.00159504 0)
(0.990429 -0.000238996 0)
(0.993377 0.00844174 0)
(0.998095 0.0107358 0)
(1.00928 0.0085788 0)
(1.01072 -0.00419051 0)
(1.00477 -0.00422964 0)
(1.00594 -0.00998411 0)
(1.00263 -0.0175253 0)
(0.994002 -0.0163527 0)
(0.990959 -0.019296 0)
(0.985475 -0.0181006 0)
(0.979089 -0.0134004 0)
(0.976625 -0.0107262 0)
(0.97646 -0.00692011 0)
(0.975699 -0.00214884 0)
(0.999997 -0.0042635 0)
(0.995969 0.00261731 0)
(1.00152 0.00244831 0)
(0.999606 -0.0101865 0)
(0.990101 -0.00151937 0)
(0.990826 -1.27307e-05 0)
(0.993783 0.00774205 0)
(0.998119 0.0103296 0)
(1.00858 0.00785985 0)
(1.01014 -0.00374704 0)
(1.00455 -0.00433435 0)
(1.00526 -0.00951858 0)
(1.00238 -0.0167959 0)
(0.994057 -0.0157623 0)
(0.990993 -0.0180574 0)
(0.986127 -0.017402 0)
(0.979953 -0.0128206 0)
(0.977432 -0.00998089 0)
(0.977504 -0.00673952 0)
(0.976825 -0.00239208 0)
(0.999982 -0.00400078 0)
(0.996177 0.00224494 0)
(1.00119 0.00250055 0)
(0.999573 -0.0097243 0)
(0.990513 -0.00146535 0)
(0.991215 0.000232235 0)
(0.994196 0.00705127 0)
(0.998146 0.00989349 0)
(1.0079 0.00720125 0)
(1.00957 -0.00339201 0)
(1.00432 -0.0043758 0)
(1.0046 -0.00907181 0)
(1.00212 -0.0160525 0)
(0.994151 -0.0151792 0)
(0.991038 -0.0168535 0)
(0.986747 -0.0166479 0)
(0.980856 -0.0123129 0)
(0.978247 -0.00928128 0)
(0.978494 -0.00645854 0)
(0.977971 -0.00263858 0)
(0.999967 -0.00373267 0)
(0.99639 0.00186966 0)
(1.00088 0.00254694 0)
(0.99954 -0.00924267 0)
(0.990936 -0.00144036 0)
(0.991595 0.000491562 0)
(0.994611 0.00637592 0)
(0.998176 0.0094314 0)
(1.00724 0.00661772 0)
(1.00901 -0.00310779 0)
(1.00408 -0.00436607 0)
(1.00396 -0.00863126 0)
(1.00185 -0.0153003 0)
(0.994282 -0.0145875 0)
(0.991099 -0.0157054 0)
(0.98733 -0.0158396 0)
(0.981792 -0.0118369 0)
(0.979082 -0.00864662 0)
(0.979423 -0.00611083 0)
(0.979108 -0.00285305 0)
(0.999951 -0.00346233 0)
(0.99661 0.00149902 0)
(1.00058 0.00257855 0)
(0.999505 -0.00873719 0)
(0.991372 -0.0014461 0)
(0.991967 0.000755924 0)
(0.995022 0.00572565 0)
(0.998216 0.00893371 0)
(1.0066 0.00611289 0)
(1.00846 -0.00287814 0)
(1.00384 -0.00432979 0)
(1.00335 -0.00818241 0)
(1.00157 -0.0145322 0)
(0.994447 -0.0140105 0)
(0.991183 -0.0146065 0)
(0.987877 -0.0149723 0)
(0.982743 -0.0113856 0)
(0.979942 -0.00809162 0)
(0.980302 -0.00571623 0)
(0.980209 -0.00296384 0)
(0.999935 -0.00319082 0)
(0.996838 0.0011354 0)
(1.0003 0.00259477 0)
(0.999466 -0.00821123 0)
(0.991823 -0.00147645 0)
(0.99233 0.00101496 0)
(0.995426 0.00511842 0)
(0.99827 0.00839098 0)
(1.00597 0.00566306 0)
(1.00792 -0.00268764 0)
(1.0036 -0.00428229 0)
(1.00276 -0.00772757 0)
(1.00129 -0.0137471 0)
(0.994645 -0.0134481 0)
(0.991301 -0.0135566 0)
(0.988383 -0.0140567 0)
(0.983698 -0.0109442 0)
(0.980839 -0.00760691 0)
(0.981149 -0.00529924 0)
(0.981248 -0.00296296 0)
(0.999919 -0.00291924 0)
(0.997072 0.000781527 0)
(1.00004 0.00258791 0)
(0.999421 -0.00765775 0)
(0.992286 -0.00152938 0)
(0.992688 0.0012599 0)
(0.995818 0.00456654 0)
(0.998339 0.00781124 0)
(1.00537 0.00526537 0)
(1.00738 -0.00251899 0)
(1.00337 -0.00423065 0)
(1.0022 -0.00727441 0)
(1.001 -0.0129452 0)
(0.994871 -0.0128817 0)
(0.991457 -0.0125731 0)
(0.98885 -0.0131122 0)
(0.984641 -0.0104823 0)
(0.98177 -0.00719704 0)
(0.981978 -0.004914 0)
(0.982206 -0.00285889 0)
(0.999903 -0.00264978 0)
(0.997313 0.000441372 0)
(0.999807 0.00255211 0)
(0.99937 -0.00707697 0)
(0.99276 -0.00160175 0)
(0.993041 0.00148284 0)
(0.996193 0.00407613 0)
(0.998427 0.00719995 0)
(1.0048 0.00489957 0)
(1.00685 -0.00235571 0)
(1.00315 -0.00418371 0)
(1.00168 -0.00682908 0)
(1.00071 -0.0121253 0)
(0.995119 -0.0123214 0)
(0.991657 -0.0116654 0)
(0.989281 -0.012159 0)
(0.985556 -0.00999262 0)
(0.982725 -0.00683536 0)
(0.982813 -0.00458322 0)
(0.983096 -0.00268153 0)
(0.999886 -0.00238465 0)
(0.997559 0.000120705 0)
(0.999598 0.00248215 0)
(0.999312 -0.00646266 0)
(0.993243 -0.00168231 0)
(0.993392 0.00167306 0)
(0.996547 0.00365798 0)
(0.998531 0.0065576 0)
(1.00426 0.00456645 0)
(1.00633 -0.00219301 0)
(1.00294 -0.00412573 0)
(1.0012 -0.00640476 0)
(1.00041 -0.0112992 0)
(0.995383 -0.0117489 0)
(0.991907 -0.0108329 0)
(0.989686 -0.0112121 0)
(0.986436 -0.00946621 0)
(0.983695 -0.00649385 0)
(0.983661 -0.00430269 0)
(0.983929 -0.00248023 0)
(0.999871 -0.00212621 0)
(0.997807 -0.000176744 0)
(0.99942 0.00237585 0)
(0.999249 -0.00582253 0)
(0.993729 -0.00176644 0)
(0.993744 0.00181909 0)
(0.996874 0.00331787 0)
(0.998651 0.00590213 0)
(1.00375 0.00424158 0)
(1.00581 -0.00202192 0)
(1.00275 -0.00405799 0)
(1.00076 -0.0060006 0)
(1.00011 -0.0104676 0)
(0.995656 -0.0111653 0)
(0.992206 -0.0100731 0)
(0.990072 -0.010278 0)
(0.987273 -0.00891387 0)
(0.984665 -0.00616696 0)
(0.984524 -0.00405467 0)
(0.984732 -0.00228467 0)
(0.999856 -0.00187653 0)
(0.998055 -0.000453718 0)
(0.999276 0.00223426 0)
(0.999181 -0.00517412 0)
(0.994215 -0.0018414 0)
(0.994101 0.00191181 0)
(0.997173 0.00304479 0)
(0.99878 0.00525071 0)
(1.00329 0.00391406 0)
(1.0053 -0.00183996 0)
(1.00256 -0.00397703 0)
(1.00037 -0.00562891 0)
(0.999806 -0.0096415 0)
(0.995929 -0.0105673 0)
(0.992559 -0.00938929 0)
(0.990451 -0.00937647 0)
(0.98806 -0.00833542 0)
(0.985629 -0.00585134 0)
(0.9854 -0.00382085 0)
(0.985526 -0.00212861 0)
(0.999842 -0.00163744 0)
(0.998301 -0.000701198 0)
(0.999167 0.00205557 0)
(0.99911 -0.00452121 0)
(0.994694 -0.00189405 0)
(0.994466 0.00194863 0)
(0.997442 0.00283317 0)
(0.998915 0.00462405 0)
(1.00287 0.00358285 0)
(1.0048 -0.00165743 0)
(1.00238 -0.00387833 0)
(1.00002 -0.00528486 0)
(0.999513 -0.00882738 0)
(0.996192 -0.00994509 0)
(0.992961 -0.00877771 0)
(0.990836 -0.00853237 0)
(0.988795 -0.00773156 0)
(0.986576 -0.005546 0)
(0.98628 -0.00360105 0)
(0.986329 -0.00201361 0)
(0.999829 -0.00141287 0)
(0.998542 -0.000909523 0)
(0.999097 0.00184571 0)
(0.999036 -0.00387912 0)
(0.995161 -0.00191569 0)
(0.99484 0.00192696 0)
(0.997685 0.00266742 0)
(0.99905 0.00404165 0)
(1.0025 0.00323345 0)
(1.00432 -0.00147915 0)
(1.00221 -0.00375072 0)
(0.999737 -0.00495996 0)
(0.999232 -0.0080411 0)
(0.996434 -0.00929881 0)
(0.993404 -0.00821952 0)
(0.991239 -0.00775368 0)
(0.98948 -0.00711298 0)
(0.987498 -0.00523605 0)
(0.987162 -0.00339298 0)
(0.987146 -0.00192302 0)
(0.999818 -0.00120454 0)
(0.998775 -0.00107697 0)
(0.999066 0.00160959 0)
(0.998965 -0.00325887 0)
(0.995609 -0.0019015 0)
(0.995225 0.00184226 0)
(0.997905 0.00253688 0)
(0.99918 0.00351562 0)
(1.00217 0.00288004 0)
(1.00386 -0.00131311 0)
(1.00204 -0.00359433 0)
(0.9995 -0.0046531 0)
(0.998971 -0.00728962 0)
(0.996652 -0.00863262 0)
(0.993876 -0.0077067 0)
(0.991669 -0.007052 0)
(0.990122 -0.00648128 0)
(0.988385 -0.00491022 0)
(0.988035 -0.00319065 0)
(0.987978 -0.00183744 0)
(0.999808 -0.00101427 0)
(0.998998 -0.00119886 0)
(0.999071 0.00135558 0)
(0.998898 -0.00267743 0)
(0.996031 -0.00184591 0)
(0.995619 0.00170063 0)
(0.99811 0.00242874 0)
(0.999299 0.00305751 0)
(1.00189 0.00253465 0)
(1.00343 -0.00117149 0)
(1.00188 -0.00342412 0)
(0.999316 -0.00436259 0)
(0.998736 -0.00656923 0)
(0.996839 -0.00795201 0)
(0.994363 -0.00722568 0)
(0.992138 -0.00642481 0)
(0.99073 -0.00585551 0)
(0.989229 -0.00456617 0)
(0.988897 -0.0029967 0)
(0.988811 -0.00174569 0)
(0.999801 -0.000844595 0)
(0.999207 -0.00126882 0)
(0.999112 0.00108432 0)
(0.998841 -0.00215134 0)
(0.99642 -0.00173537 0)
(0.996018 0.00151934 0)
(0.998304 0.00232357 0)
(0.999407 0.00267681 0)
(1.00164 0.00220346 0)
(1.00302 -0.00105517 0)
(1.00173 -0.00323988 0)
(0.999182 -0.00408512 0)
(0.998536 -0.00589307 0)
(0.996996 -0.00725904 0)
(0.994853 -0.00675312 0)
(0.992645 -0.00587313 0)
(0.991317 -0.00526011 0)
(0.990022 -0.00419004 0)
(0.98974 -0.00281154 0)
(0.989633 -0.00163755 0)
(0.999795 -0.000696111 0)
(0.999398 -0.00128614 0)
(0.999184 0.000800016 0)
(0.998798 -0.00169591 0)
(0.996773 -0.00156546 0)
(0.996417 0.0013116 0)
(0.998496 0.0022037 0)
(0.999502 0.00236051 0)
(1.00143 0.00189878 0)
(1.00265 -0.000950784 0)
(1.00159 -0.0030453 0)
(0.999095 -0.00380954 0)
(0.998375 -0.00526272 0)
(0.997124 -0.0065596 0)
(0.995329 -0.00627374 0)
(0.993188 -0.00539285 0)
(0.991903 -0.00470608 0)
(0.990765 -0.0037893 0)
(0.990555 -0.00261957 0)
(0.990444 -0.00153891 0)
(0.999792 -0.000570135 0)
(0.999568 -0.00124923 0)
(0.999279 0.000511898 0)
(0.998776 -0.00133349 0)
(0.997089 -0.00133252 0)
(0.996803 0.00110502 0)
(0.998686 0.00204763 0)
(0.999585 0.00209083 0)
(1.00125 0.00163377 0)
(1.0023 -0.00085445 0)
(1.00145 -0.00284287 0)
(0.999052 -0.00354543 0)
(0.998259 -0.00467639 0)
(0.99723 -0.00586756 0)
(0.995778 -0.00577746 0)
(0.993756 -0.00496012 0)
(0.992498 -0.00420678 0)
(0.991464 -0.00338397 0)
(0.991325 -0.00241096 0)
(0.991236 -0.00146592 0)
(0.999791 -0.000468543 0)
(0.999714 -0.0011664 0)
(0.999388 0.000232668 0)
(0.998782 -0.00106697 0)
(0.99737 -0.00105232 0)
(0.997166 0.000935435 0)
(0.998876 0.00186164 0)
(0.999663 0.00185554 0)
(1.00109 0.00141703 0)
(1.00199 -0.000761998 0)
(1.00132 -0.00263131 0)
(0.999048 -0.00329527 0)
(0.998189 -0.00414284 0)
(0.997321 -0.00519933 0)
(0.996194 -0.00526288 0)
(0.994337 -0.00455288 0)
(0.993111 -0.00377881 0)
(0.992131 -0.00300222 0)
(0.992041 -0.00217379 0)
(0.992006 -0.00140093 0)
(0.999792 -0.000387248 0)
(0.999833 -0.0010591 0)
(0.999501 -2.00279e-05 0)
(0.998816 -0.000884251 0)
(0.997624 -0.000757203 0)
(0.997496 0.000819002 0)
(0.999059 0.0016674 0)
(0.999739 0.0016397 0)
(1.00095 0.00123829 0)
(1.0017 -0.000665865 0)
(1.0012 -0.00240951 0)
(0.999079 -0.00304988 0)
(0.998169 -0.00366988 0)
(0.997409 -0.0045637 0)
(0.996573 -0.0047379 0)
(0.994909 -0.00416161 0)
(0.993733 -0.00340887 0)
(0.992789 -0.00267007 0)
(0.992704 -0.00191631 0)
(0.992726 -0.00131473 0)
(0.999794 -0.000322093 0)
(0.999926 -0.000943557 0)
(0.99961 -0.000227385 0)
(0.99888 -0.000764057 0)
(0.997857 -0.00048162 0)
(0.997787 0.000758625 0)
(0.999232 0.00148304 0)
(0.999814 0.00143945 0)
(1.00083 0.00108554 0)
(1.00144 -0.000557583 0)
(1.00109 -0.00217292 0)
(0.999135 -0.00280712 0)
(0.998198 -0.0032553 0)
(0.997501 -0.00397584 0)
(0.996913 -0.00421893 0)
(0.995462 -0.00378067 0)
(0.994358 -0.00307164 0)
(0.993446 -0.00238941 0)
(0.993337 -0.00168048 0)
(0.993374 -0.00117302 0)
(0.999796 -0.000272261 0)
(0.999997 -0.000827353 0)
(0.99971 -0.000379263 0)
(0.998968 -0.000690188 0)
(0.998077 -0.000254949 0)
(0.998042 0.000747696 0)
(0.999387 0.00132136 0)
(0.999888 0.00125114 0)
(1.00074 0.00096138 0)
(1.00121 -0.000439365 0)
(1.00098 -0.00191751 0)
(0.999207 -0.00256624 0)
(0.998272 -0.00289346 0)
(0.997608 -0.00344753 0)
(0.99722 -0.00371245 0)
(0.995988 -0.00340428 0)
(0.99497 -0.00275746 0)
(0.994093 -0.00213955 0)
(0.993965 -0.00149462 0)
(0.993957 -0.000988747 0)
(0.9998 -0.000234468 0)
(1.00005 -0.000718153 0)
(0.999799 -0.000476134 0)
(0.999074 -0.000652587 0)
(0.998291 -9.07605e-05 0)
(0.998263 0.000773591 0)
(0.999519 0.00119989 0)
(0.999962 0.00107886 0)
(1.00068 0.000853133 0)
(1.001 -0.000329037 0)
(1.00087 -0.00165065 0)
(0.999284 -0.00231105 0)
(0.998383 -0.00256878 0)
(0.997736 -0.00297793 0)
(0.997501 -0.00322837 0)
(0.996482 -0.00303766 0)
(0.995566 -0.00246716 0)
(0.994718 -0.00189357 0)
(0.994599 -0.00135516 0)
(0.994504 -0.000819343 0)
(0.999803 -0.000204552 0)
(1.00008 -0.000624319 0)
(0.999872 -0.000518175 0)
(0.99919 -0.000638878 0)
(0.998504 1.00183e-05 0)
(0.998461 0.000807937 0)
(0.999624 0.00113246 0)
(1.00003 0.000933155 0)
(1.00063 0.000746408 0)
(1.00084 -0.000230282 0)
(1.00076 -0.00138753 0)
(0.999358 -0.00203806 0)
(0.998518 -0.00226889 0)
(0.997887 -0.00256713 0)
(0.997761 -0.00277864 0)
(0.996937 -0.00267984 0)
(0.996146 -0.00220565 0)
(0.995312 -0.00165375 0)
(0.995218 -0.0012275 0)
(0.99505 -0.000707184 0)
(0.999807 -0.000180152 0)
(1.0001 -0.000547038 0)
(0.999931 -0.000516445 0)
(0.999307 -0.00063561 0)
(0.998717 6.25842e-05 0)
(0.998646 0.000833005 0)
(0.999707 0.00110428 0)
(1.00008 0.000825873 0)
(1.00061 0.000644772 0)
(1.0007 -0.000146322 0)
(1.00067 -0.00113796 0)
(0.999427 -0.00175476 0)
(0.998666 -0.00197299 0)
(0.998059 -0.00220531 0)
(0.998011 -0.00237376 0)
(0.997352 -0.00232977 0)
(0.996707 -0.00196622 0)
(0.995885 -0.00143846 0)
(0.995804 -0.00108005 0)
(0.995612 -0.000646827 0)
(0.999811 -0.000159449 0)
(1.00012 -0.000484956 0)
(0.999975 -0.000484956 0)
(0.99942 -0.000623535 0)
(0.998931 8.08298e-05 0)
(0.998824 0.000840373 0)
(0.99977 0.00110061 0)
(1.00012 0.000759898 0)
(1.0006 0.000561179 0)
(1.00061 -8.92071e-05 0)
(1.0006 -0.00091134 0)
(0.999496 -0.0014741 0)
(0.998816 -0.00167995 0)
(0.998239 -0.00187405 0)
(0.998255 -0.00201714 0)
(0.997729 -0.00199523 0)
(0.997237 -0.00173712 0)
(0.996446 -0.00126 0)
(0.996344 -0.000918617 0)
(0.996173 -0.000610845 0)
(0.999815 -0.000140335 0)
(1.00013 -0.000437771 0)
(1.00001 -0.000434795 0)
(0.999523 -0.000581534 0)
(0.999142 7.07232e-05 0)
(0.999003 0.000814885 0)
(0.999823 0.00110619 0)
(1.00013 0.000734057 0)
(1.0006 0.000502057 0)
(1.00054 -4.45935e-05 0)
(1.00055 -0.000720014 0)
(0.99957 -0.00121012 0)
(0.998969 -0.00139723 0)
(0.998423 -0.00156347 0)
(0.998496 -0.00169718 0)
(0.998077 -0.00169023 0)
(0.997726 -0.00151026 0)
(0.996998 -0.00111577 0)
(0.996849 -0.000765612 0)
(0.996712 -0.00055782 0)
(0.999819 -0.000122887 0)
(1.00013 -0.000399092 0)
(1.00004 -0.000377168 0)
(0.999613 -0.000504223 0)
(0.999342 5.3723e-05 0)
(0.999185 0.00075572 0)
(0.999875 0.00110133 0)
(1.00013 0.000735964 0)
(1.00059 0.000469856 0)
(1.0005 -2.02637e-06 0)
(1.00053 -0.00056036 0)
(0.999656 -0.000972884 0)
(0.999126 -0.00112852 0)
(0.998605 -0.00127032 0)
(0.998726 -0.00140059 0)
(0.998399 -0.00141725 0)
(0.998171 -0.00128923 0)
(0.997531 -0.000988718 0)
(0.997337 -0.000644191 0)
(0.997203 -0.000476503 0)
(0.999824 -0.000107779 0)
(1.00014 -0.000362241 0)
(1.00006 -0.000320467 0)
(0.999691 -0.000407315 0)
(0.999524 5.36496e-05 0)
(0.99937 0.000670604 0)
(0.999935 0.00107444 0)
(1.00013 0.000754855 0)
(1.00058 0.000472061 0)
(1.00048 4.10732e-05 0)
(1.00054 -0.000421977 0)
(0.999755 -0.000773097 0)
(0.999292 -0.000885659 0)
(0.998788 -0.000997111 0)
(0.998944 -0.00112496 0)
(0.998698 -0.00116612 0)
(0.998574 -0.00108494 0)
(0.998033 -0.000863054 0)
(0.99782 -0.000556744 0)
(0.99765 -0.000385687 0)
(0.999828 -9.58503e-05 0)
(1.00014 -0.000323425 0)
(1.00009 -0.000268149 0)
(0.999759 -0.000309625 0)
(0.999681 8.3041e-05 0)
(0.999549 0.000579054 0)
(1.00001 0.00101868 0)
(1.00012 0.000780202 0)
(1.00057 0.000501989 0)
(1.00047 9.66688e-05 0)
(1.00055 -0.000295934 0)
(0.999868 -0.000603628 0)
(0.999472 -0.00067802 0)
(0.998973 -0.000749112 0)
(0.99915 -0.000871588 0)
(0.998971 -0.000931087 0)
(0.998938 -0.000895168 0)
(0.998496 -0.00073979 0)
(0.998294 -0.000490533 0)
(0.998069 -0.000309877 0)
(0.999832 -8.62203e-05 0)
(1.00014 -0.000284033 0)
(1.00011 -0.000219678 0)
(0.999823 -0.000219833 0)
(0.999813 0.000136092 0)
(0.999714 0.000503458 0)
(1.0001 0.000940703 0)
(1.00012 0.000799214 0)
(1.00055 0.000548328 0)
(1.00046 0.000165882 0)
(1.00058 -0.000174707 0)
(0.999988 -0.000449732 0)
(0.999665 -0.000511783 0)
(0.999168 -0.000537331 0)
(0.999348 -0.000640754 0)