/*--------------------------------*- C++ -*----------------------------------*\
| =========                 |                                                 |
| \\      /  F ield         | OpenFOAM: The Open Source CFD Toolbox           |
|  \\    /   O peration     | Version:  v1912                                 |
|   \\  /    A nd           | Website:  www.openfoam.com                      |
|    \\/     M anipulation  |                                                 |
\*---------------------------------------------------------------------------*/
FoamFile
{
    version     2.0;
    format      ascii;
    class       surfaceScalarField;
    location    "2.35";
    object      phi;
}
// * * * * * * * * * * * * * * * * * * * * * * * * * * * * * * * * * * * * * //

dimensions      [0 3 -1 0 0 0 0];
oriented        oriented;


internalField   nonuniform List<scalar> 
19000
(
1.157e-06
-4.00875e-07
1.17587e-06
-8.18265e-08
1.18647e-06
7.34085e-07
1.15947e-06
5.06412e-07
1.1547e-06
9.90843e-08
1.12839e-06
-1.54208e-06
1.20439e-06
2.38078e-07
1.17311e-06
-1.09464e-06
1.17462e-06
-3.85945e-07
1.19041e-06
9.02407e-07
1.14981e-06
5.69509e-07
1.17621e-06
1.1176e-06
1.15945e-06
5.28973e-07
1.15016e-06
2.1926e-07
1.15706e-06
3.7367e-07
1.12523e-06
-5.24092e-07
1.15728e-06
2.79736e-07
1.10335e-06
-6.72077e-07
1.12608e-06
-2.64616e-08
-6.96078e-07
1.01826e-06
1.21388e-06
-3.90495e-07
1.23289e-06
-1.00836e-07
1.24171e-06
7.25268e-07
1.21692e-06
5.31203e-07
1.20994e-06
1.06065e-07
1.18363e-06
-1.51577e-06
1.25568e-06
1.66031e-07
1.22555e-06
-1.06451e-06
1.22516e-06
-3.85551e-07
1.25532e-06
8.7224e-07
1.20686e-06
6.17974e-07
1.2321e-06
1.09237e-06
1.21627e-06
5.44794e-07
1.21113e-06
2.24408e-07
1.20968e-06
3.75119e-07
1.19489e-06
-5.09303e-07
1.20762e-06
2.67009e-07
1.18341e-06
-6.47869e-07
1.17824e-06
-2.12897e-08
-6.40556e-07
1.12271e-06
1.27393e-06
-3.81645e-07
1.29265e-06
-1.19552e-07
1.29906e-06
7.18859e-07
1.27704e-06
5.53225e-07
1.26886e-06
1.1424e-07
1.24465e-06
-1.49155e-06
1.30886e-06
1.01816e-07
1.28628e-06
-1.04193e-06
1.27973e-06
-3.79007e-07
1.31494e-06
8.37035e-07
1.26964e-06
6.63273e-07
1.28192e-06
1.08009e-06
1.27506e-06
5.51658e-07
1.2691e-06
2.30361e-07
1.27389e-06
3.70328e-07
1.26093e-06
-4.96339e-07
1.27712e-06
2.50818e-07
1.25773e-06
-6.28482e-07
1.25878e-06
-2.23358e-08
-5.95991e-07
1.21422e-06
1.33704e-06
-3.74582e-07
1.35446e-06
-1.36973e-07
1.35854e-06
7.1478e-07
1.33939e-06
5.72375e-07
1.33114e-06
1.22486e-07
1.31111e-06
-1.47152e-06
1.36413e-06
4.88005e-08
1.35311e-06
-1.03091e-06
1.33744e-06
-3.63333e-07
1.36743e-06
8.07042e-07
1.33371e-06
6.96992e-07
1.33497e-06
1.07883e-06
1.3343e-06
5.52326e-07
1.33413e-06
2.30535e-07
1.3405e-06
3.63952e-07
1.32856e-06
-4.84396e-07
1.34259e-06
2.36783e-07
1.32095e-06
-6.06837e-07
1.32341e-06
-2.47964e-08
-5.47147e-07
1.27456e-06
1.40322e-06
-3.69448e-07
1.41804e-06
-1.51795e-07
1.42004e-06
7.1278e-07
1.40393e-06
5.88483e-07
1.39715e-06
1.29272e-07
1.38175e-06
-1.45613e-06
1.42243e-06
8.12001e-09
1.42071e-06
-1.02919e-06
1.39957e-06
-3.4219e-07
1.41858e-06
7.88027e-07
1.39792e-06
7.1765e-07
1.39735e-06
1.0794e-06
1.40074e-06
5.48936e-07
1.40516e-06
2.26121e-07
1.41424e-06
3.54873e-07
1.40069e-06
-4.70853e-07
1.41545e-06
2.22026e-07
1.39027e-06
-5.81654e-07
1.39386e-06
-2.83883e-08
-4.96612e-07
1.34332e-06
1.4724e-06
-3.66176e-07
1.48382e-06
-1.63213e-07
1.48393e-06
7.12674e-07
1.47116e-06
6.01248e-07
1.46702e-06
1.33415e-07
1.45538e-06
-1.44449e-06
1.48439e-06
-2.08882e-08
1.48606e-06
-1.03086e-06
1.46494e-06
-3.21068e-07
1.47485e-06
7.78117e-07
1.46461e-06
7.27891e-07
1.46853e-06
1.07549e-06
1.47479e-06
5.42668e-07
1.48151e-06
2.19406e-07
1.49094e-06
3.45443e-07
1.47583e-06
-4.55748e-07
1.49005e-06
2.07808e-07
1.46137e-06
-5.52969e-07
1.46581e-06
-3.28293e-08
-4.44397e-07
1.41359e-06
1.54441e-06
-3.64368e-07
1.55257e-06
-1.71371e-07
1.5511e-06
7.1414e-07
1.54185e-06
6.10499e-07
1.54064e-06
1.3463e-07
1.53147e-06
-1.43533e-06
1.55041e-06
-3.98293e-08
1.5495e-06
-1.02995e-06
1.53155e-06
-3.03112e-07
1.53794e-06
7.71727e-07
1.53574e-06
7.30082e-07
1.54592e-06
1.06531e-06
1.55367e-06
5.34915e-07
1.56112e-06
2.11955e-07
1.56961e-06
3.36953e-07
1.55262e-06
-4.38756e-07
1.56708e-06
1.93349e-07
1.53548e-06
-5.21368e-07
1.54107e-06
-3.84155e-08
-3.914e-07
1.48807e-06
1.61911e-06
-3.6335e-07
1.62487e-06
-1.77132e-07
1.62253e-06
7.16484e-07
1.61667e-06
6.16358e-07
1.61778e-06
1.33519e-07
1.60991e-06
-1.42746e-06
1.62075e-06
-5.06721e-08
1.61311e-06
-1.02231e-06
1.59864e-06
-2.8865e-07
1.60647e-06
7.63905e-07
1.61127e-06
7.2528e-07
1.62718e-06
1.04941e-06
1.63508e-06
5.2701e-07
1.64239e-06
2.04646e-07
1.64967e-06
3.29672e-07
1.63087e-06
-4.19954e-07
1.64601e-06
1.78206e-07
1.61214e-06
-4.87493e-07
1.61916e-06
-4.54338e-08
-3.38732e-07
1.56649e-06
1.6966e-06
-3.62377e-07
1.70095e-06
-1.81481e-07
1.69875e-06
7.18687e-07
1.69598e-06
6.19123e-07
1.69829e-06
1.31214e-07
1.69072e-06
-1.41989e-06
1.69557e-06
-5.55232e-08
1.67933e-06
-1.00607e-06
1.6672e-06
-2.76516e-07
1.67892e-06
7.52185e-07
1.69003e-06
7.14169e-07
1.71055e-06
1.02888e-06
1.71789e-06
5.19677e-07
1.72468e-06
1.9785e-07
1.73104e-06
3.2331e-07
1.71059e-06
-3.99504e-07
1.72678e-06
1.62021e-07
1.6913e-06
-4.52014e-07
1.69977e-06
-5.39067e-08
-2.87691e-07
1.64873e-06
1.77717e-06
-3.60823e-07
1.78076e-06
-1.85071e-07
1.77979e-06
7.19655e-07
1.77991e-06
6.19007e-07
1.78216e-06
1.2896e-07
1.77393e-06
-1.41165e-06
1.77495e-06
-5.65457e-08
1.75035e-06
-9.81467e-07
1.73907e-06
-2.65241e-07
1.75476e-06
7.36501e-07
1.77112e-06
6.97808e-07
1.7952e-06
1.0048e-06
1.8019e-06
5.12982e-07
1.8082e-06
1.91548e-07
1.81414e-06
3.17369e-07
1.79213e-06
-3.77494e-07
1.80945e-06
1.44699e-07
1.77304e-06
-4.15606e-07
1.78272e-06
-6.35826e-08
-2.39417e-07
1.73444e-06
1.86119e-06
-3.58263e-07
1.86422e-06
-1.88098e-07
1.8654e-06
7.18469e-07
1.86841e-06
6.15994e-07
1.86957e-06
1.27803e-07
1.85968e-06
-1.40176e-06
1.85892e-06
-5.579e-08
1.82776e-06
-9.50311e-07
1.81627e-06
-2.53747e-07
1.83449e-06
7.1828e-07
1.85462e-06
6.77682e-07
1.88141e-06
9.78005e-07
1.88776e-06
5.06632e-07
1.89371e-06
1.85599e-07
1.89971e-06
3.11363e-07
1.87612e-06
-3.53899e-07
1.89436e-06
1.26453e-07
1.85765e-06
-3.78891e-07
1.86809e-06
-7.40237e-08
-1.94721e-07
1.82339e-06
1.94906e-06
-3.54483e-07
1.95137e-06
-1.90412e-07
1.95532e-06
7.14526e-07
1.96143e-06
6.09881e-07
1.96088e-06
1.28355e-07
1.94833e-06
-1.3892e-06
1.94743e-06
-5.48901e-08
1.91239e-06
-9.15277e-07
1.90045e-06
-2.41806e-07
1.91941e-06
6.99323e-07
1.94166e-06
6.55433e-07
1.97035e-06
9.49308e-07
1.97661e-06
5.00378e-07
1.98217e-06
1.80031e-07
1.98856e-06
3.04976e-07
1.96331e-06
-3.28649e-07
1.98204e-06
1.07724e-07
1.94554e-06
-3.42395e-07
1.95618e-06
-8.46582e-08
-1.54143e-07
1.9156e-06
2.04118e-06
-3.49472e-07
2.04246e-06
-1.9169e-07
2.04936e-06
7.0762e-07
2.05878e-06
6.0046e-07
2.05647e-06
1.30664e-07
2.04042e-06
-1.37315e-06
2.04032e-06
-5.47888e-08
2.00415e-06
-8.79111e-07
1.99246e-06
-2.30116e-07
2.01088e-06
6.80905e-07
2.03373e-06
6.32589e-07
2.06339e-06
9.19649e-07
2.06951e-06
4.94256e-07
2.07443e-06
1.75107e-07
2.0813e-06
2.98108e-07
2.05442e-06
-3.01771e-07
2.07311e-06
8.90347e-08
2.03727e-06
-3.06558e-07
2.04742e-06
-9.48025e-08
-1.1808e-07
2.01136e-06
2.13792e-06
-3.43388e-07
2.13782e-06
-1.91598e-07
2.14747e-06
6.9797e-07
2.16022e-06
5.87711e-07
2.15667e-06
1.34219e-07
2.13657e-06
-1.35305e-06
2.13749e-06
-5.57136e-08
2.10231e-06
-8.4393e-07
2.09198e-06
-2.19785e-07
2.10941e-06
6.63478e-07
2.13167e-06
6.10325e-07
2.16123e-06
8.90093e-07
2.167e-06
4.88487e-07
2.17098e-06
1.71124e-07
2.17829e-06
2.90799e-07
2.15003e-06
-2.73514e-07
2.16821e-06
7.08555e-08
2.13343e-06
-2.71778e-07
2.14232e-06
-1.0369e-07
-8.68789e-08
2.11112e-06
2.23959e-06
-3.36489e-07
2.23793e-06
-1.89935e-07
2.24976e-06
6.86135e-07
2.26557e-06
5.71906e-07
2.2616e-06
1.38186e-07
2.2373e-06
-1.32875e-06
2.23902e-06
-5.74367e-08
2.20595e-06
-8.10856e-07
2.19769e-06
-2.11525e-07
2.21416e-06
6.47007e-07
2.2352e-06
5.89281e-07
2.26377e-06
8.61529e-07
2.26908e-06
4.83179e-07
2.27206e-06
1.68144e-07
2.27974e-06
2.83112e-07
2.25061e-06
-2.44376e-07
2.2679e-06
5.35648e-08
2.23457e-06
-2.38448e-07
2.24145e-06
-1.10578e-07
-6.07674e-08
2.21534e-06
2.34643e-06
-3.29039e-07
2.34322e-06
-1.86725e-07
2.35653e-06
6.72818e-07
2.37487e-06
5.53566e-07
2.37131e-06
1.41751e-07
2.343e-06
-1.30045e-06
2.34519e-06
-5.9627e-08
2.31441e-06
-7.80069e-07
2.30812e-06
-2.05234e-07
2.32365e-06
6.31474e-07
2.34341e-06
5.69524e-07
2.3706e-06
8.34337e-07
2.37562e-06
4.78158e-07
2.37787e-06
1.6589e-07
2.38591e-06
2.75079e-07
2.35652e-06
-2.14994e-07
2.37264e-06
3.74445e-08
2.34111e-06
-2.0691e-07
2.34545e-06
-1.14927e-07
-3.97144e-08
2.3244e-06
2.45859e-06
-3.21235e-07
2.45408e-06
-1.82213e-07
2.46822e-06
6.58675e-07
2.48848e-06
5.33314e-07
2.48582e-06
1.44405e-07
2.45397e-06
-1.2686e-06
2.45643e-06
-6.20836e-08
2.42746e-06
-7.51107e-07
2.42248e-06
-2.00247e-07
2.43687e-06
6.17078e-07
2.45567e-06
5.50728e-07
2.48168e-06
8.08324e-07
2.48676e-06
4.73076e-07
2.48876e-06
1.63891e-07
2.49712e-06
2.66725e-07
2.46814e-06
-1.86018e-07
2.48282e-06
2.27667e-08
2.45332e-06
-1.77412e-07
2.45487e-06
-1.16477e-07
-2.34026e-08
2.43856e-06
2.57624e-06
-3.13182e-07
2.57081e-06
-1.7678e-07
2.5853e-06
6.44184e-07
2.60689e-06
5.11722e-07
2.6053e-06
1.46001e-07
2.57045e-06
-1.23375e-06
2.57315e-06
-6.47853e-08
2.54527e-06
-7.23223e-07
2.54091e-06
-1.95886e-07
2.5539e-06
6.04086e-07
2.57217e-06
5.3246e-07
2.59755e-06
7.82942e-07
2.60299e-06
4.67637e-07
2.60517e-06
1.6171e-07
2.61377e-06
2.58124e-07
2.58575e-06
-1.57998e-07
2.5987e-06
9.81405e-09
2.57136e-06
-1.50071e-07
2.5701e-06
-1.15212e-07
-1.13345e-08
2.55803e-06
2.69955e-06
-3.04907e-07
2.69361e-06
-1.70837e-07
2.70816e-06
6.29632e-07
2.73065e-06
4.89232e-07
2.73e-06
1.4665e-07
2.6927e-06
-1.19645e-06
2.69575e-06
-6.7834e-08
2.66817e-06
-6.95645e-07
2.66409e-06
-1.91807e-07
2.67559e-06
5.92594e-07
2.69366e-06
5.14389e-07
2.71902e-06
7.57578e-07
2.7249e-06
4.61754e-07
2.7275e-06
1.59118e-07
2.73624e-06
2.49385e-07
2.70955e-06
-1.31314e-07
2.72054e-06
-1.17976e-09
2.69533e-06
-1.24858e-07
2.69145e-06
-1.11329e-07
-2.90704e-09
2.68302e-06
2.82875e-06
-2.96387e-07
2.82265e-06
-1.64739e-07
2.83713e-06
6.15151e-07
2.86021e-06
4.66153e-07
2.8603e-06
1.46558e-07
2.82097e-06
-1.15712e-06
2.82452e-06
-7.13774e-08
2.79659e-06
-6.67715e-07
2.7928e-06
-1.8802e-07
2.80297e-06
5.82418e-07
2.82101e-06
4.96351e-07
2.84684e-06
7.31753e-07
2.85303e-06
4.55564e-07
2.85607e-06
1.56078e-07
2.8648e-06
2.4065e-07
2.83965e-06
-1.06161e-07
2.84858e-06
-1.01154e-08
2.82536e-06
-1.01629e-07
2.81914e-06
-1.05114e-07
2.44811e-09
2.81379e-06
2.96409e-06
-2.87584e-07
2.95811e-06
-1.58752e-07
2.97248e-06
6.00781e-07
2.99593e-06
4.42702e-07
2.99658e-06
1.45901e-07
2.95554e-06
-1.11607e-06
2.95972e-06
-7.55612e-08
2.93093e-06
-6.38923e-07
2.92762e-06
-1.8471e-07
2.93689e-06
5.73146e-07
2.95491e-06
4.78328e-07
2.98151e-06
7.05157e-07
2.98774e-06
4.49336e-07
2.9911e-06
1.52709e-07
2.99972e-06
2.32037e-07
2.97612e-06
-8.25625e-08
2.98308e-06
-1.70716e-08
2.96163e-06
-8.01875e-08
2.95335e-06
-9.68257e-08
5.22113e-09
2.95057e-06
3.10588e-06
-2.78462e-07
3.10018e-06
-1.5305e-07
3.11444e-06
5.86523e-07
3.13809e-06
4.19051e-07
3.13922e-06
1.44776e-07
3.09669e-06
-1.07354e-06
3.10163e-06
-8.05057e-08
3.07161e-06
-6.08903e-07
3.06895e-06
-1.82051e-07
3.07785e-06
5.6425e-07
3.09577e-06
4.60402e-07
3.12331e-06
6.7762e-07
3.1293e-06
4.43352e-07
3.13277e-06
1.49236e-07
3.14124e-06
2.23569e-07
3.11906e-06
-6.03827e-08
3.12422e-06
-2.2235e-08
3.10447e-06
-6.04345e-08
3.09428e-06
-8.66401e-08
5.88131e-09
3.09362e-06
3.25445e-06
-2.68998e-07
3.24913e-06
-1.47734e-07
3.26329e-06
5.72368e-07
3.28697e-06
3.9537e-07
3.28856e-06
1.43185e-07
3.24474e-06
-1.02973e-06
3.25053e-06
-8.62941e-08
3.21903e-06
-5.77406e-07
3.2171e-06
-1.80114e-07
3.22614e-06
5.55203e-07
3.24381e-06
4.42739e-07
3.27238e-06
6.49044e-07
3.27792e-06
4.37815e-07
3.28123e-06
1.45922e-07
3.28963e-06
2.15174e-07
3.26861e-06
-3.93657e-08
3.27219e-06
-2.58175e-08
3.25426e-06
-4.25004e-08
3.24221e-06
-7.45939e-08
4.92645e-09
3.24317e-06
3.41012e-06
-2.59187e-07
3.40524e-06
-1.42856e-07
3.41931e-06
5.58305e-07
3.44282e-06
3.71856e-07
3.44494e-06
1.41059e-07
3.40004e-06
-9.84824e-07
3.40671e-06
-9.29623e-08
3.3736e-06
-5.443e-07
3.37231e-06
-1.78828e-07
3.38197e-06
5.45543e-07
3.39913e-06
4.25582e-07
3.42881e-06
6.19365e-07
3.43383e-06
4.32794e-07
3.43671e-06
1.4304e-07
3.44518e-06
2.06702e-07
3.42505e-06
-1.92281e-08
3.42719e-06
-2.79574e-08
3.41141e-06
-2.67218e-08
3.39755e-06
-6.07374e-08
3.02794e-09
3.39945e-06
3.57326e-06
-2.49039e-07
3.56885e-06
-1.38441e-07
3.58284e-06
5.44318e-07
3.60595e-06
3.4874e-07
3.60872e-06
1.38288e-07
3.5629e-06
-9.39005e-07
3.57043e-06
-1.00488e-07
3.53571e-06
-5.09578e-07
3.53489e-06
-1.78007e-07
3.54553e-06
5.349e-07
3.56189e-06
4.09227e-07
3.59269e-06
5.88563e-07
3.59729e-06
4.28196e-07
3.59948e-06
1.40848e-07
3.60822e-06
1.97959e-07
3.58874e-06
2.47506e-10
3.58944e-06
-2.86489e-08
3.57618e-06
-1.3471e-08
3.5608e-06
-4.53527e-08
1.06466e-09
3.56276e-06
3.74424e-06
-2.38572e-07
3.7403e-06
-1.34497e-07
3.75425e-06
5.3036e-07
3.77671e-06
3.26286e-07
3.78025e-06
1.34749e-07
3.73368e-06
-8.92443e-07
3.74198e-06
-1.08785e-07
3.70578e-06
-4.73381e-07
3.70516e-06
-1.77381e-07
3.71708e-06
5.22981e-07
3.73231e-06
3.93999e-07
3.76418e-06
5.5669e-07
3.76861e-06
4.23766e-07
3.76985e-06
1.39611e-07
3.77906e-06
1.88742e-07
3.76018e-06
1.91344e-08
3.75922e-06
-2.76909e-08
3.74881e-06
-3.05979e-09
3.73248e-06
-2.90238e-08
4.38987e-12
3.73354e-06
3.92343e-06
-2.27812e-07
3.91995e-06
-1.3102e-07
3.93397e-06
5.16342e-07
3.95548e-06
3.04773e-07
3.95989e-06
1.30342e-07
3.91273e-06
-8.45282e-07
3.92165e-06
-1.17702e-07
3.88427e-06
-4.36007e-07
3.88353e-06
-1.76636e-07
3.89695e-06
5.09555e-07
3.91075e-06
3.80201e-07
3.94353e-06
5.23912e-07
3.94816e-06
4.19132e-07
3.9482e-06
1.39575e-07
3.95803e-06
1.78905e-07
3.93986e-06
3.73057e-08
3.9369e-06
-2.47291e-08
3.92947e-06
4.36828e-09
3.91303e-06
-1.2579e-08
7.61606e-10
3.91227e-06
4.11123e-06
-2.16787e-07
4.10819e-06
-1.27983e-07
4.12241e-06
5.0212e-07
4.14271e-06
2.84474e-07
4.14805e-06
1.25e-07
4.10041e-06
-7.97637e-07
4.10973e-06
-1.27027e-07
4.07163e-06
-3.97908e-07
4.07042e-06
-1.75428e-07
4.08555e-06
4.94427e-07
4.09769e-06
3.68062e-07
4.13106e-06
4.90545e-07
4.13633e-06
4.13862e-07
4.13498e-06
1.40926e-07
4.14542e-06
1.68463e-07
4.12831e-06
5.44111e-08
4.12301e-06
-1.94217e-08
4.11838e-06
8.99665e-09
4.10279e-06
3.00277e-09
3.95199e-09
4.0996e-06
4.30805e-06
-2.05535e-07
4.3054e-06
-1.25328e-07
4.32001e-06
4.87505e-07
4.33885e-06
2.65635e-07
4.34515e-06
1.187e-07
4.29713e-06
-7.49614e-07
4.30658e-06
-1.36482e-07
4.26833e-06
-3.5966e-07
4.26631e-06
-1.73403e-07
4.28328e-06
4.77455e-07
4.29366e-06
3.57687e-07
4.32716e-06
4.57037e-07
4.33351e-06
4.07519e-07
4.33065e-06
1.4378e-07
4.34152e-06
1.57593e-07
4.32597e-06
6.99609e-08
4.31818e-06
-1.16285e-08
4.31571e-06
1.14647e-08
4.30206e-06
1.66556e-08
9.75644e-09
4.29625e-06
4.51434e-06
-1.94101e-07
4.51198e-06
-1.22966e-07
4.52719e-06
4.72289e-07
4.54437e-06
2.48459e-07
4.5516e-06
1.11469e-07
4.50333e-06
-7.01346e-07
4.51258e-06
-1.45729e-07
4.47483e-06
-3.21911e-07
4.47164e-06
-1.70208e-07
4.49054e-06
4.58556e-07
4.49918e-06
3.49037e-07
4.53231e-06
4.23911e-07
4.54011e-06
3.99721e-07
4.53573e-06
1.48154e-07
4.54672e-06
1.46606e-07
4.53321e-06
8.34696e-08
4.52308e-06
-1.49567e-09
4.52187e-06
1.26733e-08
4.51092e-06
2.76109e-08
1.7696e-08
4.50298e-06
4.73056e-06
-1.82543e-07
4.72837e-06
-1.20779e-07
4.74433e-06
4.56325e-07
4.75975e-06
2.33045e-07
4.76783e-06
1.03383e-07
4.71951e-06
-6.53027e-07
4.72816e-06
-1.54379e-07
4.69157e-06
-2.85318e-07
4.68689e-06
-1.65532e-07
4.7077e-06
4.37752e-07
4.71483e-06
3.4191e-07
4.74699e-06
3.9175e-07
4.75654e-06
3.90169e-07
4.75076e-06
1.53928e-07
4.76141e-06
1.35957e-07
4.75039e-06
9.4498e-08
4.73831e-06
1.0577e-08
4.73735e-06
1.36349e-08
4.72954e-06
3.54253e-08
2.69406e-08
4.72029e-06
4.95718e-06
-1.70927e-07
4.95503e-06
-1.18629e-07
4.97184e-06
4.39518e-07
4.98548e-06
2.19404e-07
4.99426e-06
9.46035e-08
4.94618e-06
-6.04945e-07
4.95381e-06
-1.62007e-07
4.919e-06
-2.50508e-07
4.91259e-06
-1.59121e-07
4.93516e-06
4.15174e-07
4.94109e-06
3.35986e-07
4.97173e-06
3.61111e-07
4.9832e-06
3.78699e-07
4.97629e-06
1.60837e-07
4.98608e-06
1.26167e-07
4.97784e-06
1.02739e-07
4.96446e-06
2.39553e-08
4.96276e-06
1.53316e-08
4.95807e-06
4.01156e-08
3.63522e-08
4.94866e-06
5.19472e-06
-1.59331e-07
5.19246e-06
-1.1637e-07
5.21016e-06
4.21816e-07
5.22211e-06
2.07459e-07
5.23133e-06
8.53816e-08
5.18385e-06
-5.5747e-07
5.19004e-06
-1.68197e-07
5.15753e-06
-2.17995e-07
5.14926e-06
-1.50847e-07
5.17334e-06
3.91087e-07
5.17849e-06
3.30842e-07
5.20708e-06
3.32513e-07
5.22051e-06
3.65273e-07
5.21286e-06
1.68488e-07
5.22128e-06
1.17751e-07
5.21589e-06
1.08123e-07
5.20199e-06
3.78525e-08
5.19886e-06
1.84686e-08
5.19672e-06
4.22564e-08
4.47107e-08
5.18836e-06
5.44369e-06
-1.47834e-07
5.44118e-06
-1.13857e-07
5.45978e-06
4.03213e-07
5.47018e-06
1.97068e-07
5.47953e-06
7.60254e-08
5.43306e-06
-5.10999e-07
5.43746e-06
-1.72599e-07
5.40758e-06
-1.88111e-07
5.39747e-06
-1.40743e-07
5.4227e-06
3.65861e-07
5.4275e-06
3.26039e-07
5.45365e-06
3.06365e-07
5.46893e-06
3.49997e-07
5.46104e-06
1.76379e-07
5.46757e-06
1.1122e-07
5.46498e-06
1.10715e-07
5.45132e-06
5.15068e-08
5.44646e-06
2.33304e-08
5.44585e-06
4.28685e-08
5.10099e-08
5.43955e-06
5.70465e-06
-1.36522e-07
5.70174e-06
-1.1095e-07
5.72121e-06
3.83738e-07
5.73027e-06
1.88012e-07
5.7394e-06
6.68929e-08
5.69433e-06
-4.65926e-07
5.69672e-06
-1.74987e-07
5.66959e-06
-1.60983e-07
5.65783e-06
-1.28981e-07
5.68374e-06
3.39948e-07
5.68865e-06
3.21133e-07
5.71206e-06
2.82956e-07
5.72895e-06
3.33103e-07
5.72131e-06
1.84017e-07
5.72564e-06
1.06888e-07
5.7255e-06
1.10853e-07
5.71282e-06
6.41878e-08
5.70633e-06
2.98195e-08
5.7062e-06
4.29986e-08
5.48772e-08
5.70234e-06
5.97815e-06
-1.25479e-07
5.97471e-06
-1.07507e-07
5.99499e-06
3.63457e-07
6.00299e-06
1.80007e-07
6.01152e-06
5.83644e-08
5.9682e-06
-4.226e-07
5.96847e-06
-1.75266e-07
5.94405e-06
-1.36562e-07
5.93092e-06
-1.15844e-07
5.95703e-06
3.13836e-07
5.96247e-06
3.15689e-07
5.98294e-06
2.62485e-07
6.0011e-06
3.14944e-07
5.99427e-06
1.90853e-07
5.99624e-06
1.04915e-07
5.99801e-06
1.09085e-07
5.9869e-06
7.52963e-08
5.9792e-06
3.75214e-08
5.97868e-06
4.35157e-08
5.6663e-08
5.97689e-06
6.2648e-06
-1.14787e-07
6.26068e-06
-1.03386e-07
6.28168e-06
3.42453e-07
6.28896e-06
1.72729e-07
6.29653e-06
5.07891e-08
6.25519e-06
-3.81262e-07
6.25342e-06
-1.73489e-07
6.23152e-06
-1.14669e-07
6.21732e-06
-1.01643e-07
6.24319e-06
2.8797e-07
6.24953e-06
3.09345e-07
6.267e-06
2.4502e-07
6.28602e-06
2.95921e-07
6.28044e-06
1.96435e-07
6.28014e-06
1.05209e-07
6.28314e-06
1.06085e-07
6.27401e-06
8.44304e-08
6.26561e-06
4.59202e-08
6.26426e-06
4.48612e-08
5.71947e-08
6.26373e-06
6.56521e-06
-1.04525e-07
6.56026e-06
-9.84404e-08
6.58189e-06
3.20823e-07
6.58876e-06
1.65857e-07
6.59513e-06
4.4425e-08
6.55589e-06
-3.42026e-07
6.55221e-06
-1.69811e-07
6.53263e-06
-9.50836e-08
6.51762e-06
-8.66312e-08
6.54291e-06
2.62678e-07
6.5504e-06
3.01853e-07
6.56493e-06
2.30493e-07
6.58434e-06
2.76513e-07
6.58047e-06
2.00302e-07
6.57811e-06
1.07569e-07
6.58161e-06
1.02587e-07
6.57469e-06
9.13466e-08
6.56607e-06
5.45426e-08
6.56381e-06
4.71231e-08
5.73009e-08
6.5637e-06
6.88003e-06
-9.47633e-08
6.8741e-06
-9.25159e-08
6.89625e-06
2.98674e-07
6.90305e-06
1.59058e-07
6.90802e-06
3.94526e-08
6.8709e-06
-3.049e-07
6.86552e-06
-1.6443e-07
6.84808e-06
-7.76501e-08
6.83243e-06
-7.09793e-08
6.85684e-06
2.38271e-07
6.86567e-06
2.93025e-07
6.87748e-06
2.18684e-07
6.89675e-06
2.5724e-07
6.89498e-06
2.02075e-07
6.89092e-06
1.11628e-07
6.89417e-06
9.93306e-08
6.88951e-06
9.60073e-08
6.88109e-06
6.29614e-08
6.8781e-06
5.0114e-08
5.75159e-08
6.87789e-06
7.20993e-06
-8.55591e-08
7.20292e-06
-8.55048e-08
7.22543e-06
2.76169e-07
7.23245e-06
1.52031e-07
7.23597e-06
3.5939e-08
7.20089e-06
-2.69829e-07
7.194e-06
-1.57533e-07
7.17866e-06
-6.23082e-08
7.16248e-06
-5.48044e-08
7.18566e-06
2.1509e-07
7.19595e-06
2.82732e-07
7.2054e-06
2.09237e-07
7.22398e-06
2.38663e-07
7.22455e-06
2.01506e-07
7.21944e-06
1.16741e-07
7.22179e-06
9.6972e-08
7.21919e-06
9.86076e-08
7.21137e-06
7.07897e-08
7.20774e-06
5.37422e-08
5.79401e-08
7.20731e-06
7.55562e-06
-7.69555e-08
7.54759e-06
-7.74681e-08
7.5701e-06
2.53653e-07
7.57764e-06
1.44495e-07
7.57971e-06
3.38636e-08
7.54661e-06
-2.36726e-07
7.53837e-06
-1.4929e-07
7.52505e-06
-4.89934e-08
7.50855e-06
-3.83038e-08
7.5301e-06
1.93545e-07
7.54193e-06
2.70903e-07
7.54942e-06
2.01745e-07
7.56687e-06
2.21213e-07
7.56977e-06
1.98606e-07
7.56448e-06
1.22033e-07
7.56568e-06
9.57637e-08
7.56462e-06
9.96744e-08
7.55771e-06
7.76988e-08
7.5534e-06
5.80464e-08
5.83102e-08
7.55303e-06
7.91783e-06
-6.89731e-08
7.90893e-06
-6.85686e-08
7.93104e-06
2.31541e-07
7.93929e-06
1.36242e-07
7.94006e-06
3.30968e-08
7.90882e-06
-2.05481e-07
7.89934e-06
-1.39812e-07
7.88796e-06
-3.76125e-08
7.87149e-06
-2.184e-08
7.89089e-06
1.74151e-07
7.9043e-06
2.57491e-07
7.91027e-06
1.95773e-07
7.92616e-06
2.0532e-07
7.93131e-06
1.93455e-07
7.92669e-06
1.26652e-07
7.927e-06
9.54534e-08
7.9274e-06
9.92811e-08
7.92165e-06
8.34491e-08
7.91699e-06
6.2699e-08
5.86751e-08
7.91663e-06
8.29731e-06
-6.16003e-08
8.28778e-06
-5.90389e-08
8.30903e-06
2.1029e-07
8.31816e-06
1.27113e-07
8.31782e-06
3.34329e-08
8.28831e-06
-1.75965e-07
8.27768e-06
-1.29188e-07
8.2681e-06
-2.80272e-08
8.25208e-06
-5.8209e-09
8.26888e-06
1.57353e-07
8.28376e-06
2.42613e-07
8.28882e-06
1.90713e-07
8.30268e-06
1.91455e-07
8.30983e-06
1.86308e-07
8.30659e-06
1.2989e-07
8.30652e-06
9.55288e-08
8.30882e-06
9.69738e-08
8.30589e-06
8.63858e-08
8.30168e-06
6.69032e-08
5.96787e-08
8.30068e-06
8.69485e-06
-5.47892e-08
8.685e-06
-4.91835e-08
8.70489e-06
1.90398e-07
8.71499e-06
1.17015e-07
8.71388e-06
3.45405e-08
8.68592e-06
-1.48006e-07
8.67424e-06
-1.17511e-07
8.66627e-06
-2.00549e-08
8.65108e-06
9.37224e-09
8.66502e-06
1.43405e-07
8.68099e-06
2.26646e-07
8.68582e-06
1.85887e-07
8.69743e-06
1.79846e-07
8.70598e-06
1.77749e-07
8.70465e-06
1.3123e-07
8.7044e-06
9.57731e-08
8.70715e-06
9.42209e-08
8.70555e-06
8.79857e-08
8.70155e-06
7.09114e-08
6.12004e-08
8.70002e-06
9.11129e-06
-4.84585e-08
9.10144e-06
-3.93363e-08
9.11952e-06
1.72321e-07
9.13054e-06
1.05993e-07
9.12912e-06
3.59583e-08
9.10254e-06
-1.21426e-07
9.08992e-06
-1.04886e-07
9.08338e-06
-1.3515e-08
9.06927e-06
2.34767e-08
9.0803e-06
1.32377e-07
9.09689e-06
2.1006e-07
9.10205e-06
1.80729e-07
9.11142e-06
1.70469e-07
9.12049e-06
1.68688e-07
9.12086e-06
1.30857e-07
9.12034e-06
9.62938e-08
9.12203e-06
9.25316e-08
9.12093e-06
8.90857e-08
9.1173e-06
7.45385e-08
6.31289e-08
9.11537e-06
9.54751e-06
-4.25047e-08
9.53801e-06
-2.9843e-08
9.55388e-06
1.56454e-07
9.56567e-06
9.42046e-08
9.56446e-06
3.7169e-08
9.53914e-06
-9.61096e-08
9.52561e-06
-9.13587e-08
9.52022e-06
-8.12152e-09
9.50755e-06
3.61435e-08
9.51573e-06
1.24197e-07
9.53223e-06
1.9356e-07
9.53822e-06
1.74738e-07
9.54557e-06
1.63126e-07
9.55399e-06
1.60266e-07
9.55556e-06
1.29279e-07
9.55472e-06
9.71375e-08
9.55534e-06
9.19159e-08
9.55446e-06
8.99587e-08
9.55149e-06
7.75091e-08
6.5329e-08
9.54929e-06
1.00044e-05
-3.68144e-08
9.99569e-06
-2.1091e-08
1.00092e-05
1.42988e-07
1.00213e-05
8.20853e-08
1.00207e-05
3.77595e-08
9.99674e-06
-7.21635e-08
9.98228e-06
-7.68924e-08
9.97773e-06
-3.57143e-09
9.96671e-06
4.71591e-08
9.97222e-06
1.18689e-07
9.98786e-06
1.77915e-07
9.99501e-06
1.6759e-07
1.00006e-05
1.57503e-07
1.00077e-05
1.53184e-07
1.00098e-05
1.27182e-07
1.00089e-05
9.80184e-08
1.00093e-05
9.15074e-08
1.00086e-05
9.0662e-08
1.00064e-05
7.97786e-08
6.73543e-08
1.00043e-05
1.04831e-05
-3.12793e-08
1.04755e-05
-1.34631e-08
1.04865e-05
1.31964e-07
1.04984e-05
7.02162e-08
1.04987e-05
3.74376e-08
1.04764e-05
-4.98818e-08
1.0461e-05
-6.14462e-08
1.04569e-05
5.04204e-10
1.04476e-05
5.64186e-08
1.04509e-05
1.15464e-07
1.04647e-05
1.64028e-07
1.04729e-05
1.5945e-07
1.04777e-05
1.52724e-07
1.04833e-05
1.47533e-07
1.04855e-05
1.25024e-07
1.04851e-05
9.84315e-08
1.04858e-05
9.07891e-08
1.04857e-05
9.06883e-08
1.04839e-05
8.1616e-08
6.89416e-08
1.04823e-05
1.09845e-05
-2.58111e-08
1.09783e-05
-7.18952e-09
1.09871e-05
1.23179e-07
1.0998e-05
5.92644e-08
1.09994e-05
3.60693e-08
1.09792e-05
-2.96772e-08
1.09628e-05
-4.50391e-08
1.09588e-05
4.49578e-09
1.09514e-05
6.37655e-08
1.09528e-05
1.14075e-07
1.09643e-05
1.52501e-07
1.0973e-05
1.50819e-07
1.09779e-05
1.47808e-07
1.09825e-05
1.42949e-07
1.09847e-05
1.22831e-07
1.09847e-05
9.84061e-08
1.09859e-05
8.96217e-08
1.09869e-05
8.96972e-08
1.09855e-05
8.29237e-08
7.04282e-08
1.09841e-05
1.15099e-05
-2.03581e-08
1.15051e-05
-2.33117e-09
1.1512e-05
1.16264e-07
1.15214e-05
4.98543e-08
1.15238e-05
3.36747e-08
1.15061e-05
-1.20114e-08
1.1489e-05
-2.79586e-08
1.14846e-05
8.8818e-09
1.14792e-05
6.91911e-08
1.14795e-05
1.13822e-07
1.14885e-05
1.4345e-07
1.14971e-05
1.42233e-07
1.15026e-05
1.42288e-07
1.15067e-05
1.38859e-07
1.15088e-05
1.20754e-07
1.15091e-05
9.81236e-08
1.15103e-05
8.83668e-08
1.15122e-05
8.77801e-08
1.15119e-05
8.32786e-08
7.20465e-08
1.15103e-05
1.20604e-05
-1.49024e-08
1.20569e-05
1.17441e-09
1.20624e-05
1.1076e-07
1.20698e-05
4.24362e-08
1.20729e-05
3.05187e-08
1.20582e-05
2.72544e-09
1.20409e-05
-1.06795e-08
1.20358e-05
1.40193e-08
1.20321e-05
7.29041e-08
1.20319e-05
1.14002e-07
1.20387e-05
1.36631e-07
1.20467e-05
1.34263e-07
1.20529e-05
1.36105e-07
1.20569e-05
1.34785e-07
1.20588e-05
1.18908e-07
1.20592e-05
9.77209e-08
1.20603e-05
8.72173e-08
1.20626e-05
8.55174e-08
1.20636e-05
8.22798e-08
7.36054e-08
1.2062e-05
1.26372e-05
-9.47124e-09
1.26348e-05
3.53333e-09
1.26394e-05
1.0615e-07
1.26446e-05
3.72363e-08
1.26481e-05
2.70453e-08
1.26365e-05
1.43262e-08
1.26196e-05
6.19252e-09
1.26136e-05
2.0067e-08
1.26112e-05
7.52761e-08
1.26111e-05
1.14139e-07
1.26161e-05
1.31627e-07
1.2623e-05
1.2737e-07
1.26295e-05
1.2958e-07
1.26339e-05
1.3037e-07
1.26356e-05
1.1719e-07
1.2636e-05
9.7283e-08
1.26372e-05
8.60473e-08
1.26393e-05
8.34822e-08
1.26414e-05
8.01743e-08
7.43344e-08
1.26406e-05
1.32416e-05
-4.12691e-09
1.32401e-05
5.06838e-09
1.32443e-05
1.01902e-07
1.32473e-05
3.42413e-08
1.32506e-05
2.37719e-08
1.3242e-05
2.29091e-08
1.32263e-05
2.1922e-08
1.32193e-05
2.69772e-08
1.32179e-05
7.67718e-08
1.3218e-05
1.13974e-07
1.32217e-05
1.27973e-07
1.32273e-05
1.21765e-07
1.32337e-05
1.23118e-07
1.32386e-05
1.255e-07
1.32405e-05
1.15314e-07
1.32409e-05
9.69127e-08
1.32421e-05
8.48003e-08
1.32438e-05
8.17553e-08
1.32462e-05
7.77805e-08
7.35744e-08
1.3247e-05
1.3875e-05
1.04759e-09
1.38739e-05
6.14781e-09
1.38783e-05
9.75618e-08
1.38793e-05
3.32281e-08
1.38818e-05
2.11952e-08
1.38759e-05
2.88015e-08
1.3862e-05
3.58867e-08
1.38544e-05
3.45268e-08
1.38534e-05
7.78283e-08
1.3854e-05
1.13357e-07
1.38567e-05
1.25284e-07
1.38611e-05
1.17361e-07
1.3867e-05
1.17159e-07
1.38722e-05
1.20303e-07
1.38746e-05
1.12956e-07
1.38749e-05
9.66427e-08
1.38761e-05
8.35664e-08
1.38779e-05
7.99481e-08
1.38798e-05
7.58498e-08
7.14537e-08
1.3882e-05
1.45387e-05
5.96884e-09
1.45378e-05
7.08608e-09
1.45424e-05
9.29172e-08
1.4542e-05
3.37074e-08
1.45434e-05
1.97855e-08
1.45397e-05
3.25117e-08
1.45279e-05
4.76539e-08
1.45201e-05
4.23322e-08
1.45192e-05
7.87672e-08
1.45202e-05
1.12298e-07
1.45224e-05
1.23144e-07
1.45257e-05
1.14003e-07
1.4531e-05
1.11915e-07
1.45362e-05
1.15015e-07
1.45391e-05
1.10052e-07
1.45396e-05
9.62033e-08
1.45406e-05
8.26008e-08
1.45427e-05
7.78179e-08
1.45441e-05
7.43939e-08
6.88826e-08
1.45467e-05
1.52343e-05
1.05584e-08
1.52332e-05
8.12821e-09
1.52382e-05
8.80061e-08
1.52368e-05
3.51047e-08
1.52366e-05
1.99386e-08
1.52345e-05
3.46083e-08
1.52252e-05
5.69783e-08
1.52176e-05
4.99276e-08
1.52166e-05
7.98034e-08
1.52181e-05
1.10777e-07
1.522e-05
1.21222e-07
1.52225e-05
1.11468e-07
1.5227e-05
1.0742e-07
1.52321e-05
1.09922e-07
1.52355e-05
1.0671e-07
1.52364e-05
9.53082e-08
1.5237e-05
8.19801e-08
1.52393e-05
7.54956e-08
1.52408e-05
7.2891e-08
6.67231e-08
1.5243e-05
1.59631e-05
1.47604e-08
1.59619e-05
9.40694e-09
1.59668e-05
8.30695e-08
1.59649e-05
3.70031e-08
1.59629e-05
2.19012e-08
1.59617e-05
3.58107e-08
1.5955e-05
6.36998e-08
1.59481e-05
5.68714e-08
1.5947e-05
8.09043e-08
1.5949e-05
1.08762e-07
1.5951e-05
1.19223e-07
1.5953e-05
1.09462e-07
1.59568e-05
1.03635e-07
1.59615e-05
1.05157e-07
1.59651e-05
1.03101e-07
1.59666e-05
9.38738e-08
1.59671e-05
8.14968e-08
1.59692e-05
7.3355e-08
1.59712e-05
7.08749e-08
6.51595e-08
1.59728e-05
1.67268e-05
1.85367e-08
1.67252e-05
1.10012e-08
1.67299e-05
7.83742e-08
1.67278e-05
3.9094e-08
1.67241e-05
2.56573e-08
1.67229e-05
3.70095e-08
1.67185e-05
6.80716e-08
1.67127e-05
6.26881e-08
1.67118e-05
8.17759e-08
1.67144e-05
1.06205e-07
1.67167e-05
1.1688e-07
1.67185e-05
1.07711e-07
1.67217e-05
1.00449e-07
1.67261e-05
1.00712e-07
1.67298e-05
9.93807e-08
1.67317e-05
9.19914e-08
1.67324e-05
8.08339e-08
1.67341e-05
7.16697e-08
1.67366e-05
6.83588e-08
6.37844e-08
1.67379e-05
1.7527e-05
2.18644e-08
1.75251e-05
1.29818e-08
1.75294e-05
7.40564e-08
1.75273e-05
4.11399e-08
1.75224e-05
3.06176e-08
1.75206e-05
3.87579e-08
1.75178e-05
7.09095e-08
1.75132e-05
6.72309e-08
1.75128e-05
8.21971e-08
1.75159e-05
1.03114e-07
1.75188e-05
1.13991e-07
1.75206e-05
1.05948e-07
1.75233e-05
9.76865e-08
1.75274e-05
9.65855e-08
1.75312e-05
9.55773e-08
1.75335e-05
8.97411e-08
1.75344e-05
7.98845e-08
1.75358e-05
7.0365e-08
1.75384e-05
6.57302e-08
6.21042e-08
1.75401e-05
1.83655e-05
2.47386e-08
1.83631e-05
1.53244e-08
1.83669e-05
7.02467e-08
1.83652e-05
4.29281e-08
1.83597e-05
3.60987e-08
1.83574e-05
4.1029e-08
1.83556e-05
7.26914e-08
1.83522e-05
7.06889e-08
1.83519e-05
8.24357e-08
1.83554e-05
9.96697e-08
1.83588e-05
1.10511e-07
1.83608e-05
1.0397e-07
1.83633e-05
9.51741e-08
1.83672e-05
9.27271e-08
1.83712e-05
9.16034e-08
1.83737e-05
8.71715e-08
1.8375e-05
7.86258e-08
1.83761e-05
6.92526e-08
1.83785e-05
6.33844e-08
5.99553e-08
1.83806e-05
1.92439e-05
2.71865e-08
1.92414e-05
1.78903e-08
1.92445e-05
6.70972e-08
1.92432e-05
4.42863e-08
1.92378e-05
4.15128e-08
1.92351e-05
4.36556e-08
1.92341e-05
7.37483e-08