/*--------------------------------*- C++ -*----------------------------------*\
| =========                 |                                                 |
| \\      /  F ield         | OpenFOAM: The Open Source CFD Toolbox           |
|  \\    /   O peration     | Version:  v1912                                 |
|   \\  /    A nd           | Website:  www.openfoam.com                      |
|    \\/     M anipulation  |                                                 |
\*---------------------------------------------------------------------------*/
FoamFile
{
    version     2.0;
    format      ascii;
    class       volVectorField;
    location    "0.7";
    object      U;
}
// * * * * * * * * * * * * * * * * * * * * * * * * * * * * * * * * * * * * * //

dimensions      [0 1 -1 0 0 0 0];


internalField   nonuniform List<vector> 
9600
(
(0.892489 -0.00480645 0)
(1.11538 0.00771307 0)
(0.888077 0.00151119 0)
(1.07789 -0.00464115 0)
(0.877577 -0.0149594 0)
(1.17593 -0.00642254 0)
(0.940482 -0.00140763 0)
(1.09007 0.0129897 0)
(0.937418 0.0144699 0)
(1.10254 0.00383187 0)
(0.89622 0.000657603 0)
(1.11485 -0.00778917 0)
(0.865878 -0.0196525 0)
(1.11582 -0.00858798 0)
(0.880672 -0.0112404 0)
(1.13596 -0.0106466 0)
(0.880018 -0.0153328 0)
(1.13866 -0.007321 0)
(0.896922 -0.00897054 0)
(1.14846 -0.00131896 0)
(0.902163 -0.00491956 0)
(1.1073 0.00779376 0)
(0.90549 0.00172807 0)
(1.06401 -0.00438306 0)
(0.896659 -0.0162045 0)
(1.16063 -0.00694896 0)
(0.95373 -0.00046145 0)
(1.07942 0.0133174 0)
(0.957776 0.0141505 0)
(1.07839 0.00472804 0)
(0.935557 0.000211155 0)
(1.07208 -0.00703517 0)
(0.920694 -0.0197557 0)
(1.06345 -0.00881114 0)
(0.942409 -0.0117812 0)
(1.07076 -0.0107084 0)
(0.960686 -0.0151388 0)
(1.05231 -0.00841992 0)
(1.00205 -0.00845209 0)
(1.02959 -0.000997748 0)
(0.919068 -0.00503366 0)
(1.09053 0.00787605 0)
(0.931205 0.00199106 0)
(1.0433 -0.00426404 0)
(0.923261 -0.0171595 0)
(1.13038 -0.00733006 0)
(0.977124 0.000137882 0)
(1.05969 0.0133543 0)
(0.986574 0.0141067 0)
(1.0514 0.00495669 0)
(0.974943 0.000405861 0)
(1.03523 -0.00677682 0)
(0.964655 -0.0195165 0)
(1.0167 -0.00930433 0)
(0.981258 -0.0117886 0)
(1.02478 -0.0112855 0)
(0.996171 -0.0145688 0)
(1.01374 -0.00957207 0)
(1.01845 -0.00771172 0)
(1.01352 -0.00177935 0)
(0.939632 -0.00512006 0)
(1.06819 0.00785064 0)
(0.956663 0.00229364 0)
(1.02205 -0.00416922 0)
(0.949449 -0.0179255 0)
(1.09181 -0.00776104 0)
(0.999763 0.00077674 0)
(1.04099 0.0132604 0)
(1.00972 0.0141803 0)
(1.0339 0.00509038 0)
(0.999101 0.000670132 0)
(1.016 -0.00661804 0)
(0.985436 -0.019054 0)
(0.994686 -0.00968243 0)
(0.992241 -0.0118797 0)
(1.00644 -0.0117053 0)
(1.0005 -0.0142988 0)
(1.00433 -0.0101463 0)
(1.01159 -0.00769443 0)
(1.01252 -0.00131027 0)
(0.959715 -0.00517906 0)
(1.04512 0.00775044 0)
(0.976741 0.00261576 0)
(1.00608 -0.00409989 0)
(0.969515 -0.0184914 0)
(1.05467 -0.00823212 0)
(1.01322 0.00116092 0)
(1.02975 0.0131608 0)
(1.02355 0.0142567 0)
(1.02663 0.00524906 0)
(1.01013 0.000976516 0)
(1.0101 -0.0063842 0)
(0.993092 -0.0185437 0)
(0.988851 -0.00994293 0)
(0.993296 -0.0119537 0)
(0.99967 -0.0120477 0)
(0.9982 -0.0141063 0)
(1.00024 -0.0106 0)
(1.00588 -0.00767849 0)
(1.00809 -0.00136703 0)
(0.97605 -0.00520849 0)
(1.02561 0.00763528 0)
(0.989969 0.00290362 0)
(0.997884 -0.00405097 0)
(0.982298 -0.0188415 0)
(1.02579 -0.00866952 0)
(1.01625 0.00128114 0)
(1.0249 0.0130353 0)
(1.03026 0.014308 0)
(1.02491 0.00544119 0)
(1.01443 0.00128627 0)
(1.00991 -0.00611181 0)
(0.996599 -0.0180035 0)
(0.988847 -0.0101128 0)
(0.993459 -0.0119391 0)
(0.996351 -0.0123461 0)
(0.995507 -0.0139508 0)
(0.99681 -0.0109731 0)
(1.00131 -0.00769805 0)
(1.00314 -0.00137975 0)
(0.98723 -0.00520867 0)
(1.01177 0.00753026 0)
(0.997521 0.00310977 0)
(0.996316 -0.00400892 0)
(0.98966 -0.0189847 0)
(1.00679 -0.00901999 0)
(1.01221 0.00116256 0)
(1.02219 0.0128234 0)
(1.03231 0.0143264 0)
(1.02441 0.00565929 0)
(1.01602 0.00159688 0)
(1.01104 -0.00584084 0)
(0.999097 -0.0174281 0)
(0.990325 -0.0102356 0)
(0.994188 -0.0118452 0)
(0.994615 -0.0125729 0)
(0.992965 -0.0137867 0)
(0.99373 -0.0112254 0)
(0.996967 -0.00774721 0)
(0.998521 -0.00141184 0)
(0.993655 -0.00518454 0)
(1.00342 0.00743613 0)
(1.00148 0.00322447 0)
(0.998487 -0.00396982 0)
(0.993937 -0.0189516 0)
(0.995801 -0.00926405 0)
(1.00516 0.000885629 0)
(1.01848 0.0125005 0)
(1.03087 0.0143085 0)
(1.02298 0.00587176 0)
(1.01626 0.00188625 0)
(1.01196 -0.00558392 0)
(1.00106 -0.0168405 0)
(0.992052 -0.0103329 0)
(0.995178 -0.0116812 0)
(0.993842 -0.012692 0)
(0.990845 -0.0135904 0)
(0.990914 -0.0113775 0)
(0.992931 -0.00783133 0)
(0.994135 -0.00144134 0)
(0.996716 -0.00514159 0)
(0.999069 0.00734401 0)
(1.00352 0.00326266 0)
(1.00177 -0.00393818 0)
(0.996606 -0.0187802 0)
(0.990007 -0.00939401 0)
(0.997861 0.000551594 0)
(1.01297 0.0120867 0)
(1.02675 0.0142482 0)
(1.02025 0.00604088 0)
(1.01549 0.00213504 0)
(1.01238 -0.00535328 0)
(1.00249 -0.0162596 0)
(0.993603 -0.0104015 0)
(0.99611 -0.011464 0)
(0.993621 -0.012704 0)
(0.989325 -0.0133635 0)
(0.988506 -0.0114103 0)
(0.989343 -0.00790691 0)
(0.989995 -0.00145447 0)
(0.997892 -0.00508408 0)
(0.99706 0.0072449 0)
(1.00459 0.00324063 0)
(1.00466 -0.00391637 0)
(0.998279 -0.0185079 0)
(0.987215 -0.00941703 0)
(0.991753 0.00023973 0)
(1.00638 0.0116234 0)
(1.02097 0.0141357 0)
(1.01675 0.00613958 0)
(1.01396 0.00232608 0)
(1.0124 -0.00516054 0)
(1.00344 -0.015689 0)
(0.994778 -0.0104434 0)
(0.996788 -0.0112225 0)
(0.993712 -0.0126155 0)
(0.988412 -0.0130981 0)
(0.986695 -0.0113049 0)
(0.986363 -0.00794201 0)
(0.986237 -0.00146021 0)
(0.998231 -0.00501538 0)
(0.99622 0.00713377 0)
(1.00512 0.00317818 0)
(1.00665 -0.00390163 0)
(0.999177 -0.0181667 0)
(0.986077 -0.0093545 0)
(0.987397 -7.42765e-06 0)
(0.999961 0.0111495 0)
(1.01477 0.0139649 0)
(1.01327 0.00615505 0)
(1.01203 0.00244913 0)
(1.01214 -0.00500984 0)
(1.00401 -0.0151325 0)
(0.995519 -0.0104602 0)
(0.997134 -0.0109754 0)
(0.993963 -0.0124432 0)
(0.988026 -0.0127996 0)
(0.985536 -0.0110731 0)
(0.984142 -0.00791914 0)
(0.983069 -0.00144962 0)
(0.998286 -0.00493832 0)
(0.995908 0.00701073 0)
(1.00533 0.00309131 0)
(1.0078 -0.00389119 0)
(0.99948 -0.0177801 0)
(0.985819 -0.00923285 0)
(0.984818 -0.000176605 0)
(0.994726 0.010692 0)
(1.00922 0.013738 0)
(1.01038 0.0060887 0)
(1.01012 0.00250944 0)
(1.01174 -0.00489994 0)
(1.00433 -0.014593 0)
(0.995876 -0.0104427 0)
(0.99718 -0.0107397 0)
(0.994247 -0.012214 0)
(0.988028 -0.0124852 0)
(0.984955 -0.0107317 0)
(0.982738 -0.00781387 0)
(0.980696 -0.00140009 0)
(0.998278 -0.00485478 0)
(0.995832 0.00687704 0)
(1.00536 0.00299391 0)
(1.00833 -0.00388127 0)
(0.99941 -0.017363 0)
(0.985988 -0.00907958 0)
(0.983682 -0.000274156 0)
(0.991133 0.0102654 0)
(1.00495 0.0134635 0)
(1.00831 0.00595335 0)
(1.0085 0.00251885 0)
(1.01126 -0.00482304 0)
(1.00448 -0.0140705 0)
(0.995969 -0.0103824 0)
(0.997031 -0.0105329 0)
(0.99447 -0.0119458 0)
(0.988254 -0.0121601 0)
(0.9848 -0.010322 0)
(0.982077 -0.00760312 0)
(0.979221 -0.0012996 0)
(0.998272 -0.00476582 0)
(0.995866 0.00673349 0)
(1.00531 0.00289348 0)
(1.00847 -0.00387028 0)
(0.999178 -0.0169239 0)
(0.986322 -0.00891526 0)
(0.983491 -0.000318065 0)
(0.989095 0.0098709 0)
(1.00209 0.0131539 0)
(1.00698 0.00576767 0)
(1.00729 0.00248949 0)
(1.01075 -0.00476583 0)
(1.00453 -0.0135647 0)
(0.995934 -0.0102779 0)
(0.996801 -0.0103595 0)
(0.994594 -0.0116473 0)
(0.988551 -0.0118294 0)
(0.984903 -0.0098761 0)
(0.981976 -0.00729301 0)
(0.978587 -0.00117466 0)
(0.998282 -0.00467229 0)
(0.995948 0.00658117 0)
(1.00522 0.00279174 0)
(1.00839 -0.00385809 0)
(0.998931 -0.0164674 0)
(0.986694 -0.00875085 0)
(0.983784 -0.000327432 0)
(0.988214 0.00949903 0)
(1.00044 0.0128218 0)
(1.0062 0.00554932 0)
(1.00647 0.00243565 0)
(1.01024 -0.00471217 0)
(1.00449 -0.0130783 0)
(0.995876 -0.0101268 0)
(0.996573 -0.0102146 0)
(0.99463 -0.0113314 0)
(0.988824 -0.0114901 0)
(0.985133 -0.00941365 0)
(0.982222 -0.0069019 0)
(0.97861 -0.00105436 0)
(0.998306 -0.00457451 0)
(0.996049 0.00641995 0)
(1.00511 0.00269295 0)
(1.00818 -0.00384519 0)
(0.998736 -0.0159955 0)
(0.987056 -0.00859077 0)
(0.984246 -0.000317333 0)
(0.988036 0.00913901 0)
(0.999618 0.0124748 0)
(1.00575 0.00531494 0)
(1.00594 0.00236685 0)
(1.00974 -0.00464873 0)
(1.0044 -0.0126141 0)
(0.99585 -0.0099301 0)
(0.99639 -0.0100871 0)
(0.994612 -0.0110077 0)
(0.989041 -0.0111298 0)
(0.985409 -0.00897359 0)
(0.982637 -0.00645581 0)
(0.979057 -0.000941078 0)
(0.998342 -0.00447233 0)
(0.996152 0.00624953 0)
(1.00498 0.00259843 0)
(1.00792 -0.00383316 0)
(0.998605 -0.01551 0)
(0.987405 -0.00843537 0)
(0.984725 -0.000297654 0)
(0.988207 0.00878181 0)
(0.999278 0.0121181 0)
(1.00547 0.00507551 0)
(1.00558 0.0022845 0)
(1.00925 -0.004567 0)
(1.00426 -0.0121719 0)
(0.99587 -0.00969693 0)
(0.996261 -0.00996281 0)
(0.994576 -0.0106854 0)
(0.989213 -0.0107369 0)
(0.985698 -0.00857494 0)
(0.983116 -0.00598543 0)
(0.979723 -0.000827316 0)
(0.998386 -0.00436591 0)
(0.996253 0.00606992 0)
(1.00483 0.00250955 0)
(1.00763 -0.00382321 0)
(0.998521 -0.015012 0)
(0.987748 -0.00828348 0)
(0.985174 -0.000272996 0)
(0.98851 0.00842166 0)
(0.999164 0.0117505 0)
(1.00525 0.00484138 0)
(1.0053 0.00218168 0)
(1.00879 -0.00446008 0)
(1.00411 -0.011753 0)
(0.995924 -0.00943527 0)
(0.996179 -0.00983106 0)
(0.994546 -0.0103751 0)
(0.989364 -0.010303 0)
(0.985992 -0.0082006 0)
(0.983613 -0.0055139 0)
(0.980473 -0.000714312 0)
(0.998433 -0.00425509 0)
(0.996349 0.00588106 0)
(1.00467 0.00242693 0)
(1.00732 -0.00381605 0)
(0.998466 -0.0145027 0)
(0.988092 -0.00813405 0)
(0.985595 -0.00024555 0)
(0.988844 0.00805752 0)
(0.999126 0.0113698 0)
(1.00503 0.00461697 0)
(1.00505 0.00206053 0)
(1.00834 -0.00433208 0)
(1.00394 -0.0113526 0)
(0.995993 -0.00915176 0)
(0.99613 -0.0096807 0)
(0.994534 -0.0100833 0)
(0.989514 -0.00983232 0)
(0.986296 -0.00783951 0)
(0.984112 -0.00506122 0)
(0.981238 -0.00059473 0)
(0.998481 -0.00413973 0)
(0.996442 0.00568297 0)
(1.00451 0.00235035 0)
(1.00702 -0.00381171 0)
(0.998424 -0.0139829 0)
(0.988439 -0.00798545 0)
(0.986004 -0.000217302 0)
(0.989175 0.00768943 0)
(0.999095 0.0109782 0)
(1.0048 0.004406 0)
(1.00479 0.00192495 0)
(1.00789 -0.00418686 0)
(1.00377 -0.0109641 0)
(0.996064 -0.00885909 0)
(0.9961 -0.0094967 0)
(0.994544 -0.00981296 0)
(0.989672 -0.00933495 0)
(0.986611 -0.0074895 0)
(0.984616 -0.00465075 0)
(0.981992 -0.000465685 0)
(0.99853 -0.00401999 0)
(0.996533 0.00547593 0)
(1.00434 0.00228028 0)
(1.00672 -0.00381072 0)
(0.998386 -0.0134537 0)
(0.98879 -0.00783526 0)
(0.986414 -0.000190481 0)
(0.989496 0.00732034 0)
(0.999049 0.0105709 0)
(1.00456 0.00421568 0)
(1.00452 0.00177238 0)
(1.00745 -0.004023 0)
(1.0036 -0.0105845 0)
(0.996133 -0.00856655 0)
(0.996077 -0.00927245 0)
(0.994577 -0.00956446 0)
(0.989841 -0.00882142 0)
(0.986937 -0.00713226 0)
(0.985125 -0.00429305 0)
(0.982729 -0.000323742 0)
(0.99858 -0.00389551 0)
(0.996624 0.0052592 0)
(1.00417 0.00221689 0)
(1.00642 -0.00381225 0)
(0.998349 -0.0129179 0)
(0.989144 -0.00768279 0)
(0.98683 -0.000167065 0)
(0.989812 0.00695585 0)
(0.998989 0.0101418 0)
(1.0043 0.00404104 0)
(1.00425 0.00160705 0)
(1.00701 -0.00385026 0)
(1.00344 -0.0102044 0)
(0.996199 -0.00828054 0)
(0.996053 -0.00901309 0)
(0.99463 -0.00932465 0)
(0.990024 -0.00831329 0)
(0.987269 -0.00675246 0)
(0.985641 -0.00398753 0)
(0.983448 -0.000164656 0)
(0.99863 -0.00376637 0)
(0.996716 0.00503303 0)
(1.004 0.00215943 0)
(1.00613 -0.00381503 0)
(0.998314 -0.0123763 0)
(0.9895 -0.00752806 0)
(0.987253 -0.000149102 0)
(0.990128 0.00660115 0)
(0.998919 0.00968959 0)
(1.00403 0.00388084 0)
(1.00397 0.0014321 0)
(1.00656 -0.00367867 0)
(1.00328 -0.00982024 0)
(0.996264 -0.00800395 0)
(0.996027 -0.00872069 0)
(0.994702 -0.00908189 0)
(0.990222 -0.00782865 0)
(0.987602 -0.00634974 0)
(0.986165 -0.00372465 0)
(0.984154 -2.33471e-06 0)
(0.998681 -0.00363288 0)
(0.99681 0.00479831 0)
(1.00383 0.00210782 0)
(1.00583 -0.00381944 0)
(0.99828 -0.0118299 0)
(0.989858 -0.00736843 0)
(0.987683 -0.000138281 0)
(0.990443 0.00626032 0)
(0.998846 0.00921768 0)
(1.00376 0.00373304 0)
(1.00368 0.00125185 0)
(1.00612 -0.00351275 0)
(1.00313 -0.00942863 0)
(0.996332 -0.00773417 0)
(0.995997 -0.00839934 0)
(0.994789 -0.00883393 0)
(0.990439 -0.00736781 0)
(0.987935 -0.00592638 0)
(0.986694 -0.00348742 0)
(0.984848 0.000145399 0)
(0.998732 -0.00349475 0)
(0.996906 0.00455457 0)
(1.00365 0.00206289 0)
(1.00555 -0.00382428 0)
(0.998249 -0.0112817 0)
(0.990218 -0.00720113 0)
(0.988118 -0.00013618 0)
(0.99076 0.00593395 0)
(0.998773 0.00873247 0)
(1.00349 0.00359206 0)
(1.0034 0.00107476 0)
(1.00568 -0.00335625 0)
(1.00297 -0.00902582 0)
(0.996405 -0.00747222 0)
(0.995965 -0.00805331 0)
(0.994889 -0.00857418 0)
(0.990677 -0.00693039 0)
(0.988264 -0.0054915 0)
(0.987224 -0.00327103 0)
(0.985535 0.000258803 0)
(0.998783 -0.00335252 0)
(0.997006 0.00430344 0)
(1.00347 0.0020217 0)
(1.00526 -0.00382654 0)
(0.998221 -0.0107365 0)
(0.990579 -0.00702319 0)
(0.988558 -0.000150616 0)
(0.991078 0.0056258 0)
(0.998703 0.00823366 0)
(1.00321 0.00344752 0)
(1.00313 0.000909972 0)
(1.00524 -0.00321355 0)
(1.0028 -0.0086186 0)
(0.996484 -0.00721428 0)
(0.995931 -0.00768819 0)
(0.995001 -0.00829991 0)
(0.990938 -0.00651961 0)
(0.988589 -0.00505022 0)
(0.987748 -0.00306647 0)
(0.986218 0.000334982 0)
(0.998835 -0.00320661 0)
(0.997109 0.00404597 0)
(1.00329 0.00198566 0)
(1.00497 -0.00382514 0)
(0.998196 -0.0101959 0)
(0.990941 -0.00682991 0)
(0.989004 -0.000187861 0)
(0.991396 0.00533569 0)
(0.998636 0.00772612 0)
(1.00294 0.00329729 0)
(1.00285 0.000763599 0)
(1.00481 -0.0030839 0)
(1.00264 -0.00820793 0)
(0.996568 -0.0069544 0)
(0.995899 -0.00731462 0)
(0.995121 -0.0080037 0)
(0.991224 -0.00614009 0)
(0.98891 -0.00461021 0)
(0.988262 -0.00286433 0)
(0.986901 0.000373723 0)
(0.998887 -0.00305707 0)
(0.997217 0.00378192 0)
(1.0031 0.00195471 0)
(1.00469 -0.00381904 0)
(0.998175 -0.00966261 0)
(0.991302 -0.00661805 0)
(0.989454 -0.000243328 0)
(0.991714 0.00505638 0)
(0.998574 0.00722276 0)
(1.00268 0.00313896 0)
(1.00258 0.00063797 0)
(1.00438 -0.00296157 0)
(1.00247 -0.00779688 0)
(0.996657 -0.00669188 0)
(0.995869 -0.00693404 0)
(0.995247 -0.00768812 0)
(0.991533 -0.0057932 0)
(0.989231 -0.00417565 0)
(0.988761 -0.00265609 0)
(0.987585 0.00037198 0)
(0.998939 -0.00290444 0)
(0.997329 0.00351283 0)
(1.00292 0.00192221 0)
(1.00441 -0.0038054 0)
(0.998158 -0.00914378 0)
(0.991663 -0.00638529 0)
(0.989908 -0.000318164 0)
(0.992032 0.00478684 0)
(0.998517 0.00673209 0)
(1.00242 0.00296401 0)
(1.00231 0.000529222 0)
(1.00397 -0.00284483 0)
(1.0023 -0.00739239 0)
(0.99675 -0.00642714 0)
(0.995844 -0.00654413 0)
(0.995378 -0.00735587 0)
(0.991867 -0.00547647 0)
(0.989554 -0.00374897 0)
(0.989237 -0.00243005 0)
(0.988272 0.000328829 0)
(0.99899 -0.00274918 0)
(0.997445 0.00323969 0)
(1.00274 0.00189043 0)
(1.00414 -0.00377995 0)
(0.998146 -0.00864327 0)
(0.992021 -0.00613141 0)
(0.990367 -0.000409099 0)
(0.992351 0.00452101 0)
(0.998464 0.00625899 0)
(1.00216 0.00277402 0)
(1.00204 0.000432495 0)
(1.00356 -0.00273068 0)
(1.00213 -0.00699699 0)
(0.996848 -0.00615697 0)
(0.995823 -0.00615073 0)
(0.995509 -0.00700322 0)
(0.992225 -0.0051879 0)
(0.989884 -0.00333998 0)
(0.989685 -0.00217799 0)
(0.988958 0.000253377 0)
(0.999042 -0.0025921 0)
(0.997565 0.00296398 0)
(1.00256 0.00185815 0)
(1.00386 -0.00373906 0)
(0.998139 -0.00816131 0)
(0.992375 -0.00586005 0)
(0.990829 -0.000506832 0)
(0.992671 0.00424578 0)
(0.998416 0.00580533 0)
(1.00191 0.00257112 0)
(1.00179 0.000346041 0)
(1.00316 -0.00261521 0)
(1.00195 -0.00661334 0)
(0.99695 -0.00588479 0)
(0.995808 -0.00575421 0)
(0.995638 -0.00663519 0)
(0.992603 -0.0049227 0)
(0.990228 -0.00296578 0)
(0.990101 -0.00189804 0)
(0.989634 0.000165207 0)
(0.999094 -0.00243392 0)
(0.997688 0.00268832 0)
(1.00238 0.00181853 0)
(1.0036 -0.00368084 0)
(0.998139 -0.00769715 0)
(0.992723 -0.00557643 0)
(0.991291 -0.000605335 0)
(0.992992 0.00395964 0)
(0.998373 0.00537229 0)
(1.00168 0.00236208 0)
(1.00154 0.000268845 0)
(1.00278 -0.00249449 0)
(1.00179 -0.00624076 0)
(0.997057 -0.00561264 0)
(0.995799 -0.00535582 0)
(0.995761 -0.00625055 0)
(0.992999 -0.00467832 0)
(0.990591 -0.00263629 0)
(0.990485 -0.00159166 0)
(0.990285 9.12782e-05 0)
(0.999145 -0.00227562 0)
(0.997815 0.00241607 0)
(1.0022 0.00176575 0)
(1.00333 -0.0036011 0)
(0.998147 -0.00725441 0)
(0.993065 -0.00528251 0)
(0.991751 -0.00069626 0)
(0.993314 0.00366701 0)
(0.998335 0.00495849 0)
(1.00145 0.00215078 0)
(1.00129 0.000196121 0)
(1.00241 -0.00236666 0)
(1.00162 -0.00587721 0)
(0.997172 -0.00534415 0)
(0.9958 -0.00495873 0)
(0.995874 -0.00584699 0)
(0.993406 -0.00444679 0)
(0.990978 -0.00235074 0)
(0.990842 -0.00128026 0)
(0.990896 6.09899e-05 0)
(0.999195 -0.00211765 0)
(0.997945 0.00214676 0)
(1.00204 0.00170014 0)
(1.00308 -0.00349806 0)
(0.998162 -0.00683072 0)
(0.993401 -0.00498439 0)
(0.992207 -0.000773343 0)
(0.993637 0.00336645 0)
(0.998303 0.00455987 0)
(1.00123 0.00193854 0)
(1.00106 0.000123061 0)
(1.00205 -0.00223167 0)
(1.00145 -0.0055243 0)
(0.997294 -0.00508368 0)
(0.995812 -0.00456716 0)
(0.995976 -0.00542864 0)
(0.993817 -0.00421879 0)
(0.991392 -0.0021087 0)
(0.991181 -0.000985881 0)
(0.991451 9.73188e-05 0)
(0.999246 -0.0019616 0)
(0.998079 0.00188418 0)
(1.00187 0.00161926 0)
(1.00283 -0.00337165 0)
(0.998183 -0.006425 0)
(0.993733 -0.00468929 0)
(0.992657 -0.000834795 0)
(0.993961 0.0030633 0)
(0.998277 0.00417426 0)
(1.00103 0.00172782 0)
(1.00085 5.31262e-05 0)
(1.00171 -0.00209124 0)
(1.00129 -0.00517621 0)
(0.997427 -0.00482956 0)
(0.995839 -0.00419034 0)
(0.996066 -0.00500053 0)
(0.994228 -0.00399136 0)
(0.991832 -0.00190158 0)
(0.991515 -0.000721756 0)
(0.991943 0.000197579 0)
(0.999295 -0.00180824 0)
(0.998214 0.00163097 0)
(1.00172 0.00152039 0)
(1.00258 -0.00322638 0)
(0.998211 -0.00603659 0)
(0.994059 -0.00439752 0)
(0.993101 -0.000884205 0)
(0.994284 0.00276366 0)
(0.998256 0.00380544 0)
(1.00083 0.00152164 0)
(1.00065 -1.67836e-05 0)
(1.00138 -0.00194612 0)
(1.00113 -0.0048309 0)
(0.997568 -0.00458492 0)
(0.995884 -0.00382882 0)
(0.996145 -0.00456442 0)
(0.994631 -0.00376058 0)
(0.992294 -0.00172411 0)
(0.991854 -0.000496268 0)
(0.992376 0.000338553 0)
(0.999344 -0.00165876 0)
(0.99835 0.00138908 0)
(1.00158 0.00141037 0)
(1.00235 -0.00306689 0)
(0.998245 -0.00566028 0)
(0.994379 -0.00411098 0)
(0.993536 -0.000925014 0)
(0.994605 0.00247289 0)
(0.998242 0.00345159 0)
(1.00065 0.00132408 0)
(1.00046 -8.92622e-05 0)
(1.00107 -0.00179869 0)
(1.00097 -0.00448774 0)
(0.997718 -0.00435134 0)
(0.99595 -0.00348716 0)
(0.996212 -0.00412008 0)
(0.995021 -0.00352947 0)
(0.992776 -0.00157142 0)
(0.992207 -0.000302649 0)
(0.992765 0.000484078 0)
(0.999391 -0.00151375 0)
(0.998486 0.00116077 0)
(1.00144 0.00128838 0)
(1.00212 -0.00289563 0)
(0.998283 -0.00529644 0)
(0.994693 -0.00382935 0)
(0.993961 -0.000955812 0)
(0.994925 0.0021898 0)
(0.998234 0.00311718 0)
(1.00048 0.00113376 0)
(1.00029 -0.000165675 0)
(1.00077 -0.00165468 0)
(1.00081 -0.00414277 0)
(0.997873 -0.00412214 0)
(0.996042 -0.00317641 0)
(0.99627 -0.003674 0)
(0.995391 -0.00329217 0)
(0.993274 -0.00144125 0)
(0.992575 -0.000132064 0)
(0.993123 0.000608334 0)
(0.999438 -0.00137508 0)
(0.998622 0.000949588 0)
(1.00132 0.00115507 0)
(1.0019 -0.00272148 0)
(0.998327 -0.00494641 0)
(0.995 -0.00355406 0)
(0.994374 -0.000979158 0)
(0.995242 0.00191269 0)
(0.998233 0.00280562 0)
(1.00032 0.000956608 0)
(1.00015 -0.000247766 0)
(1.0005 -0.00151868 0)
(1.00065 -0.00379663 0)
(0.998031 -0.00389739 0)
(0.996162 -0.00289913 0)
(0.996322 -0.00323302 0)
(0.995736 -0.00303786 0)
(0.993783 -0.00134459 0)
(0.992957 2.28115e-05 0)
(0.993462 0.000715452 0)
(0.999483 -0.00124354 0)
(0.998755 0.000759592 0)
(1.00121 0.00101358 0)
(1.0017 -0.00254851 0)
(0.998375 -0.00460724 0)
(0.995299 -0.0032892 0)
(0.994774 -0.000989672 0)
(0.995557 0.00164345 0)
(0.998239 0.00251222 0)
(1.00016 0.000800909 0)
(1.00002 -0.000329776 0)
(1.00026 -0.00139658 0)
(1.00049 -0.00345237 0)
(0.998187 -0.00367065 0)
(0.99631 -0.00265861 0)
(0.996374 -0.00281068 0)
(0.996046 -0.00276269 0)
(0.994299 -0.00127391 0)
(0.993359 0.000153146 0)
(0.993784 0.000818465 0)
(0.999527 -0.00111945 0)
(0.998885 0.000592427 0)
(1.00111 0.000860469 0)
(1.00151 -0.00237937 0)
(0.998427 -0.00427625 0)
(0.995591 -0.0030347 0)
(0.995158 -0.000986579 0)
(0.995867 0.00138467 0)
(0.998255 0.00223478 0)
(1.00002 0.000670081 0)
(0.999905 -0.000403781 0)
(1.00005 -0.00129214 0)
(1.00033 -0.00311687 0)
(0.998335 -0.00343363 0)
(0.996486 -0.0024518 0)
(0.996434 -0.00242415 0)
(0.996319 -0.0024629 0)
(0.994813 -0.00120913 0)
(0.993785 0.000241463 0)
(0.994093 0.000924116 0)
(0.99957 -0.00100489 0)
(0.999009 0.00045338 0)
(1.00102 0.000698897 0)
(1.00133 -0.00222089 0)
(0.998483 -0.00395795 0)
(0.995874 -0.0027918 0)
(0.995525 -0.000970456 0)
(0.996171 0.00114071 0)
(0.998281 0.00196911 0)
(0.999883 0.000562298 0)
(0.999806 -0.000463872 0)
(0.999859 -0.00120179 0)
(1.00017 -0.00279567 0)
(0.998473 -0.00318887 0)
(0.996684 -0.00226814 0)
(0.996509 -0.00207735 0)
(0.996557 -0.00214888 0)
(0.995309 -0.00113693 0)
(0.994236 0.00028211 0)
(0.994397 0.00102291 0)
(0.999611 -0.000900018 0)
(0.999127 0.000342447 0)
(1.00095 0.000531413 0)
(1.00116 -0.00207307 0)
(0.998544 -0.00365049 0)
(0.996148 -0.00256486 0)
(0.995874 -0.00093862 0)
(0.996466 0.000916726 0)
(0.998317 0.00171483 0)
(0.999756 0.000469784 0)
(0.999718 -0.000509405 0)
(0.999701 -0.00112275 0)
(1.00003 -0.00249249 0)
(0.998599 -0.00293923 0)
(0.9969 -0.00210317 0)
(0.996604 -0.0017714 0)
(0.996763 -0.00183572 0)
(0.995777 -0.0010443 0)
(0.994709 0.000287301 0)
(0.994705 0.00110376 0)
(0.999651 -0.000804864 0)
(0.999236 0.000255024 0)
(1.00088 0.000363555 0)
(1.00101 -0.00193816 0)
(0.998607 -0.00335274 0)
(0.996413 -0.00235418 0)
(0.996205 -0.000898748 0)
(0.996751 0.000717547 0)
(0.998364 0.00147279 0)
(0.999641 0.000389261 0)
(0.999641 -0.000537684 0)
(0.99957 -0.00105218 0)
(0.999892 -0.00220741 0)
(0.998711 -0.00268376 0)
(0.99713 -0.00195306 0)
(0.996723 -0.00150784 0)
(0.996945 -0.00153257 0)
(0.996206 -0.000928933 0)
(0.995196 0.000266854 0)
(0.995029 0.00114753 0)
(0.999689 -0.000719021 0)
(0.999336 0.00018574 0)
(1.00081 0.000205034 0)
(1.00088 -0.0018187 0)
(0.998673 -0.00306677 0)
(0.996669 -0.00215964 0)
(0.996517 -0.000850872 0)
(0.997024 0.000550129 0)
(0.998421 0.00124551 0)
(0.999537 0.000317797 0)
(0.999572 -0.000556049 0)
(0.999465 -0.000988245 0)
(0.999773 -0.00194607 0)
(0.998809 -0.00242281 0)
(0.997367 -0.00180678 0)
(0.996869 -0.00128602 0)
(0.997109 -0.00125034 0)
(0.996591 -0.000790207 0)
(0.995682 0.00024404 0)
(0.995383 0.00113954 0)
(0.999725 -0.000643023 0)
(0.999425 0.000132314 0)
(1.00075 5.85842e-05 0)
(1.00076 -0.00171417 0)
(0.998741 -0.00279262 0)
(0.996916 -0.00197977 0)
(0.996812 -0.000802853 0)
(0.997281 0.000410567 0)
(0.998485 0.00104118 0)
(0.999447 0.000253315 0)
(0.999511 -0.000564964 0)
(0.999383 -0.000932176 0)
(0.999672 -0.00170898 0)
(0.998895 -0.00216173 0)
(0.997604 -0.00166218 0)
(0.997038 -0.00110235 0)
(0.997268 -0.000995133 0)
(0.996936 -0.00063728 0)
(0.996148 0.000244667 0)
(0.995767 0.00108749 0)
(0.999759 -0.000575535 0)
(0.999504 9.04366e-05 0)
(1.0007 -6.91406e-05 0)
(1.00066 -0.00162553 0)
(0.998812 -0.00253597 0)
(0.997151 -0.00180855 0)
(0.997091 -0.00076053 0)
(0.997526 0.000293025 0)
(0.998555 0.000863894 0)
(0.999368 0.000196547 0)
(0.999459 -0.000562575 0)
(0.999324 -0.000882326 0)
(0.999591 -0.00149453 0)
(0.998969 -0.00190581 0)
(0.997836 -0.00151221 0)
(0.99723 -0.000947229 0)
(0.997427 -0.000771712 0)
(0.997245 -0.00049142 0)
(0.996584 0.000273581 0)
(0.996166 0.00102368 0)
(0.999791 -0.000515967 0)
(0.999573 5.64913e-05 0)
(1.00064 -0.000172115 0)
(1.00058 -0.00155185 0)
(0.998886 -0.00229828 0)
(0.997374 -0.00164417 0)
(0.997353 -0.00072571 0)
(0.997757 0.000194024 0)
(0.998629 0.000713233 0)
(0.999301 0.000152267 0)
(0.999413 -0.000552582 0)
(0.999286 -0.00083823 0)
(0.999531 -0.00130624 0)
(0.999037 -0.00165772 0)
(0.998059 -0.00135487 0)
(0.997437 -0.000814592 0)
(0.997589 -0.000575639 0)
(0.997529 -0.000355419 0)
(0.99699 0.000316891 0)
(0.996552 0.000994622 0)
(0.999821 -0.000463698 0)
(0.999633 2.93607e-05 0)
(1.00059 -0.000254427 0)
(1.0005 -0.00148744 0)
(0.998965 -0.00208285 0)
(0.997584 -0.00148596 0)
(0.997599 -0.000694864 0)
(0.997978 0.000104862 0)
(0.998708 0.000586897 0)
(0.999242 0.000126605 0)
(0.999372 -0.000528545 0)
(0.999266 -0.000795893 0)
(0.999496 -0.00114512 0)
(0.999102 -0.00142206 0)
(0.998268 -0.00119215 0)
(0.997657 -0.000700622 0)
(0.997755 -0.000405479 0)
(0.99779 -0.000224663 0)
(0.997379 0.000338816 0)
(0.996909 0.0010109 0)
(0.999849 -0.000417577 0)
(0.999684 5.58185e-06 0)
(1.00053 -0.000315654 0)
(1.00044 -0.00143045 0)
(0.999047 -0.00189122 0)
(0.997781 -0.00133198 0)
(0.997826 -0.000661699 0)
(0.998188 1.74768e-05 0)
(0.998794 0.000479456 0)
(0.999194 0.00011868 0)
(0.999332 -0.000486867 0)
(0.999259 -0.000750055 0)
(0.999484 -0.00100938 0)
(0.999169 -0.00120944 0)
(0.998461 -0.00101881 0)
(0.997882 -0.000595093 0)
(0.99793 -0.000266641 0)
(0.998022 -8.85107e-05 0)
(0.997759 0.00033301 0)
(0.997259 0.00101912 0)
(0.999875 -0.000376662 0)
(0.999728 -1.5893e-05 0)
(1.00048 -0.000356324 0)
(1.00039 -0.00137654 0)
(0.999135 -0.00172368 0)
(0.997967 -0.00118621 0)
(0.998032 -0.000625455 0)
(0.998388 -6.67678e-05 0)
(0.998889 0.000383806 0)
(0.999157 0.00012619 0)
(0.999292 -0.000426234 0)
(0.99926 -0.000697757 0)
(0.999493 -0.000894228 0)
(0.999245 -0.00102491 0)
(0.998643 -0.000844879 0)
(0.998103 -0.000486038 0)
(0.998118 -0.000163015 0)
(0.998224 4.8863e-05 0)
(0.99811 0.000335828 0)
(0.997628 0.000965188 0)
(0.999898 -0.000339966 0)
(0.999766 -3.59837e-05 0)
(1.00042 -0.000380427 0)
(1.00035 -0.00132186 0)
(0.999227 -0.00158036 0)
(0.998144 -0.00105313 0)
(0.998218 -0.000577026 0)
(0.998575 -0.000146452 0)
(0.998994 0.000286045 0)
(0.999134 0.000146257 0)
(0.999251 -0.000343123 0)
(0.999261 -0.000631676 0)
(0.999518 -0.000791789 0)
(0.999332 -0.000868132 0)
(0.998816 -0.000685983 0)
(0.998312 -0.000366714 0)
(0.998316 -8.34823e-05 0)
(0.998414 0.000161975 0)
(0.998411 0.00038458 0)
(0.998019 0.00086276 0)
(0.999919 -0.000306019 0)
(0.999799 -5.82998e-05 0)
(1.00037 -0.00038793 0)
(1.00031 -0.00126496 0)
(0.999323 -0.00145753 0)
(0.998313 -0.000934689 0)
(0.998381 -0.000518731 0)
(0.998746 -0.000212332 0)
(0.999113 0.000180684 0)
(0.999132 0.000166162 0)
(0.999209 -0.000243756 0)
(0.999259 -0.00054912 0)
(0.999552 -0.00069603 0)
(0.999428 -0.000735041 0)
(0.99899 -0.000547252 0)
(0.99851 -0.000243856 0)
(0.998511 -3.43836e-06 0)
(0.998608 0.000232578 0)
(0.998656 0.000470318 0)
(0.998391 0.000780242 0)
(0.999937 -0.000274353 0)
(0.999827 -8.29791e-05 0)
(1.00031 -0.000383295 0)
(1.00027 -0.00120014 0)
(0.999421 -0.00135476 0)
(0.998477 -0.000832935 0)
(0.998527 -0.000454737 0)
(0.998897 -0.000253718 0)
(0.99924 7.17272e-05 0)
(0.999155 0.000172523 0)
(0.999172 -0.000132442 0)
(0.99925 -0.000444856 0)
(0.999588 -0.000599945 0)
(0.99953 -0.000620243 0)
(0.999166 -0.000431087 0)
(0.998701 -0.000135102 0)
(0.998692 8.87481e-05 0)
(0.99881 0.000268675 0)
(0.998875 0.000534514 0)
(0.998703 0.000768841 0)
(0.999953 -0.000244151 0)
(0.999853 -0.000109834 0)
(1.00025 -0.000371127 0)
(1.00023 -0.00112556 0)
(0.99952 -0.00126842 0)
(0.998638 -0.000749825 0)
(0.998656 -0.000388317 0)
(0.999024 -0.000269203 0)
(0.999372 -3.56788e-05 0)
(0.999208 0.000151373 0)
(0.999146 -2.12583e-05 0)
(0.999231 -0.000318842 0)
(0.99962 -0.00049617 0)
(0.999634 -0.000519016 0)
(0.999344 -0.000333634 0)
(0.998895 -4.70693e-05 0)
(0.998855 0.000188106 0)
(0.998998 0.000315292 0)
(0.9991 0.00054085 0)
(0.998959 0.000801062 0)
(0.999967 -0.000215682 0)
(0.999876 -0.000136473 0)
(1.0002 -0.000355949 0)
(1.0002 -0.00103993 0)
(0.999617 -0.00119177 0)
(0.998798 -0.000685633 0)
(0.998774 -0.000324968 0)
(0.999127 -0.000258728 0)
(0.999498 -0.000128065 0)
(0.999291 0.000100962 0)
(0.999143 7.63706e-05 0)
(0.999207 -0.000178642 0)
(0.99964 -0.000380356 0)
(0.999734 -0.000423311 0)
(0.99952 -0.00025122 0)
(0.999096 2.30149e-05 0)
(0.999018 0.000267081 0)
(0.999151 0.000396068 0)
(0.999323 0.000523056 0)
(0.999199 0.000805083 0)
(0.999978 -0.000188905 0)
(0.999897 -0.000161215 0)
(1.00016 -0.000340476 0)
(1.00016 -0.000944611 0)
(0.999708 -0.00111875 0)
(0.998958 -0.000640531 0)
(0.998886 -0.000267687 0)
(0.999207 -0.000227298 0)
(0.999611 -0.000189352 0)
(0.999401 2.84881e-05 0)
(0.999172 0.000144467 0)
(0.999181 -3.4342e-05 0)
(0.999644 -0.00024921 0)
(0.999821 -0.000325906 0)
(0.999691 -0.000179479 0)
(0.999298 8.20282e-05 0)
(0.999193 0.000312716 0)
(0.99928 0.00048002 0)
(0.999507 0.000540036 0)
(0.999446 0.000756894 0)
(0.999988 -0.000163318 0)
(0.999917 -0.000184017 0)
(1.00012 -0.000325566 0)
(1.00012 -0.000845048 0)
(0.999791 -0.00104222 0)
(0.999117 -0.000610757 0)
(0.998998 -0.000221248 0)
(0.99927 -0.000183894 0)
(0.999702 -0.000214724 0)
(0.999527 -5.3345e-05 0)
(0.999238 0.000166405 0)
(0.999167 0.000100738 0)
(0.999632 -0.000107793 0)
(0.99989 -0.000222345 0)
(0.999853 -0.000115732 0)
(0.999492 0.00013419 0)
(0.999377 0.000338436 0)
(0.999414 0.000526526 0)
(0.99964 0.000599007 0)
(0.999674 0.000704091 0)
(0.999996 -0.000139876 0)
(0.999935 -0.000201331 0)
(1.00009 -0.00031257 0)
(1.00009 -0.000745433 0)
(0.999864 -0.000958704 0)
(0.999272 -0.00059086 0)
(0.999111 -0.000188523 0)
(0.999321 -0.000135234 0)
(0.99977 -0.000205391 0)
(0.999654 -0.000119307 0)
(0.999343 0.000143984 0)
(0.999177 0.000208883 0)
(0.999609 3.77057e-05 0)
(0.999933 -0.000108087 0)
(1 -5.89136e-05 0)
(0.999677 0.000181057 0)
(0.999556 0.000371629 0)
(0.999568 0.00053456 0)
(0.999749 0.00065649 0)
(0.999853 0.000692872 0)
(1 -0.000118579 0)
(0.999951 -0.000212033 0)
(1.00007 -0.000301881 0)
(1.00005 -0.000648931 0)
(0.999924 -0.000865902 0)
(0.999422 -0.000575253 0)
(0.999229 -0.000170776 0)
(0.999368 -8.61784e-05 0)
(0.999817 -0.000170874 0)
(0.99977 -0.000154613 0)
(0.999478 9.67811e-05 0)
(0.999224 0.00026634 0)
(0.999585 0.000174346 0)
(0.999948 1.88412e-05 0)
(1.00013 2.2358e-06 0)