/*--------------------------------*- C++ -*----------------------------------*\
| =========                 |                                                 |
| \\      /  F ield         | OpenFOAM: The Open Source CFD Toolbox           |
|  \\    /   O peration     | Version:  v1912                                 |
|   \\  /    A nd           | Website:  www.openfoam.com                      |
|    \\/     M anipulation  |                                                 |
\*---------------------------------------------------------------------------*/
FoamFile
{
    version     2.0;
    format      ascii;
    class       surfaceScalarField;
    location    "5.05";
    object      phi;
}
// * * * * * * * * * * * * * * * * * * * * * * * * * * * * * * * * * * * * * //

dimensions      [0 3 -1 0 0 0 0];
oriented        oriented;


internalField   nonuniform List<scalar> 
19000
(
1.15212e-06
-8.60002e-07
1.19663e-06
-1.1223e-07
1.20608e-06
-8.50829e-07
1.22882e-06
1.50151e-06
1.2056e-06
1.20469e-06
1.18087e-06
4.94585e-07
1.14841e-06
-1.38784e-06
1.14745e-06
-1.40137e-06
1.15791e-06
-1.35745e-06
1.19198e-06
-1.56175e-06
1.2413e-06
-3.2768e-07
1.21223e-06
-9.92348e-07
1.26029e-06
7.77833e-07
1.23332e-06
2.91059e-07
1.2452e-06
8.71195e-07
1.22932e-06
3.93566e-07
1.25205e-06
7.45903e-07
1.20996e-06
7.06804e-08
1.22201e-06
3.20469e-07
-3.27072e-07
1.13196e-06
1.21173e-06
-8.47469e-07
1.25706e-06
-1.57558e-07
1.269e-06
-8.62777e-07
1.29704e-06
1.47348e-06
1.26792e-06
1.23381e-06
1.24791e-06
5.14592e-07
1.20587e-06
-1.34579e-06
1.193e-06
-1.3885e-06
1.19932e-06
-1.36378e-06
1.23381e-06
-1.59624e-06
1.28853e-06
-3.82404e-07
1.27117e-06
-9.74981e-07
1.30701e-06
7.41995e-07
1.30056e-06
2.97506e-07
1.2903e-06
8.81456e-07
1.29656e-06
3.87304e-07
1.30055e-06
7.41915e-07
1.28894e-06
8.22858e-08
1.27465e-06
3.34762e-07
-2.87319e-07
1.23489e-06
1.27056e-06
-8.35249e-07
1.31864e-06
-2.05632e-07
1.33433e-06
-8.78466e-07
1.3695e-06
1.4383e-06
1.34177e-06
1.26154e-06
1.31487e-06
5.41497e-07
1.2661e-06
-1.29702e-06
1.2466e-06
-1.36901e-06
1.24686e-06
-1.36404e-06
1.27912e-06
-1.62849e-06
1.33524e-06
-4.38524e-07
1.33155e-06
-9.71292e-07
1.36257e-06
7.1097e-07
1.36612e-06
2.93964e-07
1.35929e-06
8.88278e-07
1.36315e-06
3.83444e-07
1.37955e-06
7.25523e-07
1.371e-06
9.08272e-08
1.36861e-06
3.37152e-07
-2.45132e-07
1.32643e-06
1.32886e-06
-8.20007e-07
1.37588e-06
-2.52648e-07
1.39928e-06
-9.01869e-07
1.44094e-06
1.39664e-06
1.41927e-06
1.28322e-06
1.38446e-06
5.76301e-07
1.33128e-06
-1.24383e-06
1.30672e-06
-1.34445e-06
1.30146e-06
-1.35877e-06
1.32796e-06
-1.655e-06
1.38213e-06
-4.92692e-07
1.39261e-06
-9.81776e-07
1.4249e-06
6.78684e-07
1.43329e-06
2.8557e-07
1.43944e-06
8.82134e-07
1.44019e-06
3.82694e-07
1.45991e-06
7.05797e-07
1.45097e-06
9.97728e-08
1.4478e-06
3.4032e-07
-1.94187e-07
1.39685e-06
1.38912e-06
-8.00772e-07
1.42971e-06
-2.93234e-07
1.46266e-06
-9.34819e-07
1.50992e-06
1.34937e-06
1.49507e-06
1.29806e-06
1.4556e-06
6.15775e-07
1.40102e-06
-1.18926e-06
1.37366e-06
-1.31708e-06
1.36417e-06
-1.34929e-06
1.38218e-06
-1.67301e-06
1.43221e-06
-5.42724e-07
1.4523e-06
-1.00186e-06
1.49019e-06
6.40789e-07
1.50301e-06
2.72751e-07
1.5215e-06
8.6364e-07
1.52285e-06
3.81352e-07
1.54203e-06
6.8661e-07
1.52921e-06
1.12593e-07
1.52473e-06
3.44804e-07
-1.37807e-07
1.46835e-06
1.45414e-06
-7.79231e-07
1.48432e-06
-3.23424e-07
1.52378e-06
-9.74271e-07
1.5758e-06
1.29734e-06
1.56726e-06
1.30661e-06
1.52784e-06
6.55193e-07
1.47419e-06
-1.1356e-06
1.44598e-06
-1.28888e-06
1.4331e-06
-1.3364e-06
1.44242e-06
-1.68233e-06
1.48801e-06
-5.88309e-07
1.51245e-06
-1.0263e-06
1.55713e-06
5.96103e-07
1.57621e-06
2.53675e-07
1.60458e-06
8.35263e-07
1.60816e-06
3.77772e-07
1.62633e-06
6.68445e-07
1.60781e-06
1.31115e-07
1.60159e-06
3.51024e-07
-7.72413e-08
1.54102e-06
1.52509e-06
-7.58106e-07
1.54357e-06
-3.41908e-07
1.58267e-06
-1.01336e-06
1.6378e-06
1.24221e-06
1.63609e-06
1.30832e-06
1.60141e-06
6.89874e-07
1.55054e-06
-1.08473e-06
1.52272e-06
-1.26106e-06
1.50616e-06
-1.31984e-06
1.50818e-06
-1.68435e-06
1.54993e-06
-6.30068e-07
1.57589e-06
-1.05226e-06
1.62766e-06
5.44337e-07
1.65387e-06
2.27463e-07
1.69054e-06
7.98599e-07
1.69571e-06
3.726e-07
1.71264e-06
6.51512e-07
1.68728e-06
1.56474e-07
1.6787e-06
3.59603e-07
-1.36811e-08
1.61514e-06
1.60147e-06
-7.39443e-07
1.60929e-06
-3.49731e-07
1.64082e-06
-1.04489e-06
1.69657e-06
1.18646e-06
1.70342e-06
1.30147e-06
1.67705e-06
7.16248e-07
1.63018e-06
-1.03786e-06
1.60338e-06
-1.23426e-06
1.5822e-06
-1.29867e-06
1.57828e-06
-1.68043e-06
1.61671e-06
-6.68489e-07
1.64388e-06
-1.07943e-06
1.70367e-06
4.84539e-07
1.73643e-06
1.94702e-07
1.77988e-06
7.55156e-07
1.78492e-06
3.67555e-07
1.79978e-06
6.36655e-07
1.7671e-06
1.89149e-07
1.7555e-06
3.71207e-07
5.15358e-08
1.69028e-06
1.68212e-06
-7.23985e-07
1.68164e-06
-3.49258e-07
1.70124e-06
-1.06449e-06
1.75536e-06
1.13234e-06
1.77205e-06
1.28478e-06
1.75565e-06
7.32644e-07
1.71306e-06
-9.95266e-07
1.68771e-06
-1.20891e-06
1.66121e-06
-1.27217e-06
1.65196e-06
-1.67117e-06
1.68654e-06
-7.03074e-07
1.71552e-06
-1.10841e-06
1.78484e-06
4.15218e-07
1.82287e-06
1.56672e-07
1.87125e-06
7.0678e-07
1.87421e-06
3.64597e-07
1.88598e-06
6.24882e-07
1.84618e-06
2.28947e-07
1.83129e-06
3.86095e-07
1.16849e-07
1.76598e-06
1.76619e-06
-7.11457e-07
1.76009e-06
-3.43155e-07
1.76735e-06
-1.07175e-06
1.81867e-06
1.08102e-06
1.84457e-06
1.25888e-06
1.83769e-06
7.39517e-07
1.79877e-06
-9.5634e-07
1.77526e-06
-1.1854e-06
1.7439e-06
-1.24081e-06
1.72937e-06
-1.65665e-06
1.75827e-06
-7.31975e-07
1.78877e-06
-1.13891e-06
1.86845e-06
3.35544e-07
1.9103e-06
1.14823e-07
1.96175e-06
6.55328e-07
1.96104e-06
3.65309e-07
1.96911e-06
6.16809e-07
1.92324e-06
2.74817e-07
1.90546e-06
4.03877e-07
1.80431e-07
1.84188e-06
1.8534e-06
-7.01105e-07
1.84401e-06
-3.33766e-07
1.84148e-06
-1.06922e-06
1.88989e-06
1.03261e-06
1.9223e-06
1.22647e-06
1.92307e-06
7.38754e-07
1.8868e-06
-9.20075e-07
1.8654e-06
-1.164e-06
1.83105e-06
-1.20646e-06
1.81146e-06
-1.63706e-06
1.8322e-06
-7.52713e-07
1.8619e-06
-1.1686e-06
1.95042e-06
2.47024e-07
1.99428e-06
7.09608e-08
2.04727e-06
6.02342e-07
2.04224e-06
3.70337e-07
2.0469e-06
6.12147e-07
1.99711e-06
3.2461e-07
1.97758e-06
4.234e-07
2.40068e-07
1.91795e-06
1.94383e-06
-6.92092e-07
1.93297e-06
-3.22906e-07
1.92408e-06
-1.06034e-06
1.96976e-06
9.86932e-07
2.00517e-06
1.19107e-06
2.01148e-06
7.32435e-07
1.97701e-06
-8.85602e-07
1.95763e-06
-1.14462e-06
1.92298e-06
-1.17182e-06
1.89908e-06
-1.61316e-06
1.91016e-06
-7.63794e-07
1.93481e-06
-1.19325e-06
2.02724e-06
1.54588e-07
2.07046e-06
2.77496e-08
2.12365e-06
5.49149e-07
2.11491e-06
3.79072e-07
2.11766e-06
6.09396e-07
2.06731e-06
3.74967e-07
2.04793e-06
4.42777e-07
2.9327e-07
1.99473e-06
2.03779e-06
-6.8369e-07
2.02675e-06
-3.11863e-07
2.01405e-06
-1.04765e-06
2.05686e-06
9.44128e-07
2.09241e-06
1.15552e-06
2.10297e-06
7.21874e-07
2.06984e-06
-8.5247e-07
2.052e-06
-1.12678e-06
2.01944e-06
-1.13926e-06
1.99236e-06
-1.58607e-06
1.99452e-06
-7.65961e-07
2.00934e-06
-1.20806e-06
2.09812e-06
6.5807e-08
2.13709e-06
-1.12186e-08
2.18903e-06
4.97203e-07
2.17824e-06
3.89858e-07
2.18155e-06
6.06087e-07
2.1348e-06
4.21725e-07
2.11779e-06
4.59786e-07
3.37597e-07
2.07346e-06
2.13567e-06
-6.75359e-07
2.12527e-06
-3.0146e-07
2.10985e-06
-1.03223e-06
2.14935e-06
9.04625e-07
2.18365e-06
1.12122e-06
2.19806e-06
7.07466e-07
2.16613e-06
-8.20542e-07
2.14911e-06
-1.10977e-06
2.11992e-06
-1.11007e-06
2.09074e-06
-1.55688e-06
2.08675e-06
-7.61975e-07
2.08833e-06
-1.20964e-06
2.16594e-06
-1.18028e-08
2.19693e-06
-4.22101e-08
2.24594e-06
4.48193e-07
2.2351e-06
4.00696e-07
2.24158e-06
5.99611e-07
2.20241e-06
4.60892e-07
2.18955e-06
4.72651e-07
3.71157e-07
2.15599e-06
2.23788e-06
-6.66754e-07
2.22855e-06
-2.92124e-07
2.21045e-06
-1.01413e-06
2.2464e-06
8.68676e-07
2.27932e-06
1.0883e-06
2.29766e-06
6.89131e-07
2.26684e-06
-7.89724e-07
2.2499e-06
-1.09283e-06
2.22408e-06
-1.08426e-06
2.19354e-06
-1.52634e-06
2.18677e-06
-7.55206e-07
2.17435e-06
-1.19722e-06
2.23623e-06
-7.36834e-08
2.25665e-06
-6.26313e-08
2.30117e-06
4.03676e-07
2.29186e-06
4.10005e-07
2.30322e-06
5.88257e-07
2.27434e-06
4.89765e-07
2.26645e-06
4.80545e-07
3.93279e-07
2.24433e-06
2.34481e-06
-6.57688e-07
2.33669e-06
-2.84003e-07
2.31565e-06
-9.93096e-07
2.34831e-06
8.36022e-07
2.38034e-06
1.05627e-06
2.40264e-06
6.66825e-07
2.3727e-06
-7.59781e-07
2.35522e-06
-1.07535e-06
2.33197e-06
-1.06101e-06
2.30045e-06
-1.49482e-06
2.29347e-06
-7.48226e-07
2.26883e-06
-1.17258e-06
2.31459e-06
-1.19439e-07
2.32389e-06
-7.19328e-08
2.36305e-06
3.64513e-07
2.35606e-06
4.16997e-07
2.37251e-06
5.71807e-07
2.35474e-06
5.07535e-07
2.35191e-06
4.83371e-07
4.05113e-07
2.34008e-06
2.45677e-06
-6.48058e-07
2.44987e-06
-2.77106e-07
2.42584e-06
-9.69067e-07
2.45592e-06
8.05944e-07
2.48754e-06
1.02465e-06
2.51361e-06
6.40755e-07
2.48417e-06
-7.30344e-07
2.46568e-06
-1.05686e-06
2.44397e-06
-1.03929e-06
2.41159e-06
-1.46244e-06
2.40564e-06
-7.4227e-07
2.37197e-06
-1.13892e-06
2.40442e-06
-1.51887e-07
2.40407e-06
-7.15864e-08
2.43801e-06
3.30576e-07
2.43347e-06
4.21536e-07
2.45385e-06
5.51424e-07
2.44632e-06
5.15068e-07
2.44772e-06
4.81968e-07
4.08808e-07
2.44403e-06
2.57402e-06
-6.37789e-07
2.56833e-06
-2.71408e-07
2.54153e-06
-9.42267e-07
2.56992e-06
7.7755e-07
2.60137e-06
9.93195e-07
2.63081e-06
6.11315e-07
2.6015e-06
-7.01031e-07
2.58166e-06
-1.03702e-06
2.56062e-06
-1.01825e-06
2.52743e-06
-1.42925e-06
2.52268e-06
-7.37526e-07
2.48324e-06
-1.09948e-06
2.50643e-06
-1.75077e-07
2.49909e-06
-6.42436e-08
2.52869e-06
3.0098e-07
2.52648e-06
4.23739e-07
2.54888e-06
5.29025e-07
2.54981e-06
5.14141e-07
2.55417e-06
4.77607e-07
4.06817e-07
2.55616e-06
2.69683e-06
-6.26788e-07
2.69233e-06
-2.66915e-07
2.66315e-06
-9.13078e-07
2.69066e-06
7.50035e-07
2.72196e-06
9.61898e-07
2.75433e-06
5.78945e-07
2.72487e-06
-6.71572e-07
2.70342e-06
-1.01558e-06
2.68248e-06
-9.97309e-07
2.64848e-06
-1.39525e-06
2.64467e-06
-7.33712e-07
2.60197e-06
-1.05679e-06
2.61954e-06
-1.92646e-07
2.60799e-06
-5.26862e-08
2.63437e-06
2.746e-07
2.63443e-06
4.23673e-07
2.65691e-06
5.06552e-07
2.66434e-06
5.06704e-07
2.67058e-06
4.71374e-07
4.01362e-07
2.67603e-06
2.82542e-06
-6.14939e-07
2.82219e-06
-2.63683e-07
2.79101e-06
-8.81901e-07
2.81824e-06
7.22802e-07
2.84927e-06
9.30873e-07
2.88415e-06
5.44068e-07
2.85443e-06
-6.4186e-07
2.83122e-06
-9.92362e-07
2.81009e-06
-9.76176e-07
2.77524e-06
-1.3604e-06
2.77203e-06
-7.30498e-07
2.72774e-06
-1.01249e-06
2.7422e-06
-2.07108e-07
2.72871e-06
-3.91947e-08
2.75273e-06
2.50576e-07
2.75514e-06
4.21262e-07
2.77627e-06
4.85418e-07
2.78841e-06
4.9457e-07
2.79594e-06
4.63846e-07
3.94174e-07
2.80312e-06
2.96006e-06
-6.02099e-07
2.95819e-06
-2.61818e-07
2.9254e-06
-8.49113e-07
2.95276e-06
6.95447e-07
2.98332e-06
9.00311e-07
3.02027e-06
5.07118e-07
2.99037e-06
-6.11956e-07
2.96535e-06
-9.6735e-07
2.9439e-06
-9.54721e-07
2.90812e-06
-1.32463e-06
2.9053e-06
-7.27672e-07
2.86039e-06
-9.67589e-07
2.87321e-06
-2.1993e-07
2.85939e-06
-2.53673e-08
2.88149e-06
2.28477e-07
2.88638e-06
4.16366e-07
2.90549e-06
4.66314e-07
2.92071e-06
4.79348e-07
2.92938e-06
4.55173e-07
3.86377e-07
2.93718e-06
3.10102e-06
-5.88114e-07
3.10065e-06
-2.6145e-07
3.0666e-06
-8.15064e-07
3.09434e-06
6.67707e-07
3.12421e-06
8.70444e-07
3.16274e-06
4.68594e-07
3.13284e-06
-5.82065e-07
3.10617e-06
-9.40679e-07
3.08437e-06
-9.32916e-07
3.0475e-06
-1.28776e-06
3.04492e-06
-7.25094e-07
3.00004e-06
-9.22709e-07
3.01194e-06
-2.31831e-07
2.99884e-06
-1.22694e-08
3.01908e-06
2.08239e-07
3.02658e-06
4.08866e-07
3.04349e-06
4.49403e-07
3.0605e-06
4.62345e-07
3.0704e-06
4.45266e-07
3.78591e-07
3.07819e-06
3.24863e-06
-5.72832e-07
3.24987e-06
-2.62691e-07
3.2149e-06
-7.801e-07
3.24322e-06
6.39396e-07
3.27215e-06
8.41511e-07
3.31164e-06
4.29099e-07
3.28207e-06
-5.52492e-07
3.25404e-06
-9.12647e-07
3.23192e-06
-9.10802e-07
3.19373e-06
-1.24956e-06
3.19125e-06
-7.22614e-07
3.14685e-06
-8.78305e-07
3.1581e-06
-2.43085e-07
3.14647e-06
-6.37822e-10
3.16471e-06
1.89997e-07
3.17484e-06
3.98734e-07
3.18976e-06
4.34481e-07
3.20752e-06
4.44584e-07
3.2188e-06
4.33993e-07
3.71068e-07
3.22632e-06
3.40323e-06
-5.5613e-07
3.40611e-06
-2.65568e-07
3.37057e-06
-7.44559e-07
3.39962e-06
6.10346e-07
3.42742e-06
8.13702e-07
3.46719e-06
3.89333e-07
3.43829e-06
-5.23591e-07
3.4093e-06
-8.83662e-07
3.38699e-06
-8.88488e-07
3.34722e-06
-1.2098e-06
3.3446e-06
-7.19991e-07
3.30103e-06
-8.34733e-07
3.31161e-06
-2.53663e-07
3.30197e-06
8.99868e-09
3.31806e-06
1.73906e-07
3.33075e-06
3.86048e-07
3.34413e-06
4.21093e-07
3.36189e-06
4.26825e-07
3.37458e-06
4.2131e-07
3.63775e-07
3.38187e-06
3.56523e-06
-5.37948e-07
3.56963e-06
-2.69972e-07
3.53382e-06
-7.08743e-07
3.56379e-06
5.80372e-07
3.5904e-06
7.8709e-07
3.62969e-06
3.50051e-07
3.60181e-06
-4.95713e-07
3.5723e-06
-8.54155e-07
3.54996e-06
-8.66145e-07
3.50843e-06
-1.16827e-06
3.50531e-06
-7.16867e-07
3.46282e-06
-7.9224e-07
3.47251e-06
-2.63361e-07
3.46523e-06
1.62791e-08
3.4791e-06
1.60038e-07
3.49415e-06
3.70996e-07
3.5066e-06
4.08648e-07
3.52384e-06
4.09585e-07
3.53788e-06
4.0727e-07
3.56534e-07
3.54512e-06
3.73508e-06
-5.18318e-07
3.74074e-06
-2.75633e-07
3.70486e-06
-6.72866e-07
3.73597e-06
5.49258e-07
3.76149e-06
7.61576e-07
3.79954e-06
3.11998e-07
3.77301e-06
-4.69179e-07
3.74333e-06
-8.24478e-07
3.72114e-06
-8.43953e-07
3.67787e-06
-1.125e-06
3.67376e-06
-7.12758e-07
3.63252e-06
-7.51005e-07
3.64099e-06
-2.71827e-07
3.63627e-06
2.09963e-08
3.64797e-06
1.48338e-07
3.66509e-06
3.53884e-07
3.67723e-06
3.96504e-07
3.69366e-06
3.93158e-07
3.70888e-06
3.92046e-07
3.49035e-07
3.71638e-06
3.91326e-06
-4.97389e-07
3.91977e-06
-2.82144e-07
3.8839e-06
-6.36996e-07
3.91637e-06
5.1679e-07
3.94108e-06
7.36865e-07
3.97725e-06
2.75829e-07
3.95233e-06
-4.44263e-07
3.92268e-06
-7.9482e-07
3.90074e-06
-8.22022e-07
3.856e-06
-1.08026e-06
3.85035e-06
-7.07106e-07
3.81051e-06
-7.11164e-07
3.81733e-06
-2.78651e-07
3.81521e-06
2.31224e-08
3.82494e-06
1.38606e-07
3.84369e-06
3.35138e-07
3.85613e-06
3.84063e-07
3.87161e-06
3.77671e-07
3.88779e-06
3.75868e-07
3.40969e-07
3.89586e-06
4.10028e-06
-4.75418e-07
4.10717e-06
-2.89038e-07
4.07119e-06
-6.01017e-07
4.10516e-06
4.82825e-07
4.12954e-06
7.1248e-07
4.16332e-06
2.42055e-07
4.14029e-06
-4.21236e-07
4.11066e-06
-7.65194e-07
4.08903e-06
-8.00389e-07
4.04325e-06
-1.03448e-06
4.03553e-06
-6.99386e-07
3.99717e-06
-6.728e-07
4.00198e-06
-2.8346e-07
4.00224e-06
2.28579e-08
4.01032e-06
1.30528e-07
4.03019e-06
3.15263e-07
4.04341e-06
3.70847e-07
4.05799e-06
3.63093e-07
4.07481e-06
3.59046e-07
3.32036e-07
4.08374e-06
4.29662e-06
-4.52732e-07
4.30346e-06
-2.9588e-07
4.26709e-06
-5.64647e-07
4.30255e-06
4.47364e-07
4.32722e-06
6.87813e-07
4.35823e-06
2.11042e-07
4.33738e-06
-4.00386e-07
4.3077e-06
-7.35515e-07
4.28627e-06
-7.78961e-07
4.23999e-06
-9.88204e-07
4.22974e-06
-6.89137e-07
4.1929e-06
-6.3596e-07
4.19543e-06
-2.85989e-07
4.19769e-06
2.05973e-08
4.20449e-06
1.23732e-07
4.22488e-06
2.94869e-07
4.23922e-06
3.56511e-07
4.25307e-06
3.49244e-07
4.27015e-06
3.41969e-07
3.2195e-07
4.28023e-06
4.50272e-06
-4.29674e-07
4.50919e-06
-3.02355e-07
4.47207e-06
-5.27522e-07
4.50881e-06
4.10617e-07
4.53441e-06
6.62212e-07
4.56243e-06
1.83023e-07
4.54404e-06
-3.81991e-07
4.51424e-06
-7.05714e-07
4.49277e-06
-7.57498e-07
4.44655e-06
-9.41978e-07
4.43347e-06
-6.76055e-07
4.39813e-06
-6.00623e-07
4.39823e-06
-2.86089e-07
4.40204e-06
1.67893e-08
4.40786e-06
1.17911e-07
4.42817e-06
2.74553e-07
4.44383e-06
3.40852e-07
4.45721e-06
3.35871e-07
4.47418e-06
3.24997e-07
3.10562e-07
4.48557e-06
4.71897e-06
-4.06534e-07
4.72493e-06
-3.08314e-07
4.68673e-06
-4.89323e-07
4.72433e-06
3.73024e-07
4.75146e-06
6.35076e-07
4.7763e-06
1.5819e-07
4.76059e-06
-3.66284e-07
4.73069e-06
-6.75815e-07
4.70887e-06
-7.35675e-07
4.66323e-06
-8.96338e-07
4.6472e-06
-6.60023e-07
4.61329e-06
-5.66713e-07
4.61092e-06
-2.83724e-07
4.61583e-06
1.18781e-08
4.62087e-06
1.12868e-07
4.64067e-06
2.5476e-07
4.65766e-06
3.23862e-07
4.67085e-06
3.22675e-07
4.68742e-06
3.08429e-07
2.97906e-07
4.70008e-06
4.94577e-06
-3.83505e-07
4.95121e-06
-3.1376e-07
4.91181e-06
-4.49922e-07
4.94961e-06
3.35232e-07
4.97874e-06
6.05945e-07
5.00025e-06
1.36682e-07
4.98731e-06
-3.5335e-07
4.9575e-06
-6.46002e-07
4.93495e-06
-7.13128e-07
4.89035e-06
-8.51735e-07
4.87145e-06
-6.41124e-07
4.83888e-06
-5.34148e-07
4.83413e-06
-2.78974e-07
4.83973e-06
6.27823e-09
4.84419e-06
1.08408e-07
4.8631e-06
2.35849e-07
4.88126e-06
3.05702e-07
4.89461e-06
3.09332e-07
4.91055e-06
2.92486e-07
2.84196e-07
4.92426e-06
5.18348e-06
-3.60669e-07
5.18852e-06
-3.188e-07
5.14808e-06
-4.09485e-07
5.18528e-06
2.9804e-07
5.21667e-06
5.74553e-07
5.23522e-06
1.1813e-07
5.22451e-06
-3.42639e-07
5.19511e-06
-6.16605e-07
5.17152e-06
-6.89535e-07
5.12825e-06
-8.08469e-07
5.10678e-06
-6.19654e-07
5.07547e-06
-5.02834e-07
5.06852e-06
-2.72027e-07
5.07451e-06
2.8774e-10
5.07861e-06
1.04312e-07
5.09632e-06
2.18136e-07
5.11534e-06
2.86684e-07
5.1291e-06
2.95576e-07
5.14428e-06
2.77301e-07
2.69708e-07
5.15877e-06
5.43254e-06
-3.38016e-07
5.43731e-06
-3.23569e-07
5.39632e-06
-3.68496e-07
5.43202e-06
2.62337e-07
5.46574e-06
5.40829e-07
5.48183e-06
1.02048e-07
5.47258e-06
-3.33395e-07
5.44398e-06
-5.87999e-07
5.41915e-06
-6.64713e-07
5.37732e-06
-7.66635e-07
5.35379e-06
-5.96122e-07
5.32362e-06
-4.72668e-07
5.31483e-06
-2.6324e-07
5.32095e-06
-5.82579e-09
5.32489e-06
1.00366e-07
5.34115e-06
2.01885e-07
5.36066e-06
2.67171e-07
5.37498e-06
2.81255e-07
5.38942e-06
2.62864e-07
2.5482e-07
5.40431e-06
5.69343e-06
-3.15489e-07
5.69802e-06
-3.28155e-07
5.65724e-06
-3.27719e-07
5.69055e-06
2.29025e-07
5.72649e-06
5.04892e-07
5.74052e-06
8.80194e-08
5.73203e-06
-3.24906e-07
5.70456e-06
-5.60533e-07
5.6785e-06
-6.38651e-07
5.63803e-06
-7.26166e-07
5.61306e-06
-5.71151e-07
5.58395e-06
-4.43556e-07
5.57371e-06
-2.53002e-07
5.57966e-06
-1.17748e-08
5.58369e-06
9.6339e-08
5.59841e-06
1.8716e-07
5.61796e-06
2.47625e-07
5.63292e-06
2.66295e-07
5.64669e-06
2.49094e-07
2.39914e-07
5.66159e-06
5.96673e-06
-2.9303e-07
5.97112e-06
-3.32544e-07
5.93153e-06
-2.8813e-07
5.96158e-06
1.98976e-07
5.99944e-06
4.67039e-07
6.0118e-06
7.56515e-08
6.00343e-06
-3.16535e-07
5.97738e-06
-5.34482e-07
5.95025e-06
-6.11522e-07
5.91095e-06
-6.86863e-07
5.88517e-06
-5.45368e-07
5.8571e-06
-4.15491e-07
5.84569e-06
-2.41595e-07
5.85132e-06
-1.7399e-08
5.85559e-06
9.20717e-08
5.86888e-06
1.73861e-07
5.88797e-06
2.28544e-07
5.90353e-06
2.50735e-07
5.91672e-06
2.35898e-07
2.25272e-07
5.93136e-06
6.25308e-06
-2.7062e-07
6.25715e-06
-3.36614e-07
6.21983e-06
-2.50809e-07
6.24583e-06
1.72969e-07
6.2851e-06
4.2777e-07
6.29625e-06
6.4504e-08
6.28752e-06
-3.07804e-07
6.26299e-06
-5.09952e-07
6.23508e-06
-5.83619e-07
6.19675e-06
-6.48528e-07
6.17062e-06
-5.19237e-07
6.14369e-06
-3.88558e-07
6.13142e-06
-2.29334e-07
6.13659e-06
-2.25673e-08
6.14121e-06
8.74584e-08
6.1532e-06
1.61866e-07
6.1714e-06
2.10348e-07
6.18737e-06
2.34758e-07
6.20012e-06
2.23148e-07
2.11131e-07
6.21426e-06
6.55315e-06
-2.48299e-07
6.55667e-06
-3.40132e-07
6.52276e-06
-2.16897e-07
6.54406e-06
1.51669e-07
6.58405e-06
3.87772e-07
6.59447e-06
5.40898e-08
6.58512e-06
-2.98451e-07
6.56201e-06
-4.86842e-07
6.53366e-06
-5.55277e-07
6.49617e-06
-6.11033e-07
6.46994e-06
-4.93008e-07
6.44433e-06
-3.62947e-07
6.4315e-06
-2.16506e-07
6.43607e-06
-2.71379e-08
6.44112e-06
8.24076e-08
6.45195e-06
1.51038e-07
6.46897e-06
1.93331e-07
6.4851e-06
2.1863e-07
6.49754e-06
2.107e-07
1.9765e-07
6.51103e-06
6.86767e-06
-2.2618e-07
6.87032e-06
-3.42776e-07
6.84075e-06
-1.87331e-07
6.85709e-06
1.35333e-07
6.89692e-06
3.47941e-07
6.90715e-06
4.38586e-08
6.89701e-06
-2.88312e-07
6.87512e-06
-4.64952e-07
6.84667e-06
-5.26827e-07
6.80994e-06
-5.74307e-07
6.78375e-06
-4.66819e-07
6.75964e-06
-3.38839e-07
6.74655e-06
-2.03408e-07
6.75037e-06
-3.09634e-08
6.75584e-06
7.6936e-08
6.76571e-06
1.41176e-07
6.78136e-06
1.77677e-07
6.79738e-06
2.0261e-07
6.80968e-06
1.98394e-07
1.85058e-07
6.82228e-06
7.19739e-06
-2.04431e-07
7.19878e-06
-3.44172e-07
7.1739e-06
-1.62451e-07
7.18575e-06
1.23492e-07
7.22454e-06
3.09146e-07
7.23491e-06
3.34927e-08
7.22393e-06
-2.7734e-07
7.20298e-06
-4.44002e-07
7.17483e-06
-4.98669e-07
7.13884e-06
-5.38323e-07
7.11272e-06
-4.40696e-07
7.09021e-06
-3.16331e-07
7.07716e-06
-1.90355e-07
7.08026e-06
-3.40643e-08
7.08599e-06
7.12005e-08
7.09507e-06
1.32096e-07
7.10921e-06
1.63544e-07
7.12479e-06
1.87026e-07
7.13737e-06
1.85818e-07
1.7347e-07
7.14896e-06
7.54306e-06
-1.83268e-07
7.54279e-06
-3.43898e-07
7.52245e-06
-1.42112e-07
7.53072e-06
1.15219e-07
7.56777e-06
2.72097e-07
7.57839e-06
2.28772e-08
7.56661e-06
-2.65565e-07
7.54635e-06
-4.23742e-07
7.51882e-06
-4.71134e-07
7.48372e-06
-5.03226e-07
7.45758e-06
-4.14554e-07
7.43663e-06
-2.95382e-07
7.42402e-06
-1.77748e-07
7.42654e-06
-3.65768e-08
7.4324e-06
6.53329e-08
7.44085e-06
1.23647e-07
7.45305e-06
1.51344e-07
7.46759e-06
1.72488e-07
7.48054e-06
1.72873e-07
1.62261e-07
7.49175e-06
7.90547e-06
-1.62923e-07
7.9031e-06
-3.41535e-07
7.88695e-06
-1.25955e-07
7.89266e-06
1.09504e-07
7.9274e-06
2.37356e-07
7.93836e-06
1.19152e-08
7.92587e-06
-2.53074e-07
7.90604e-06
-4.03907e-07
7.87937e-06
-4.44467e-07
7.84536e-06
-4.69218e-07
7.81916e-06
-3.88347e-07
7.79952e-06
-2.75748e-07
7.78784e-06
-1.6607e-07
7.7899e-06
-3.86317e-08
7.79617e-06
5.90649e-08
7.80413e-06
1.15679e-07
7.81419e-06
1.41283e-07
7.82632e-06
1.60366e-07
7.83828e-06
1.60905e-07
1.49914e-07
7.85063e-06
8.2854e-06
-1.43643e-07
8.28049e-06
-3.36624e-07
8.26826e-06
-1.13728e-07
8.27237e-06
1.05395e-07
8.30434e-06
2.05388e-07
8.31555e-06
7.05216e-10
8.30252e-06
-2.40046e-07
8.28284e-06
-3.84224e-07
8.25721e-06
-4.18842e-07
8.22453e-06
-4.36532e-07
8.19842e-06
-3.62235e-07
8.1798e-06
-2.57129e-07
8.16909e-06
-1.55364e-07
8.17118e-06
-4.07209e-08
8.17829e-06
5.19566e-08
8.1869e-06
1.07071e-07
8.19965e-06
1.28527e-07
8.21737e-06
1.4265e-07
8.23261e-06
1.45664e-07
1.4018e-07
8.24234e-06
8.68368e-06
-1.25659e-07
8.67575e-06
-3.28695e-07
8.66726e-06
-1.05235e-07
8.67067e-06
1.0198e-07
8.6996e-06
1.76455e-07
8.71064e-06
-1.03343e-08
8.69743e-06
-2.2683e-07
8.67765e-06
-3.64448e-07
8.65317e-06
-3.94357e-07
8.62193e-06
-4.05294e-07
8.59617e-06
-3.36481e-07
8.57831e-06
-2.3927e-07
8.56837e-06
-1.45421e-07
8.57141e-06
-4.37643e-08
8.58194e-06
4.14274e-08
8.59537e-06
9.36473e-08
8.61074e-06
1.13151e-07
8.62641e-06
1.26987e-07
8.63899e-06
1.33077e-07
1.32196e-07
8.64698e-06
9.10114e-06
-1.09175e-07
9.08965e-06
-3.17209e-07
9.08476e-06
-1.00345e-07
9.08858e-06
9.81591e-08
9.114e-06
1.51034e-07
9.12473e-06
-2.10608e-08
9.11144e-06
-2.13542e-07
9.09137e-06
-3.44375e-07
9.06793e-06
-3.70914e-07
9.03853e-06
-3.75902e-07
9.01343e-06
-3.11379e-07
8.99623e-06
-2.2207e-07
8.98696e-06
-1.36151e-07
8.99042e-06
-4.72233e-08
9.00088e-06
3.09685e-08
9.01354e-06
8.09865e-08
9.02787e-06
9.88251e-08
9.04398e-06
1.10873e-07
9.05639e-06
1.20668e-07
1.25059e-07
9.06353e-06
9.53863e-06
-9.43466e-08
9.5231e-06
-3.01682e-07
9.52162e-06
-9.88588e-08
9.52706e-06
9.27203e-08
9.54798e-06
1.30113e-07
9.55869e-06
-3.17694e-08
9.54561e-06
-2.00466e-07
9.52517e-06
-3.23936e-07
9.50241e-06
-3.48149e-07
9.47495e-06
-3.48443e-07
9.45075e-06
-2.87179e-07
9.43471e-06
-2.06035e-07
9.42663e-06
-1.28069e-07
9.42844e-06
-4.90358e-08
9.43367e-06
2.57429e-08
9.43738e-06
7.72739e-08
9.44075e-06
9.54517e-08
9.44752e-06
1.04108e-07
9.45924e-06
1.08947e-07
1.10052e-07
9.47425e-06
9.99704e-06
-8.12544e-08
9.97767e-06
-2.82307e-07
9.9788e-06
-9.99893e-08
9.98696e-06
8.45615e-08
1.0003e-05
1.14055e-07
1.00132e-05
-4.1935e-08
1.00008e-05
-1.88105e-07
9.97992e-06
-3.03039e-07
9.95752e-06
-3.25744e-07
9.93223e-06
-3.2316e-07
9.90927e-06
-2.64212e-07
9.89303e-06
-1.89796e-07
9.88399e-06
-1.19033e-07
9.88694e-06
-5.1982e-08
9.89912e-06
1.35647e-08
9.91393e-06
6.24595e-08
9.92777e-06
8.16174e-08
9.94239e-06
8.94855e-08
9.95246e-06
9.88775e-08
1.05999e-07
9.95651e-06
1.04773e-05
-6.99238e-08
1.04554e-05
-2.60372e-07
1.04574e-05
-1.01992e-07
1.04685e-05
7.3404e-08
1.04806e-05
1.0203e-07
1.04893e-05
-5.06644e-08
1.0478e-05
-1.76851e-07
1.0457e-05
-2.81975e-07
1.04342e-05
-3.02965e-07
1.04108e-05
-2.99732e-07
1.03892e-05
-2.42693e-07
1.03742e-05
-1.74751e-07
1.03655e-05
-1.10368e-07
1.03648e-05
-5.11979e-08
1.03701e-05
8.24535e-09
1.03756e-05
5.69588e-08
1.03793e-05
7.78538e-08
1.03855e-05
8.3288e-08
1.03957e-05
8.8723e-08
9.36359e-08
1.0408e-05
1.09804e-05
-6.02874e-08
1.09571e-05
-2.37124e-07
1.09586e-05
-1.03418e-07
1.09724e-05
5.96008e-08
1.09819e-05
9.24949e-08
1.09879e-05
-5.66657e-08
1.09781e-05
-1.67076e-07
1.09572e-05
-2.6101e-07
1.09337e-05
-2.79553e-07
1.09115e-05
-2.77518e-07
1.08914e-05
-2.22581e-07
1.08766e-05
-1.59953e-07
1.08665e-05
-1.00253e-07
1.08644e-05
-4.90729e-08
1.08691e-05
3.56787e-09
1.08768e-05
4.91819e-08
1.08834e-05
7.12547e-08
1.08905e-05
7.62208e-08
1.09008e-05
7.84075e-08
8.40267e-08
1.09104e-05
1.15073e-05
-5.2207e-08
1.14837e-05
-2.13576e-07
1.14836e-05
-1.03258e-07
1.14992e-05
4.39296e-08
1.1508e-05
8.37029e-08
1.15105e-05
-5.91306e-08
1.15018e-05
-1.58376e-07
1.1482e-05
-2.41164e-07
1.14577e-05
-2.55305e-07
1.14352e-05
-2.55037e-07
1.14163e-05
-2.03624e-07
1.14025e-05
-1.46213e-07
1.13932e-05
-9.0948e-08
1.13907e-05
-4.65331e-08
1.13946e-05
-3.49674e-10
1.14029e-05
4.09014e-08
1.14106e-05
6.35236e-08
1.14171e-05
6.97234e-08
1.14258e-05
6.97039e-08
7.43369e-08
1.14355e-05
1.20591e-05
-4.54855e-08
1.2036e-05
-1.90477e-07
1.20337e-05
-1.00921e-07
1.20504e-05
2.715e-08
1.20598e-05
7.43848e-08
1.20589e-05
-5.82518e-08
1.205e-05
-1.49518e-07
1.20322e-05
-2.23305e-07
1.20077e-05
-2.30817e-07
1.1985e-05
-2.32324e-07
1.1967e-05
-1.85655e-07
1.19547e-05
-1.33918e-07
1.19463e-05
-8.25252e-08
1.19435e-05
-4.37433e-08
1.19466e-05
-3.44371e-09
1.19543e-05
3.31393e-08
1.19625e-05
5.53782e-08
1.19693e-05
6.29551e-08
1.19765e-05
6.24437e-08
6.48469e-08
1.1986e-05
1.2637e-05
-3.9859e-08
1.2615e-05
-1.68521e-07
1.26101e-05
-9.60111e-08
1.26272e-05
1.00643e-08
1.26377e-05
6.3864e-08
1.26344e-05
-5.49722e-08
1.26244e-05
-1.39442e-07
1.26086e-05
-2.07564e-07
1.25854e-05
-2.07645e-07
1.25625e-05
-2.09429e-07
1.25447e-05
-1.6785e-07
1.25337e-05
-1.22925e-07
1.25264e-05
-7.51908e-08
1.25235e-05
-4.0788e-08
1.25259e-05
-5.8952e-09
1.25329e-05
2.61799e-08
1.25408e-05
4.74503e-08
1.25479e-05
5.58568e-08
1.2554e-05
5.63225e-08
5.63639e-08
1.25625e-05
1.32421e-05
-3.50546e-08
1.32218e-05
-1.4822e-07
1.32145e-05
-8.87306e-08
1.3231e-05
-6.4038e-09
1.32428e-05
5.21256e-08
1.32384e-05
-5.05849e-08
1.32264e-05
-1.27455e-07
1.32121e-05
-1.93318e-07
1.31914e-05
-1.86936e-07
1.3169e-05
-1.87049e-07
1.31513e-05
-1.50136e-07
1.31408e-05
-1.12405e-07
1.31344e-05
-6.875e-08
1.31316e-05
-3.80361e-08
1.31334e-05
-7.66632e-09
1.31395e-05
2.00239e-08
1.31468e-05
4.01552e-08
1.3154e-05
4.8652e-08
1.31601e-05
5.02822e-08
4.91042e-08
1.31673e-05
1.38759e-05
-3.08021e-08
1.38577e-05
-1.29976e-07
1.38486e-05
-7.96595e-08
1.38633e-05
-2.11398e-08
1.3876e-05
3.94308e-08
1.38717e-05
-4.6284e-08
1.3858e-05
-1.13702e-07
1.38441e-05
-1.7948e-07
1.38265e-05
-1.69301e-07
1.38056e-05
-1.6619e-07
1.37878e-05
-1.32277e-07
1.3777e-05
-1.01613e-07
1.37713e-05
-6.30474e-08
1.3769e-05
-3.57323e-08
1.37703e-05
-8.98767e-09
1.37757e-05
1.46221e-08
1.37824e-05
3.34703e-08
1.37893e-05
4.17329e-08
1.37954e-05
4.42181e-08
4.32163e-08
1.38013e-05
1.45397e-05
-2.68709e-08
1.45238e-05
-1.14001e-07
1.45135e-05
-6.93868e-08
1.45257e-05
-3.33958e-08
1.4539e-05
2.62052e-08
1.45356e-05
-4.29405e-08
1.45207e-05
-9.88225e-08
1.45062e-05
-1.6492e-07
1.44912e-05
-1.54334e-07
1.44731e-05
-1.4804e-07
1.44555e-05
-1.14684e-07
1.44443e-05
-9.04152e-08
1.44386e-05
-5.73946e-08
1.44368e-05
-3.38992e-08
1.44378e-05
-1.00358e-08
1.44425e-05
9.93243e-09
1.44487e-05
2.73045e-08
1.4455e-05
3.53991e-08
1.44609e-05
3.83468e-08
3.79943e-08
1.44661e-05
1.52351e-05
-2.30852e-08
1.52214e-05
-1.00307e-07
1.52106e-05
-5.85835e-08
1.52197e-05
-4.25016e-08
1.5233e-05
1.29341e-08
1.52311e-05
-4.10611e-08
1.52159e-05
-8.36188e-08
1.52003e-05
-1.493e-07
1.51868e-05
-1.40885e-07
1.5172e-05
-1.33224e-07
1.51557e-05
-9.83278e-08
1.5144e-05
-7.87306e-08
1.51378e-05
-5.12768e-08
1.51363e-05
-3.23579e-08
1.51373e-05
-1.10458e-08
1.51415e-05
5.7904e-09
1.51471e-05
2.16786e-08
1.51529e-05
2.96118e-08
1.51585e-05
3.27425e-08
3.30043e-08
1.51635e-05
1.59636e-05
-1.9353e-08
1.5952e-05
-8.87048e-08
1.59413e-05
-4.78419e-08
1.59469e-05
-4.81271e-08
1.59596e-05
1.90661e-10
1.59593e-05
-4.07355e-08
1.59445e-05
-6.87954e-08
1.59282e-05
-1.32976e-07
1.59148e-05
-1.27512e-07
1.5903e-05
-1.21496e-07
1.58893e-05
-8.45734e-08
1.58776e-05
-6.69955e-08
1.58709e-05
-4.46233e-08
1.58691e-05
-3.05779e-08
1.58701e-05
-1.20676e-08
1.58738e-05
2.09633e-09
1.5879e-05
1.65583e-08
1.58843e-05
2.42956e-08
1.58895e-05
2.74736e-08
2.8298e-08
1.58943e-05
1.67269e-05
-1.56627e-08
1.6717e-05
-7.8821e-08
1.67069e-05
-3.77134e-08
1.6709e-05
-5.02417e-08
1.67203e-05
-1.10545e-08
1.67212e-05
-4.17159e-08
1.67075e-05
-5.50937e-08
1.66912e-05
-1.16622e-07
1.66772e-05
-1.135e-07
1.66674e-05
-1.11746e-07
1.66571e-05
-7.42551e-08
1.66466e-05
-5.64434e-08
1.66393e-05
-3.73697e-08
1.6637e-05
-2.82593e-08
1.66378e-05
-1.28657e-08
1.66411e-05
-1.21746e-09
1.66459e-05
1.17611e-08
1.66508e-05
1.93642e-08
1.66556e-05
2.27056e-08
2.37492e-08
1.66601e-05
1.75268e-05
-1.20811e-08
1.75181e-05
-7.01357e-08
1.7509e-05
-2.8642e-08
1.75079e-05
-4.90818e-08
1.75163e-05
-1.95042e-08
1.75184e-05
-4.38523e-08
1.75066e-05
-4.32385e-08
1.74908e-05
-1.00788e-07
1.74765e-05
-9.91922e-08
1.7467e-05
-1.02304e-07
1.746e-05
-6.72779e-08
1.7452e-05
-4.84443e-08
1.74447e-05
-3.00502e-08
1.74417e-05
-2.52937e-08
1.7442e-05
-1.31216e-08
1.74449e-05
-4.14116e-09
1.74493e-05
7.36956e-09
1.7454e-05
1.46514e-08
1.74584e-05
1.83704e-08
1.94614e-08
1.74627e-05
1.8365e-05
-8.71852e-09
1.83569e-05
-6.20595e-08
1.83492e-05
-2.08957e-08
1.83455e-05
-4.54332e-08
1.835e-05
-2.40215e-08
1.83533e-05
-4.71283e-08
1.83439e-05
-3.38709e-08
1.83291e-05
-8.5924e-08
1.8315e-05
-8.50762e-08
1.8305e-05
-9.22963e-08
1.82998e-05
-6.21377e-08
1.82949e-05
-4.3573e-08
1.82888e-05
-2.38857e-08
1.82851e-05
-2.15978e-08
1.82847e-05
-1.27756e-08
1.8287e-05
-6.44735e-09