/*--------------------------------*- C++ -*----------------------------------*\
| =========                 |                                                 |
| \\      /  F ield         | OpenFOAM: The Open Source CFD Toolbox           |
|  \\    /   O peration     | Version:  v1912                                 |
|   \\  /    A nd           | Website:  www.openfoam.com                      |
|    \\/     M anipulation  |                                                 |
\*---------------------------------------------------------------------------*/
FoamFile
{
    version     2.0;
    format      ascii;
    class       surfaceScalarField;
    location    "9.6";
    object      phi;
}
// * * * * * * * * * * * * * * * * * * * * * * * * * * * * * * * * * * * * * //

dimensions      [0 3 -1 0 0 0 0];
oriented        oriented;


internalField   nonuniform List<scalar> 
19000
(
1.17895e-06
-6.73771e-07
1.26573e-06
-3.67931e-07
1.20263e-06
1.31308e-06
1.04811e-06
6.83576e-07
1.17189e-06
-1.69334e-06
1.19472e-06
-4.84625e-07
1.16001e-06
-4.00353e-07
1.22214e-06
3.46092e-07
1.18546e-06
-2.25238e-08
1.15537e-06
1.31391e-07
1.16158e-06
-7.78969e-08
1.1464e-06
-5.2308e-08
1.18502e-06
4.17586e-07
1.15513e-06
5.67159e-08
1.18283e-06
1.17857e-07
1.18231e-06
1.60599e-07
1.18352e-06
-6.20949e-08
1.1965e-06
1.05929e-07
1.19223e-06
7.70977e-08
2.411e-07
1.1765e-06
1.23842e-06
-6.87925e-07
1.32532e-06
-4.54835e-07
1.25783e-06
1.38057e-06
1.11892e-06
8.22496e-07
1.24061e-06
-1.81503e-06
1.25949e-06
-5.03506e-07
1.22442e-06
-3.65279e-07
1.28838e-06
2.82127e-07
1.25201e-06
1.38427e-08
1.22228e-06
1.61123e-07
1.22333e-06
-7.89427e-08
1.20865e-06
-3.76264e-08
1.23896e-06
3.87274e-07
1.22044e-06
7.52309e-08
1.23479e-06
1.03509e-07
1.25525e-06
1.40144e-07
1.23558e-06
-4.24294e-08
1.27197e-06
6.95403e-08
1.23793e-06
1.11133e-07
2.18731e-07
1.2603e-06
1.29834e-06
-7.03482e-07
1.38376e-06
-5.40254e-07
1.32002e-06
1.4443e-06
1.20268e-06
9.39837e-07
1.30943e-06
-1.92179e-06
1.33339e-06
-5.27456e-07
1.29403e-06
-3.2592e-07
1.35684e-06
2.19317e-07
1.32342e-06
4.72579e-08
1.29755e-06
1.86997e-07
1.28671e-06
-6.81012e-08
1.27854e-06
-2.94623e-08
1.2976e-06
3.68222e-07
1.29523e-06
7.75979e-08
1.29358e-06
1.05154e-07
1.3245e-06
1.09232e-07
1.30056e-06
-1.84982e-08
1.32597e-06
4.41353e-08
1.30949e-06
1.27609e-07
2.29297e-07
1.29893e-06
1.35756e-06
-7.16942e-07
1.44052e-06
-6.23214e-07
1.38903e-06
1.4958e-06
1.29597e-06
1.0329e-06
1.37525e-06
-2.00106e-06
1.40652e-06
-5.58726e-07
1.36616e-06
-2.85566e-07
1.42169e-06
1.6379e-07
1.39531e-06
7.36386e-08
1.37178e-06
2.10524e-07
1.34991e-06
-4.62347e-08
1.34684e-06
-2.63899e-08
1.36039e-06
3.54673e-07
1.36683e-06
7.11563e-08
1.36073e-06
1.11262e-07
1.38616e-06
8.37973e-08
1.37272e-06
-5.06185e-09
1.38174e-06
3.51139e-08
1.37936e-06
1.29996e-07
2.45594e-07
1.36306e-06
1.41632e-06
-7.24905e-07
1.49434e-06
-7.01234e-07
1.46266e-06
1.52747e-06
1.3925e-06
1.10306e-06
1.43589e-06
-2.04445e-06
1.47199e-06
-5.94833e-07
1.4383e-06
-2.51877e-07
1.48155e-06
1.20543e-07
1.46498e-06
9.02047e-08
1.44228e-06
2.33229e-07
1.41411e-06
-1.8069e-08
1.41213e-06
-2.44041e-08
1.42451e-06
3.42289e-07
1.43392e-06
6.17448e-08
1.43026e-06
1.14925e-07
1.4473e-06
6.67531e-08
1.44226e-06
-1.76761e-11
1.44386e-06
3.35149e-08
1.44429e-06
1.29565e-07
2.56724e-07
1.43316e-06
1.4762e-06
-7.2543e-07
1.54545e-06
-7.70484e-07
1.53776e-06
1.53515e-06
1.48718e-06
1.15364e-06
1.49372e-06
-2.05099e-06
1.52917e-06
-6.30282e-07
1.50906e-06
-2.31768e-07
1.53909e-06
9.05158e-08
1.53124e-06
9.80582e-08
1.51059e-06
2.53873e-07
1.48114e-06
1.13856e-08
1.47776e-06
-2.1024e-08
1.48942e-06
3.30632e-07
1.49947e-06
5.16871e-08
1.49891e-06
1.15493e-07
1.51025e-06
5.54117e-08
1.50823e-06
1.99714e-09
1.50728e-06
3.44733e-08
1.50765e-06
1.29194e-07
2.64014e-07
1.50036e-06
1.53948e-06
-7.18695e-07
1.59586e-06
-8.26863e-07
1.61137e-06
1.51965e-06
1.57767e-06
1.18734e-06
1.55383e-06
-2.02715e-06
1.58328e-06
-6.59733e-07
1.57791e-06
-2.26392e-07
1.5974e-06
7.10241e-08
1.59468e-06
1.00775e-07
1.57867e-06
2.69883e-07
1.5517e-06
3.83588e-08
1.54679e-06
-1.61157e-08
1.55666e-06
3.20758e-07
1.5661e-06
4.22482e-08
1.56723e-06
1.14365e-07
1.57515e-06
4.74888e-08
1.57361e-06
3.54363e-09
1.57076e-06
3.73165e-08
1.57108e-06
1.28884e-07
2.69573e-07
1.56552e-06
1.60811e-06
-7.06677e-07
1.64859e-06
-8.67345e-07
1.68188e-06
1.48636e-06
1.66383e-06
1.20538e-06
1.62019e-06
-1.98351e-06
1.64071e-06
-6.80254e-07
1.64535e-06
-2.31034e-07
1.65811e-06
5.82686e-08
1.65754e-06
1.0134e-07
1.64783e-06
2.79599e-07
1.62553e-06
6.06546e-08
1.62029e-06
-1.08784e-08
1.62786e-06
3.13198e-07
1.63556e-06
3.45467e-08
1.63713e-06
1.12795e-07
1.64233e-06
4.22855e-08
1.64061e-06
5.259e-09
1.63569e-06
4.22412e-08
1.63594e-06
1.28635e-07
2.74157e-07
1.63135e-06
1.68292e-06
-6.9202e-07
1.70664e-06
-8.91069e-07
1.75011e-06
1.44289e-06
1.74696e-06
1.20854e-06
1.69382e-06
-1.93036e-06
1.70526e-06
-6.91695e-07
1.71312e-06
-2.38899e-07
1.72201e-06
4.93843e-08
1.72242e-06
1.00924e-07
1.71914e-06
2.82886e-07
1.70222e-06
7.75673e-08
1.69797e-06
-6.63082e-09
1.7037e-06
3.07475e-07
1.70909e-06
2.91588e-08
1.71042e-06
1.11464e-07
1.7127e-06
4.00036e-08
1.71059e-06
7.3647e-09
1.70357e-06
4.92657e-08
1.70359e-06
1.28611e-07
2.77765e-07
1.69998e-06
1.76359e-06
-6.76887e-07
1.77218e-06
-8.99659e-07
1.819e-06
1.39607e-06
1.82918e-06
1.19836e-06
1.77367e-06
-1.87485e-06
1.7777e-06
-6.95725e-07
1.78362e-06
-2.44822e-07
1.79008e-06
4.2926e-08
1.79133e-06
9.96657e-08
1.79356e-06
2.80663e-07
1.78173e-06
8.93928e-08
1.77928e-06
-4.17404e-09
1.78423e-06
3.02518e-07
1.78746e-06
2.59273e-08
1.78839e-06
1.10538e-07
1.78749e-06
4.09043e-08
1.7847e-06
1.0157e-08
1.7756e-06
5.8362e-08
1.77506e-06
1.29153e-07
2.80228e-07
1.7726e-06
1.8493e-06
-6.62435e-07
1.84612e-06
-8.96487e-07
1.89203e-06
1.35016e-06
1.91282e-06
1.17757e-06
1.85832e-06
-1.82035e-06
1.85723e-06
-6.94634e-07
1.85903e-06
-2.46619e-07
1.86365e-06
3.83036e-08
1.86561e-06
9.7707e-08
1.87191e-06
2.74357e-07
1.86442e-06
9.68921e-08
1.86397e-06
-3.72975e-09
1.86921e-06
2.97277e-07
1.87085e-06
2.42922e-08
1.8716e-06
1.09785e-07
1.86763e-06
4.48766e-08
1.86393e-06
1.38543e-08
1.8528e-06
6.94946e-08
1.85111e-06
1.30844e-07
2.81501e-07
1.84983e-06
1.93934e-06
-6.48933e-07
1.92822e-06
-8.85367e-07
1.97159e-06
1.30679e-06
1.99976e-06
1.14939e-06
1.94695e-06
-1.76754e-06
1.94286e-06
-6.90545e-07
1.94068e-06
-2.44431e-07
1.94385e-06
3.51261e-08
1.94612e-06
9.54419e-08
1.95496e-06
2.65515e-07
1.95082e-06
1.0103e-07
1.95217e-06
-5.07372e-09
1.95831e-06
2.91129e-07
1.95887e-06
2.37379e-08
1.95992e-06
1.08733e-07
1.95341e-06
5.13844e-08
1.94886e-06
1.841e-08
1.93595e-06
8.24019e-08
1.93245e-06
1.34345e-07
2.81682e-07
1.93227e-06
2.03339e-06
-6.36137e-07
2.01752e-06
-8.69498e-07
2.0585e-06
1.26582e-06
2.09123e-06
1.11666e-06
2.03945e-06
-1.71576e-06
2.03396e-06
-6.85053e-07
2.02896e-06
-2.39434e-07
2.03118e-06
3.29032e-08
2.0334e-06
9.32272e-08
2.0434e-06
2.55509e-07
2.04154e-06
1.02893e-07
2.04412e-06
-7.65756e-09
2.05127e-06
2.83986e-07
2.05095e-06
2.40535e-08
2.05286e-06
1.06825e-07
2.04463e-06
5.96123e-08
2.03951e-06
2.35354e-08
2.02548e-06
9.64261e-08
2.01974e-06
1.40088e-07
2.80844e-07
2.02058e-06
2.13149e-06
-6.23629e-07
2.11309e-06
-8.51094e-07
2.15253e-06
1.22638e-06
2.18784e-06
1.08135e-06
2.13611e-06
-1.66403e-06
2.13019e-06
-6.79134e-07
2.12366e-06
-2.32904e-07
2.12552e-06
3.10487e-08
2.1276e-06
9.11419e-08
2.13775e-06
2.45357e-07
2.13708e-06
1.03563e-07
2.14019e-06
-1.07658e-08
2.14803e-06
2.76148e-07
2.1467e-06
2.53806e-08
2.14993e-06
1.036e-07
2.14089e-06
6.86499e-08
2.13555e-06
2.88813e-08
2.12141e-06
1.10557e-07
2.11343e-06
1.48076e-07
2.78945e-07
2.11533e-06
2.23388e-06
-6.11018e-07
2.21433e-06
-8.31544e-07
2.25313e-06
1.18758e-06
2.28986e-06
1.04461e-06
2.23739e-06
-1.61155e-06
2.23145e-06
-6.73202e-07
2.22438e-06
-2.2583e-07
2.22643e-06
2.89924e-08
2.22856e-06
8.90164e-08
2.23822e-06
2.35698e-07
2.23784e-06
1.03939e-07
2.24081e-06
-1.37327e-08
2.24892e-06
2.68042e-07
2.24617e-06
2.81243e-08
2.25091e-06
9.88608e-08
2.24192e-06
7.76431e-08
2.23657e-06
3.42265e-08
2.22349e-06
1.23643e-07
2.2137e-06
1.57866e-07
2.75882e-07
2.21676e-06
2.34089e-06
-5.98033e-07
2.32105e-06
-8.11699e-07
2.3598e-06
1.14882e-06
2.39735e-06
1.00707e-06
2.34368e-06
-1.55789e-06
2.33774e-06
-6.67258e-07
2.33073e-06
-2.18824e-07
2.33343e-06
2.62919e-08
2.33587e-06
8.65815e-08
2.34472e-06
2.26845e-07
2.34408e-06
1.04585e-07
2.34647e-06
-1.61296e-08
2.35453e-06
2.59987e-07
2.34988e-06
3.27747e-08
2.35594e-06
9.27938e-08
2.34767e-06
8.59197e-08
2.34233e-06
3.9562e-08
2.33133e-06
1.34648e-07
2.32047e-06
1.6872e-07
2.71652e-07
2.3247e-06
2.4529e-06
-5.84534e-07
2.43326e-06
-7.92063e-07
2.47223e-06
1.10985e-06
2.51027e-06
9.69033e-07
2.45535e-06
-1.50297e-06
2.44918e-06
-6.61085e-07
2.4425e-06
-2.1214e-07
2.44608e-06
2.27098e-08
2.44908e-06
8.35756e-08
2.45706e-06
2.18866e-07
2.45595e-06
1.05694e-07
2.45765e-06
-1.78218e-08
2.46556e-06
2.5207e-07
2.45864e-06
3.96933e-08
2.46547e-06
8.59643e-08
2.45832e-06
9.30779e-08
2.45281e-06
4.50691e-08
2.44459e-06
1.42863e-07
2.4335e-06
1.79811e-07
2.66433e-07
2.43872e-06
2.57023e-06
-5.70467e-07
2.55108e-06
-7.72916e-07
2.59028e-06
1.07065e-06
2.62862e-06
9.30694e-07
2.57267e-06
-1.44702e-06
2.56599e-06
-6.54405e-07
2.5596e-06
-2.05752e-07
2.56407e-06
1.82421e-08
2.56786e-06
7.97863e-08
2.57509e-06
2.11634e-07
2.5736e-06
1.07184e-07
2.57467e-06
-1.88913e-08
2.58258e-06
2.44158e-07
2.57335e-06
4.89248e-08
2.58013e-06
7.9181e-08
2.57418e-06
9.90352e-08
2.56823e-06
5.10155e-08
2.56305e-06
1.48039e-07
2.5525e-06
1.90369e-07
2.60585e-07
2.55834e-06
2.69316e-06
-5.55803e-07
2.67466e-06
-7.54407e-07
2.71402e-06
1.03128e-06
2.75251e-06
8.92203e-07
2.69588e-06
-1.39039e-06
2.68845e-06
-6.46979e-07
2.68219e-06
-1.99487e-07
2.68735e-06
1.30834e-08
2.69206e-06
7.50705e-08
2.6988e-06
2.04899e-07
2.69713e-06
1.08849e-07
2.69774e-06
-1.95018e-08
2.70589e-06
2.36011e-07
2.69469e-06
6.01225e-08
2.7006e-06
7.32736e-08
2.69564e-06
1.03995e-07
2.68902e-06
5.76324e-08
2.68668e-06
1.50381e-07
2.67727e-06
1.9978e-07
2.5457e-07
2.68329e-06
2.82196e-06
-5.40492e-07
2.80419e-06
-7.36639e-07
2.84369e-06
9.91782e-07
2.88213e-06
8.53758e-07
2.82521e-06
-1.33346e-06
2.81687e-06
-6.38639e-07
2.81055e-06
-1.93162e-07
2.8161e-06
7.5312e-09
2.82179e-06
6.93822e-08
2.82833e-06
1.98354e-07
2.82668e-06
1.10499e-07
2.82697e-06
-1.9789e-08
2.83557e-06
2.27405e-07
2.82308e-06
7.2613e-08
2.82748e-06
6.88725e-08
2.82314e-06
1.08339e-07
2.81576e-06
6.50144e-08
2.81568e-06
1.50461e-07
2.80784e-06
2.0762e-07
2.48855e-07
2.81355e-06
2.95686e-06
-5.24459e-07
2.93995e-06
-7.19723e-07
2.97964e-06
9.52091e-07
3.01776e-06
8.15638e-07
2.9609e-06
-1.27661e-06
2.95154e-06
-6.2927e-07
2.94506e-06
-1.86683e-07
2.95071e-06
1.87465e-09
2.95731e-06
6.27876e-08
2.96396e-06
1.91701e-07
2.96241e-06
1.12049e-07
2.96243e-06
-1.98104e-08
2.97162e-06
2.18219e-07
2.95865e-06
8.55861e-08
2.96124e-06
6.62754e-08
2.95711e-06
1.12472e-07
2.949e-06
7.31247e-08
2.95045e-06
1.49011e-07
2.9444e-06
2.13666e-07
2.43824e-07
2.94943e-06
3.09817e-06
-5.07623e-07
3.08222e-06
-7.03776e-07
3.12225e-06
9.12069e-07
3.15968e-06
7.78199e-07
3.10322e-06
-1.22015e-06
3.09275e-06
-6.188e-07
3.08612e-06
-1.80057e-07
3.09168e-06
-3.68371e-09
3.09901e-06
5.54557e-08
3.10603e-06
1.84681e-07
3.10455e-06
1.13533e-07
3.10429e-06
-1.95462e-08
3.11405e-06
2.08459e-07
3.10133e-06
9.8304e-08
3.10218e-06
6.54276e-08
3.09796e-06
1.16685e-07
3.08925e-06
8.18373e-08
3.0915e-06
1.46763e-07
3.08732e-06
2.17841e-07
2.39749e-07
3.0914e-06
3.24621e-06
-4.89928e-07
3.23133e-06
-6.88892e-07
3.27187e-06
8.71532e-07
3.30823e-06
7.41836e-07
3.25243e-06
-1.16435e-06
3.24083e-06
-6.072e-07
3.23414e-06
-1.73367e-07
3.2395e-06
-9.0461e-09
3.24733e-06
4.76282e-08
3.25492e-06
1.77085e-07
3.25338e-06
1.15073e-07
3.25277e-06
-1.89268e-08
3.26298e-06
1.9824e-07
3.25105e-06
1.1024e-07
3.25045e-06
6.60303e-08
3.24606e-06
1.21075e-07
3.23687e-06
9.10218e-08
3.23932e-06
1.4431e-07
3.237e-06
2.20163e-07
2.36743e-07
3.24001e-06
3.40137e-06
-4.71367e-07
3.38756e-06
-6.75085e-07
3.42881e-06
8.30284e-07
3.46374e-06
7.06907e-07
3.40883e-06
-1.10943e-06
3.39612e-06
-5.94494e-07
3.38949e-06
-1.6674e-07
3.39464e-06
-1.41914e-08
3.40268e-06
3.95866e-08
3.41101e-06
1.68757e-07
3.40927e-06
1.16812e-07
3.40819e-06
-1.78444e-08
3.41869e-06
1.87739e-07
3.4078e-06
1.21132e-07
3.40615e-06
6.7682e-08
3.4017e-06
1.25519e-07
3.39211e-06
1.00611e-07
3.39437e-06
1.42058e-07
3.39384e-06
2.20686e-07
2.34769e-07
3.39582e-06
3.56405e-06
-4.52006e-07
3.5512e-06
-6.62234e-07
3.59334e-06
7.88147e-07
3.6266e-06
6.73648e-07
3.57272e-06
-1.05556e-06
3.55901e-06
-5.80776e-07
3.5526e-06
-1.60332e-07
3.55753e-06
-1.9119e-08
3.5655e-06
3.16144e-08
3.57463e-06
1.59621e-07
3.57259e-06
1.18857e-07
3.57092e-06
-1.61707e-08
3.5815e-06
1.77153e-07
3.57168e-06
1.30949e-07
3.56937e-06
6.99996e-08
3.56517e-06
1.29716e-07
3.55524e-06
1.10537e-07
3.55699e-06
1.40309e-07
3.55825e-06
2.19431e-07
2.33632e-07
3.55938e-06
3.7347e-06
-4.31997e-07
3.7225e-06
-6.5004e-07
3.76565e-06
7.44997e-07
3.79721e-06
6.42088e-07
3.74446e-06
-1.0028e-06
3.72988e-06
-5.66202e-07
3.72386e-06
-1.54312e-07
3.72854e-06
-2.37912e-08
3.73618e-06
2.39674e-08
3.74611e-06
1.49696e-07
3.74372e-06
1.21246e-07
3.74132e-06
-1.37756e-08
3.75182e-06
1.66657e-07
3.74294e-06
1.39827e-07
3.74025e-06
7.2689e-08
3.73669e-06
1.33279e-07
3.72659e-06
1.2064e-07
3.72758e-06
1.39321e-07
3.73056e-06
2.16441e-07
2.32958e-07
3.73124e-06
3.91377e-06
-4.11581e-07
3.90175e-06
-6.38021e-07
3.94593e-06
7.0082e-07
3.97601e-06
6.12012e-07
3.9244e-06
-9.51196e-07
3.90916e-06
-5.5097e-07
3.9037e-06
-1.48845e-07
3.908e-06
-2.80965e-08
3.91512e-06
1.68504e-08
3.92572e-06
1.39097e-07
3.923e-06
1.23968e-07
3.91979e-06
-1.05647e-08
3.93009e-06
1.56352e-07
3.92196e-06
1.47956e-07
3.91903e-06
7.56185e-08
3.91651e-06
1.35805e-07
3.90653e-06
1.30621e-07
3.9065e-06
1.39342e-07
3.91113e-06
2.11817e-07
2.32235e-07
3.91185e-06
4.10174e-06
-3.91072e-07
4.08928e-06
-6.25557e-07
4.13436e-06
6.55738e-07
4.16339e-06
5.82982e-07
4.11294e-06
-9.00749e-07
4.09725e-06
-5.35279e-07
4.09248e-06
-1.44068e-07
4.09623e-06
-3.18504e-08
4.10267e-06
1.0407e-08
4.11376e-06
1.28013e-07
4.11075e-06
1.26977e-07
4.10668e-06
-6.4954e-09
4.11678e-06
1.46253e-07
4.10927e-06
1.55467e-07
4.10606e-06
7.88225e-08
4.10487e-06
1.37e-07
4.09544e-06
1.40052e-07
4.09419e-06
1.4059e-07
4.10024e-06
2.05765e-07
2.3084e-07
4.10164e-06
4.29905e-06
-3.70819e-07
4.28548e-06
-6.11993e-07
4.3312e-06
6.10021e-07
4.35976e-06
5.54423e-07
4.31052e-06
-8.51504e-07
4.29453e-06
-5.19295e-07
4.29053e-06
-1.40065e-07
4.29352e-06
-3.48411e-08
4.2992e-06
4.72597e-09
4.31055e-06
1.16663e-07
4.30731e-06
1.30212e-07
4.30239e-06
-1.57585e-09
4.31234e-06
1.36305e-07
4.30548e-06
1.62332e-07
4.30176e-06
8.25358e-08
4.30205e-06
1.36711e-07
4.29364e-06
1.48468e-07
4.29114e-06
1.43088e-07
4.29819e-06
1.98713e-07
2.28145e-07
4.30089e-06
4.50611e-06
-3.51155e-07
4.49088e-06
-5.96764e-07
4.53684e-06
5.64058e-07
4.56552e-06
5.25745e-07
4.51755e-06
-8.03529e-07
4.50136e-06
-5.03111e-07
4.49815e-06
-1.36854e-07
4.5002e-06
-3.6889e-08
4.50507e-06
-1.46372e-10
4.51649e-06
1.05246e-07
4.51312e-06
1.33578e-07
4.50739e-06
4.16358e-09
4.51725e-06
1.26445e-07
4.5112e-06
1.68376e-07
4.50662e-06
8.71163e-08
4.50837e-06
1.34966e-07
4.50148e-06
1.55359e-07
4.49792e-06
1.46648e-07
4.5053e-06
1.91331e-07
2.23669e-07
4.50977e-06
4.72331e-06
-3.32351e-07
4.70606e-06
-5.79508e-07
4.75182e-06
5.18297e-07
4.78109e-06
4.96473e-07
4.73447e-06
-7.56912e-07
4.71812e-06
-4.86758e-07
4.71564e-06
-1.34374e-07
4.71667e-06
-3.79225e-08
4.72071e-06
-4.18171e-09
4.73205e-06
9.39021e-08
4.72868e-06
1.36944e-07
4.72218e-06
1.06684e-08
4.73195e-06
1.16674e-07
4.72701e-06
1.73317e-07
4.72131e-06
9.28186e-08
4.72416e-06
1.32109e-07
4.71926e-06
1.60261e-07
4.71501e-06
1.50902e-07
4.72203e-06
1.84309e-07
2.17298e-07
4.7284e-06
4.95101e-06
-3.14567e-07
4.93165e-06
-5.60142e-07
4.97676e-06
4.73181e-07
5.0069e-06
4.66332e-07
4.96172e-06
-7.1173e-07
4.9452e-06
-4.70236e-07
4.94329e-06
-1.32464e-07
4.94337e-06
-3.80022e-08
4.94657e-06
-7.38094e-09
4.95776e-06
8.27144e-08
4.95458e-06
1.40121e-07
4.94734e-06
1.791e-08
4.95695e-06
1.07064e-07
4.95343e-06
1.76841e-07
4.94655e-06
9.96936e-08
4.94993e-06
1.28729e-07
4.94732e-06
1.62871e-07
4.9428e-06
1.55426e-07
4.94896e-06
1.78149e-07
2.09358e-07
4.9569e-06
5.1896e-06
-2.97846e-07
5.1683e-06
-5.38846e-07
5.21239e-06
4.29089e-07
5.24345e-06
4.35278e-07
5.19973e-06
-6.68015e-07
5.18308e-06
-4.53582e-07
5.18147e-06
-1.30852e-07
5.18079e-06
-3.73285e-08
5.18319e-06
-9.78268e-09
5.19417e-06
7.1739e-08
5.19144e-06
1.42854e-07
5.18346e-06
2.5881e-08
5.19278e-06
9.77483e-08
5.19094e-06
1.78682e-07
5.18298e-06
1.0765e-07
5.18633e-06
1.25384e-07
5.18602e-06
1.63176e-07
5.18166e-06
1.59784e-07
5.18671e-06
1.73106e-07
2.0051e-07
5.19555e-06
5.43947e-06
-2.82124e-07
5.41663e-06
-5.16012e-07
5.45941e-06
3.86308e-07
5.49124e-06
4.03456e-07
5.44895e-06
-6.25734e-07
5.43228e-06
-4.36905e-07
5.43065e-06
-1.29225e-07
5.42946e-06
-3.61339e-08
5.43114e-06
-1.14697e-08
5.44186e-06
6.10236e-08
5.43986e-06
1.44853e-07
5.43115e-06
3.45899e-08
5.44e-06
8.88972e-08
5.44e-06
1.78682e-07
5.43119e-06
1.16462e-07
5.43397e-06
1.22608e-07
5.43581e-06
1.61334e-07
5.432e-06
1.63589e-07
5.43584e-06
1.69273e-07
1.91464e-07
5.44488e-06
5.70109e-06
-2.67259e-07
5.67722e-06
-4.92142e-07
5.71849e-06
3.45037e-07
5.75083e-06
3.7112e-07
5.70988e-06
-5.84787e-07
5.69337e-06
-4.20392e-07
5.69158e-06
-1.27438e-07
5.68994e-06
-3.44926e-08
5.69101e-06
-1.25353e-08
5.7014e-06
5.06278e-08
5.70043e-06
1.45821e-07
5.691e-06
4.40243e-08
5.69915e-06
8.07448e-08
5.70112e-06
1.76717e-07
5.69175e-06
1.25828e-07
5.6935e-06
1.20858e-07
5.6972e-06
1.57637e-07
5.69431e-06
1.66476e-07
5.697e-06
1.66586e-07
1.82811e-07
5.70565e-06
5.97501e-06
-2.53073e-07
5.95063e-06
-4.67769e-07
5.99024e-06
3.05429e-07
6.02282e-06
3.3854e-07
5.98309e-06
-5.45055e-07
5.96689e-06
-4.04195e-07
5.96508e-06
-1.25622e-07
5.96289e-06
-3.23094e-08
5.96337e-06
-1.3013e-08
5.97338e-06
4.06163e-08
5.97371e-06
1.45489e-07
5.96363e-06
5.4106e-08
5.97077e-06
7.36046e-08
5.97478e-06
1.72714e-07
5.96526e-06
1.3534e-07
5.96566e-06
1.20463e-07
5.97073e-06
1.52563e-07
5.96909e-06
1.6812e-07
5.9708e-06
1.64872e-07
1.74982e-07
5.97863e-06
6.26181e-06
-2.39393e-07
6.23744e-06
-4.43401e-07
6.27521e-06
2.67658e-07
6.30784e-06
3.05907e-07
6.26921e-06
-5.06422e-07
6.25329e-06
-3.88276e-07
6.25172e-06
-1.2405e-07
6.249e-06
-2.95863e-08
6.24884e-06
-1.28553e-08
6.2584e-06
3.1054e-08
6.2602e-06
1.43687e-07
6.24968e-06
6.4632e-08
6.2554e-06
6.78871e-08
6.26143e-06
1.66677e-07
6.25236e-06
1.4441e-07
6.25106e-06
1.21768e-07
6.25705e-06
1.46576e-07
6.25691e-06
1.6826e-07
6.25788e-06
1.63901e-07
1.68227e-07
6.26463e-06
6.56215e-06
-2.26072e-07
6.53825e-06
-4.19498e-07
6.57394e-06
2.31965e-07
6.60658e-06
2.73269e-07
6.56899e-06
-4.68832e-07
6.55302e-06
-3.72313e-07
6.55208e-06
-1.23107e-07
6.54893e-06
-2.64372e-08
6.54804e-06
-1.19634e-08
6.55708e-06
2.2018e-08
6.56044e-06
1.40325e-07
6.54979e-06
7.52794e-08
6.55365e-06
6.40273e-08
6.56159e-06
1.58734e-07
6.55356e-06
1.52446e-07
6.55048e-06
1.24849e-07
6.55673e-06
1.40324e-07
6.55829e-06
1.66697e-07
6.55886e-06
1.63334e-07
1.62634e-07
6.56445e-06
6.87672e-06
-2.13002e-07
6.85368e-06
-3.96457e-07
6.88698e-06
1.98664e-07
6.91974e-06
2.40512e-07
6.88319e-06
-4.32285e-07
6.86676e-06
-3.55883e-07
6.86668e-06
-1.2303e-07
6.86339e-06
-2.31423e-08
6.86165e-06
-1.02288e-08
6.87002e-06
1.36564e-08
6.87494e-06
1.35402e-07
6.86458e-06
8.56408e-08
6.86633e-06
6.2272e-08
6.87573e-06
1.49332e-07
6.86943e-06
1.58747e-07
6.86465e-06
1.29635e-07
6.87042e-06
1.34551e-07
6.87386e-06
1.63253e-07
6.87433e-06
1.62871e-07
1.58121e-07
6.87884e-06
7.20624e-06
-2.0011e-07
7.1844e-06
-3.74613e-07
7.21497e-06
1.68098e-07
7.24791e-06
2.07569e-07
7.21272e-06
-3.97093e-07
7.19529e-06
-3.38453e-07
7.19605e-06
-1.2379e-07
7.19303e-06
-2.01289e-08
7.19039e-06
-7.58606e-09
7.19789e-06
6.15289e-09
7.20431e-06
1.28983e-07
7.19469e-06
9.5264e-08
7.19426e-06
6.27064e-08
7.20448e-06
1.39111e-07
7.20055e-06
1.62676e-07
7.19433e-06
1.35848e-07
7.19866e-06
1.30228e-07
7.20399e-06
1.57918e-07
7.20492e-06
1.61942e-07
1.5457e-07
7.20847e-06
7.55148e-06
-1.87367e-07
7.53105e-06
-3.54185e-07
7.55868e-06
1.40476e-07
7.59137e-06
1.74871e-07
7.55833e-06
-3.64045e-07
7.53948e-06
-3.19609e-07
7.5408e-06
-1.25111e-07
7.53854e-06
-1.7866e-08
7.53503e-06
-4.07184e-09
7.54134e-06
-1.58376e-10
7.5491e-06
1.2122e-07
7.54079e-06
1.03578e-07
7.53831e-06
6.51801e-08
7.54871e-06
1.28712e-07
7.54756e-06
1.63834e-07
7.54042e-06
1.42979e-07
7.54219e-06
1.28463e-07
7.54842e-06
1.51691e-07
7.55084e-06
1.59525e-07
1.51502e-07
7.5539e-06
7.91322e-06
-1.74774e-07
7.8943e-06
-3.35266e-07
7.91916e-06
1.15614e-07
7.95054e-06
1.43496e-07
7.92077e-06
-3.3428e-07
7.90035e-06
-2.99186e-07
7.90166e-06
-1.26424e-07
7.90051e-06
-1.67092e-08
7.89641e-06
2.43971e-11
7.90117e-06
-4.91655e-09
7.91001e-06
1.12375e-07
7.9034e-06
1.10189e-07
7.89936e-06
6.92257e-08
7.90944e-06
1.1863e-07
7.91147e-06
1.61797e-07
7.90413e-06
1.50327e-07
7.90247e-06
1.30122e-07
7.90724e-06
1.46915e-07
7.9108e-06
1.55967e-07
1.46985e-07
7.91532e-06
8.29227e-06
-1.62365e-07
8.27485e-06
-3.17839e-07
8.29735e-06
9.31118e-08
8.32633e-06
1.1451e-07
8.3007e-06
-3.08642e-07
8.27898e-06
-2.77475e-07
8.27958e-06
-1.27021e-07
8.27955e-06
-1.66807e-08
8.27521e-06
4.36362e-09
8.27814e-06
-7.84281e-09
8.28777e-06
1.02747e-07
8.28314e-06
1.14817e-07
8.27803e-06
7.4336e-08
8.28743e-06
1.0923e-07
8.29431e-06
1.54914e-07
8.2923e-06
1.52342e-07
8.29642e-06
1.25995e-07
8.30861e-06
1.34728e-07
8.31612e-06
1.48458e-07
1.47481e-07
8.31562e-06
8.68948e-06
-1.50186e-07
8.67344e-06
-3.01794e-07
8.69405e-06
7.24975e-08
8.71985e-06
8.87179e-08
8.6986e-06
-2.874e-07
8.67632e-06
-2.55192e-07
8.67539e-06
-1.26092e-07
8.67632e-06
-1.76136e-08
8.67231e-06
8.37686e-09
8.67333e-06
-8.86471e-09
8.68329e-06
9.27874e-08
8.68074e-06
1.17371e-07
8.67546e-06
7.96098e-08
8.68453e-06
1.00167e-07
8.69394e-06
1.45502e-07
8.69419e-06
1.52087e-07
8.695e-06
1.25192e-07
8.70458e-06
1.25147e-07
8.71198e-06
1.41051e-07
1.45842e-07
8.71362e-06
9.10574e-06
-1.38307e-07
9.09096e-06
-2.8701e-07
9.11002e-06
5.34339e-08
9.13218e-06
6.65608e-08
9.1147e-06
-2.69921e-07
9.09336e-06
-2.3385e-07
9.09024e-06
-1.22978e-07
9.09176e-06
-1.91349e-08
9.08816e-06
1.1984e-08
9.08758e-06
-8.28977e-09
9.09767e-06
8.27012e-08
9.09735e-06
1.17686e-07
9.09177e-06
8.51942e-08
9.09957e-06
9.2367e-08
9.11081e-06
1.34265e-07
9.11377e-06
1.49124e-07
9.11396e-06
1.25005e-07
9.12232e-06
1.16783e-07
9.13114e-06
1.32228e-07
1.44745e-07
9.13224e-06
9.54195e-06
-1.268e-07
9.52828e-06
-2.73338e-07
9.54612e-06
3.5593e-08
9.5645e-06
4.81803e-08
9.54986e-06
-2.55276e-07
9.53059e-06
-2.14583e-07
9.52527e-06
-1.17656e-07
9.52675e-06
-2.06141e-08
9.52383e-06
1.49058e-08
9.522e-06
-6.46023e-09
9.53166e-06
7.30395e-08
9.53422e-06
1.15127e-07
9.5294e-06
9.001e-08
9.53264e-06
8.91248e-08
9.53941e-06
1.27498e-07
9.53753e-06
1.51006e-07
9.53048e-06
1.32059e-07
9.52774e-06
1.19524e-07
9.53421e-06
1.25752e-07
1.33124e-07
9.54583e-06
9.99913e-06
-1.15796e-07
9.98623e-06
-2.60436e-07
1.00032e-05
1.86154e-08
1.0018e-05
3.34129e-08
1.00052e-05
-2.4247e-07
9.98853e-06
-1.9795e-07
9.98192e-06
-1.11044e-07
9.98236e-06
-2.10509e-08
9.98027e-06
1.6995e-08
9.97722e-06
-3.40981e-09
9.98561e-06
6.4652e-08
9.98876e-06
1.11973e-07
9.985e-06
9.37654e-08
9.99143e-06
8.26957e-08
1.00052e-05
1.1373e-07
1.00151e-05
1.41133e-07
1.00172e-05
1.29975e-07
1.00222e-05
1.14444e-07
1.00292e-05
1.18832e-07
1.34157e-07
1.00281e-05
1.04782e-05
-1.05385e-07
1.04658e-05
-2.48009e-07
1.04822e-05
2.22805e-09
1.0494e-05
2.15885e-08
1.04817e-05
-2.30108e-07
1.0468e-05
-1.84339e-07
1.04607e-05
-1.03746e-07
1.04599e-05
-2.02444e-08
1.04582e-05
1.87001e-08
1.04545e-05
3.52036e-10
1.04617e-05
5.74245e-08
1.04663e-05
1.07329e-07
1.04621e-05
9.8029e-08
1.04612e-05
8.35253e-08
1.04673e-05
1.07654e-07
1.04709e-05
1.37583e-07
1.0468e-05
1.32822e-07
1.04656e-05
1.16874e-07
1.04697e-05
1.14698e-07
1.24134e-07
1.04798e-05
1.09804e-05
-9.57275e-08
1.0968e-05
-2.35667e-07
1.0984e-05
-1.37617e-08
1.09934e-05
1.21868e-08
1.09807e-05
-2.17366e-07
1.09698e-05
-1.73487e-07
1.09629e-05
-9.68091e-08
1.09608e-05
-1.81334e-08
1.09589e-05
2.05905e-08
1.09545e-05
4.75146e-09
1.09597e-05
5.22145e-08
1.09644e-05
1.02572e-07
1.09605e-05
1.01998e-07
1.09584e-05
8.55628e-08
1.09643e-05
1.01782e-07
1.09703e-05
1.31581e-07
1.09704e-05
1.32766e-07
1.09694e-05
1.17806e-07
1.09741e-05
1.10001e-07
1.16361e-07
1.09819e-05
1.15066e-05
-8.69384e-08
1.1494e-05
-2.23054e-07
1.15097e-05
-2.95441e-08
1.15173e-05
4.67723e-09
1.15037e-05
-2.03842e-07
1.14946e-05
-1.64397e-07
1.14892e-05
-9.13876e-08
1.14859e-05
-1.48085e-08
1.14836e-05
2.28791e-08
1.14786e-05
9.75968e-09
1.14821e-05
4.87264e-08
1.14873e-05
9.73116e-08
1.1485e-05
1.04302e-07
1.14825e-05
8.8144e-08
1.14868e-05
9.74088e-08
1.14941e-05
1.24356e-07
1.14965e-05
1.30318e-07
1.14964e-05
1.17954e-07
1.14996e-05
1.0679e-07
1.09702e-07
1.15062e-05
1.2058e-05
-7.91343e-08
1.2045e-05
-2.10038e-07
1.20603e-05
-4.48519e-08
1.20667e-05
-1.73049e-09
1.20522e-05
-1.89348e-07
1.2044e-05
-1.5619e-07
1.20404e-05
-8.77388e-08
1.20367e-05
-1.1158e-08
1.20338e-05
2.58404e-08
1.20282e-05
1.5357e-08
1.20303e-05
4.65979e-08
1.2036e-05
9.15763e-08
1.20354e-05
1.04926e-07
1.20327e-05
9.08183e-08
1.20356e-05
9.45421e-08
1.2043e-05
1.16929e-07
1.20473e-05
1.26076e-07
1.2048e-05
1.17202e-07
1.20501e-05
1.04663e-07
1.04036e-07
1.20558e-05
1.26358e-05
-7.23631e-08
1.26223e-05
-1.96495e-07
1.26369e-05
-5.94436e-08
1.26429e-05
-7.78375e-09
1.26276e-05
-1.74046e-07
1.2619e-05
-1.47617e-07
1.26173e-05
-8.59725e-08
1.26143e-05
-8.16504e-09
1.26106e-05
2.9509e-08
1.26046e-05
2.13477e-08
1.26056e-05
4.56239e-08
1.26113e-05
8.58763e-08
1.2612e-05
1.04224e-07
1.26097e-05
9.31004e-08
1.26116e-05
9.26612e-08
1.26185e-05
1.10001e-07
1.26239e-05
1.20731e-07
1.26256e-05
1.15448e-07
1.26272e-05
1.03081e-07
9.9241e-08
1.2632e-05
1.32412e-05
-6.66301e-08
1.32272e-05
-1.82516e-07
1.32406e-05
-7.28027e-08
1.32468e-05
-1.40137e-08
1.32312e-05
-1.58463e-07
1.32215e-05
-1.37877e-07
1.3221e-05
-8.5502e-08
1.32195e-05
-6.6812e-09
1.32156e-05
3.34779e-08
1.32092e-05
2.77078e-08
1.32089e-05
4.59313e-08
1.32142e-05
8.06044e-08
1.32162e-05
1.02216e-07
1.32148e-05
9.45124e-08
1.32159e-05
9.15664e-08
1.32218e-05
1.04051e-07
1.32278e-05
1.14775e-07
1.32307e-05
1.12536e-07
1.32321e-05
1.0161e-07
9.50824e-08
1.32363e-05
1.38754e-05
-6.1871e-08
1.38611e-05
-1.68256e-07
1.38728e-05
-8.44678e-08
1.38795e-05
-2.07325e-08
1.38644e-05
-1.43295e-07
1.38531e-05
-1.26583e-07
1.38528e-05
-8.52487e-08
1.38532e-05
-7.09961e-09
1.38498e-05
3.6959e-08
1.38431e-05
3.43875e-08
1.38417e-05
4.73374e-08
1.38462e-05
7.60497e-08
1.38492e-05
9.92179e-08
1.38487e-05
9.50312e-08
1.38493e-05
9.09177e-08
1.38544e-05
9.9017e-08
1.38605e-05
1.08685e-07
1.38645e-05
1.08515e-07
1.38662e-05
9.98903e-08
9.16657e-08
1.38696e-05
1.45398e-05
-5.79597e-08
1.45255e-05
-1.54028e-07
1.45351e-05
-9.39939e-08
1.45422e-05
-2.78893e-08
1.4528e-05
-1.29127e-07
1.45155e-05
-1.14088e-07
1.45141e-05
-8.37948e-08
1.45163e-05
-9.33175e-09
1.45143e-05
3.90221e-08
1.45076e-05
4.10535e-08
1.45052e-05
4.97429e-08
1.45088e-05
7.24604e-08
1.45124e-05
9.55934e-08
1.45129e-05
9.45676e-08
1.45135e-05
9.02474e-08
1.45179e-05
9.47019e-08
1.45235e-05
1.03026e-07
1.45282e-05
1.0383e-07
1.45305e-05
9.75712e-08
8.8819e-08
1.45334e-05
1.52356e-05
-5.47261e-08
1.52218e-05
-1.40222e-07
1.52288e-05
-1.00982e-07
1.52361e-05
-3.52075e-08
1.52234e-05
-1.16424e-07
1.52104e-05
-1.01012e-07
1.52067e-05
-8.01176e-08
1.52099e-05
-1.25756e-08
1.52099e-05
3.9096e-08
1.5204e-05
4.68684e-08
1.52009e-05
5.29207e-08
1.52035e-05
6.98262e-08
1.52074e-05
9.16631e-08
1.52088e-05
9.32109e-08
1.52095e-05
8.95276e-08
1.52132e-05
9.10507e-08
1.52184e-05
9.7745e-08
1.52235e-05
9.87606e-08
1.52267e-05
9.44076e-08
8.63941e-08
1.52291e-05
1.59646e-05
-5.1987e-08
1.59516e-05
-1.27196e-07
1.59558e-05
-1.05228e-07
1.59627e-05
-4.21418e-08
1.59517e-05
-1.05416e-07
1.59388e-05
-8.80689e-08
1.59329e-05
-7.41967e-08
1.59355e-05
-1.51738e-08
1.59377e-05
3.68741e-08
1.59336e-05
5.09808e-08
1.59302e-05
5.62583e-08
1.59318e-05
6.82396e-08
1.59357e-05
8.77967e-08
1.59378e-05
9.11486e-08
1.59388e-05
8.85337e-08
1.59421e-05
8.77444e-08
1.59471e-05
9.27433e-08
1.59521e-05
9.37645e-08
1.59558e-05
9.06742e-08
8.40038e-08
1.59582e-05
1.67282e-05
-4.95682e-08
1.67162e-05
-1.15223e-07
1.67177e-05
-1.067e-07
1.67237e-05
-4.81528e-08
1.67144e-05
-9.61594e-08
1.67022e-05
-7.58544e-08
1.66947e-05
-6.66886e-08
1.66956e-05
-1.60689e-08
1.66994e-05
3.31084e-08
1.66973e-05
5.30479e-08
1.66946e-05
5.89828e-08
1.66954e-05
6.74672e-08
1.66989e-05
8.42157e-08
1.67017e-05
8.8433e-08
1.67031e-05
8.7094e-08
1.6706e-05
8.48406e-08
1.67105e-05
8.82157e-08
1.67153e-05
8.89909e-08
1.67194e-05
8.6617e-08
8.11655e-08
1.67222e-05
1.75281e-05
-4.73193e-08
1.75173e-05
-1.04381e-07
1.75163e-05
-1.05692e-07
1.75208e-05
-5.27424e-08
1.75133e-05
-8.85942e-08
1.75022e-05
-6.4781e-08
1.7494e-05
-5.84621e-08
1.7493e-05
-1.50631e-08
1.74969e-05
2.91789e-08
1.74969e-05
5.30221e-08
1.74952e-05
6.06663e-08
1.74958e-05
6.69611e-08
1.74989e-05
8.11014e-08
1.75019e-05
8.53822e-08
1.75038e-05
8.52007e-08
1.75065e-05
8.21872e-08
1.75106e-05
8.40996e-08
1.75152e-05
8.43252e-08
1.75195e-05
8.2394e-08
7.79113e-08
1.75227e-05
1.83662e-05
-4.51332e-08
1.83564e-05
-9.45728e-08
1.83535e-05
-1.02795e-07
1.83563e-05
-5.55929e-08
1.83501e-05
-8.24227e-08
1.83404e-05
-5.5056e-08
1.83321e-05
-5.01389e-08
1.83297e-05
-1.26939e-08
1.83329e-05
2.60147e-08
1.83344e-05
5.15442e-08
1.83337e-05
6.12821e-08
1.83344e-05
6.62982e-08
1.83372e-05
7.82677e-08
1.83404e-05
8.22538e-08
1.83427e-05
8.28734e-08
1.83454e-05
7.94411e-08
1.83492e-05
8.03334e-08
1.83536e-05
7.99738e-08
1.83577e-05
7.8241e-08
7.44828e-08
1.83611e-05
1.92442e-05
-4.29472e-08
1.92353e-05
-8.5703e-08
1.9231e-05
-9.85012e-08
1.92321e-05
-5.66871e-08
1.92269e-05
-7.71882e-08
1.92187e-05
-4.68345e-08
1.92107e-05