/*--------------------------------*- C++ -*----------------------------------*\
| =========                 |                                                 |
| \\      /  F ield         | OpenFOAM: The Open Source CFD Toolbox           |
|  \\    /   O peration     | Version:  v1912                                 |
|   \\  /    A nd           | Website:  www.openfoam.com                      |
|    \\/     M anipulation  |                                                 |
\*---------------------------------------------------------------------------*/
FoamFile
{
    version     2.0;
    format      ascii;
    class       volScalarField;
    location    "8";
    object      p;
}
// * * * * * * * * * * * * * * * * * * * * * * * * * * * * * * * * * * * * * //

dimensions      [0 2 -2 0 0 0 0];


internalField   nonuniform List<scalar> 
9600
(
8.54262e-10
0.00415102
0.0106006
0.00670526
0.00102977
0.00799303
0.012387
0.014685
0.0176347
0.0177685
0.0151778
0.0208175
0.0208775
0.0208304
0.0213802
0.0230511
0.0224892
0.0260188
0.028354
0.0342749
5.43276e-06
0.00415474
0.0106024
0.00672494
0.00104471
0.00797874
0.0123856
0.0146969
0.0176419
0.0177709
0.015178
0.0207108
0.0208495
0.0208439
0.0214075
0.0230538
0.0226009
0.0259978
0.0284442
0.0335975
1.15442e-05
0.00418417
0.0106161
0.00674242
0.00107012
0.00796522
0.0123885
0.0147279
0.0176527
0.0177676
0.0151728
0.0205879
0.0208304
0.0208708
0.0214241
0.0230618
0.0226675
0.0259658
0.0284446
0.0329746
2.17795e-05
0.00424959
0.010625
0.006765
0.00112347
0.00798162
0.0123911
0.014776
0.0176671
0.0177594
0.0151777
0.0204477
0.0208131
0.0208935
0.0214392
0.0230613
0.0227428
0.0259208
0.0284529
0.0323956
4.1021e-05
0.00434149
0.0106171
0.00678978
0.0012108
0.00802816
0.0123882
0.0148374
0.0176842
0.0177481
0.0152005
0.0202976
0.0207916
0.0209135
0.0214529
0.0230557
0.0228189
0.0258678
0.0284303
0.0318455
7.18837e-05
0.00444578
0.0105831
0.00681756
0.00132872
0.00809365
0.012379
0.0149065
0.0177026
0.0177358
0.0152431
0.0201499
0.0207693
0.0209343
0.0214662
0.0230462
0.022896
0.0258054
0.0283894
0.0313236
0.000115164
0.00455333
0.0105218
0.00684789
0.00146537
0.00817006
0.0123661
0.0149781
0.0177213
0.0177228
0.0153042
0.0200146
0.02075
0.0209569
0.021488
0.0230329
0.0229728
0.0257365
0.0283275
0.0308294
0.000170302
0.00466001
0.010439
0.00688123
0.00160902
0.00825218
0.0123512
0.0150475
0.0177391
0.0177085
0.0153815
0.0198953
0.0207349
0.0209809
0.0215147
0.0230161
0.0230476
0.0256633
0.0282421
0.0303658
0.000235784
0.00476558
0.0103433
0.00691855
0.00175445
0.00833555
0.0123336
0.0151112
0.0177542
0.0176923
0.015472
0.0197912
0.0207231
0.0210048
0.0215445
0.0229963
0.0231181
0.0255872
0.0281356
0.029936
0.00030984
0.00487177
0.0102424
0.00696053
0.00190431
0.00841725
0.0123111
0.015166
0.0177641
0.0176736
0.0155727
0.0196989
0.0207131
0.0210263
0.0215752
0.022974
0.0231816
0.0255092
0.0280113
0.0295386
0.000391005
0.00498047
0.0101409
0.00700659
0.00206576
0.0084967
0.0122817
0.0152098
0.0177668
0.017652
0.0156808
0.0196152
0.0207032
0.021043
0.0216049
0.0229499
0.0232358
0.0254302
0.0278716
0.0291687
0.000478361
0.0050926
0.0100409
0.00705526
0.00224655
0.00857503
0.012245
0.0152414
0.0177613
0.0176274
0.0157941
0.0195383
0.020693
0.0210534
0.021631
0.0229245
0.0232791
0.0253501
0.0277187
0.0288216
0.000571465
0.00520778
0.00994255
0.0071051
0.00245167
0.00865416
0.0122026
0.015261
0.0177479
0.0175998
0.0159106
0.0194678
0.020683
0.0210576
0.0216517
0.0228984
0.0233108
0.0252683
0.0275553
0.0284937
0.000670108
0.00532501
0.00984549
0.00715532
0.00268216
0.00873564
0.0121572
0.0152697
0.0177283
0.0175696
0.0160282
0.019404
0.0206739
0.0210569
0.0216663
0.0228722
0.0233311
0.0251823
0.0273837
0.0281818
0.000774113
0.00544342
0.00974959
0.00720586
0.0029354
0.00881999
0.0121112
0.0152689
0.0177046
0.0175372
0.0161452
0.019346
0.0206656
0.0210536
0.0216749
0.0228459
0.0233409
0.0250907
0.0272054
0.0278828
0.000883283
0.00556257
0.0096552
0.00725703
0.00320657
0.00890702
0.0120671
0.0152601
0.0176793
0.0175033
0.0162596
0.0192931
0.0206572
0.0210495
0.0216782
0.022819
0.0233418
0.0249922
0.0270205
0.027595
0.000997461
0.00568231
0.00956293
0.00730914
0.00349058
0.00899637
0.0120264
0.0152446
0.0176545
0.0174687
0.0163703
0.0192445
0.0206476
0.021046
0.0216767
0.0227906
0.0233354
0.0248864
0.0268288
0.0273174
0.00111655
0.00580255
0.0094735
0.00736232
0.00378334
0.00908784
0.0119901
0.0152236
0.0176317
0.0174342
0.016476
0.0192003
0.0206359
0.0210435
0.0216708
0.0227595
0.0233227
0.0247731
0.0266304
0.02705
0.00124052
0.00592314
0.00938772
0.0074166
0.00408192
0.00918137
0.0119589
0.0151978
0.0176117
0.0174004
0.016576
0.0191604
0.0206216
0.0210419
0.0216612
0.0227245
0.0233038
0.0246531
0.0264253
0.0267927
0.00136936
0.0060439
0.00930642
0.00747202
0.00438434
0.00927695
0.0119334
0.0151678
0.0175949
0.0173682
0.0166694
0.0191255
0.0206045
0.0210408
0.0216485
0.0226848
0.0232788
0.0245276
0.0262134
0.0265453
0.00150314
0.00616465
0.00923043
0.00752864
0.00468917
0.00937443
0.0119139
0.015134
0.0175812
0.0173383
0.0167555
0.0190955
0.0205844
0.0210395
0.0216332
0.0226399
0.0232476
0.024398
0.0259943
0.0263072
0.00164195
0.00628516
0.00916053
0.00758657
0.00499535
0.00947355
0.0119007
0.0150967
0.0175705
0.0173115
0.0168337
0.0190704
0.0205618
0.0210374
0.0216154
0.0225891
0.0232103
0.0242664
0.0257678
0.026077
0.00178593
0.00640513
0.00909752
0.00764597
0.00530192
0.00957388
0.0118938
0.0150564
0.017562
0.0172884
0.0169032
0.0190499
0.020537
0.0210338
0.0215954
0.0225318
0.0231661
0.0241352
0.025535
0.0258513
0.00193529
0.00652426
0.00904208
0.00770707
0.00560806
0.00967499
0.0118931
0.0150136
0.0175553
0.0172697
0.0169637
0.0190335
0.0205106
0.0210281
0.0215736
0.0224679
0.0231138
0.0240065
0.0252988
0.0256256
0.00209027
0.00664221
0.00899484
0.00777014
0.00591312
0.00977653
0.0118985
0.014969
0.0175496
0.0172559
0.0170149
0.0190203
0.0204831
0.0210194
0.0215504
0.0223978
0.0230522
0.0238811
0.0250631
0.0253961
0.00225116
0.00675868
0.00895638
0.00783542
0.00621631
0.00987844
0.0119098
0.014923
0.0175442
0.0172475
0.0170566
0.0190096
0.0204551
0.0210067
0.0215257
0.0223226
0.0229805
0.0237588
0.0248321
0.0251619
0.00241825
0.0068734
0.00892725
0.00790339
0.00651685
0.00998069
0.0119268
0.0148766
0.0175385
0.017245
0.0170888
0.0190002
0.0204279
0.0209889
0.0214992
0.0222435
0.0228979
0.0236378
0.0246094
0.0249261
0.00259189
0.00698614
0.00890791
0.00797463
0.006814
0.0100831
0.0119491
0.0148311
0.0175318
0.0172488
0.0171117
0.0189907
0.0204023
0.0209654
0.0214701
0.0221625
0.0228047
0.0235153
0.0243971
0.0246945
0.00277245
0.00709665
0.0088987
0.00804979
0.007107
0.0101866
0.0119764
0.0147855
0.0175234
0.0172592
0.017126
0.0189794
0.0203735
0.0209361
0.0214366
0.0220817
0.0227027
0.0233883
0.0241938
0.0244722
0.00296033
0.00720466
0.00889978
0.00812963
0.00739505
0.0102916
0.0120086
0.0147409
0.0175124
0.0172764
0.0171324
0.0189645
0.020356
0.0209012
0.0213968
0.0220025
0.0225951
0.0232551
0.023996
0.0242614
0.00315588
0.00730987
0.00891117
0.00821491
0.00767749
0.0103982
0.0120455
0.014698
0.0174983
0.0173003
0.0171319
0.0189439
0.0203438
0.0208625
0.0213483
0.021925
0.022485
0.0231169
0.0238007
0.0240598
0.00335942
0.00741207
0.00893274
0.00830622
0.00795372
0.0105069
0.0120869
0.0146572
0.0174805
0.0173311
0.0171262
0.0189151
0.0203364
0.0208222
0.0212897
0.0218483
0.0223748
0.0229751
0.0236068
0.0238632
0.00357121
0.00751114
0.00896421
0.0084042
0.00822311
0.0106184
0.0121326
0.0146191
0.0174584
0.0173683
0.0171171
0.0188762
0.0203325
0.0207833
0.0212197
0.0217709
0.0222677
0.0228311
0.0234146
0.0236684
0.00379145
0.00760701
0.00900507
0.00850963
0.00848527
0.0107325
0.0121832
0.0145843
0.017432
0.017411
0.0171064
0.0188258
0.0203305
0.0207487
0.0211376
0.0216899
0.0221677
0.0226873
0.0232235
0.0234743
0.00402025
0.00769984
0.00905463
0.00862313
0.00874019
0.0108493
0.0122385
0.0145535
0.0174012
0.0174588
0.0170961
0.0187624
0.0203277
0.0207217
0.0210446
0.0216005
0.022077
0.0225492
0.0230327
0.0232798
0.00425764
0.00779005
0.00911217
0.00874512
0.00898801
0.0109685
0.0122984
0.0145271
0.0173659
0.0175109
0.0170887
0.0186855
0.0203204
0.0207054
0.0209443
0.0214975
0.0219942
0.0224235
0.0228432
0.0230817
0.00450362
0.00787823
0.00917676
0.00887598
0.0092291
0.01109
0.0123627
0.0145059
0.0173262
0.017566
0.0170864
0.0185954
0.0203045
0.0207015
0.020841
0.0213757
0.0219147
0.0223188
0.0226627
0.0228768
0.00475815
0.00796529
0.00924735
0.00901571
0.0094642
0.0112137
0.0124314
0.0144901
0.0172822
0.0176231
0.0170916
0.0184931
0.0202752
0.0207106
0.0207409
0.0212319
0.02183
0.0222392
0.022503
0.0226671
0.00502105
0.00805222
0.00932324
0.00916419
0.00969365
0.0113399
0.0125042
0.0144797
0.0172347
0.0176809
0.0171061
0.0183806
0.0202278
0.0207301
0.0206519
0.0210687
0.0217306
0.0221797
0.0223763
0.0224641
0.00529221
0.00814016
0.00940321
0.00932139
0.00991847
0.0114682
0.0125814
0.0144747
0.0171833
0.0177385
0.017132
0.0182604
0.0201579
0.0207572
0.020579
0.0208898
0.0216105
0.0221341
0.0222912
0.0222846
0.00557123
0.0082308
0.00948642
0.0094862
0.0101398
0.0115985
0.0126624
0.0144763
0.0171286
0.0177933
0.0171713
0.0181369
0.0200614
0.0207861
0.0205289
0.0207007
0.0214622
0.0220957
0.0222523
0.0221504
0.00585767
0.00832552
0.00957244
0.00965786
0.010358
0.0117314
0.0127473
0.0144837
0.0170722
0.0178438
0.0172229
0.0180151
0.0199383
0.020804
0.0205021
0.0205083
0.0212776
0.0220487
0.022264
0.0220968
0.00615114
0.00842582
0.00966038
0.00983578
0.0105743
0.0118663
0.0128369
0.0144967
0.0170137
0.0178899
0.0172874
0.0178987
0.0197904
0.0208091
0.0204943
0.0203148
0.0210427
0.021959
0.0223015
0.0221422
0.00645081
0.00853379
0.00974993
0.0100183
0.0107894
0.0120034
0.01293
0.0145166
0.016955
0.0179281
0.017364
0.0177941
0.0196213
0.0207952
0.0205215
0.0201769
0.0208054
0.0218362
0.0223196
0.0221597
0.00675598
0.00865069
0.00984102
0.0102043
0.0110045
0.0121424
0.0130269
0.0145432
0.0168972
0.0179588
0.0174482
0.017706
0.0194402
0.0207589
0.0205827
0.0200924
0.0205665
0.0216621
0.022263
0.0221308
0.00706574
0.00877817
0.00993445
0.0103923
0.0112192
0.0122838
0.0131278
0.0145761
0.0168417
0.0179815
0.0175382
0.0176384
0.0192519
0.0206976
0.0206703
0.0200802
0.02037
0.0214574
0.022169
0.0220531
0.00737897
0.00891771
0.0100307
0.0105805
0.0114348
0.0124286
0.0132307
0.0146157
0.0167905
0.0179939
0.0176331
0.0175959
0.0190624
0.0205974
0.0206938
0.0200158
0.0201125
0.0211675
0.0220399
0.0221137
0.00769451
0.00907043
0.0101312
0.0107671
0.0116516
0.0125765
0.0133362
0.0146617
0.0167444
0.0179997
0.0177271
0.0175734
0.0188834
0.0204736
0.0207533
0.0200907
0.0199669
0.020874
0.0218546
0.0220131
0.0080112
0.00923713
0.0102379
0.0109501
0.0118687
0.01273
0.013443
0.0147116
0.0167071
0.0179979
0.0178171
0.0175768
0.0187148
0.0203136
0.0207574
0.0201312
0.0198263
0.0205495
0.0215991
0.0219428
0.00832795
0.00941851
0.0103524
0.0111276
0.0120859
0.0128901
0.0135503
0.0147653
0.0166786
0.0179907
0.0179024
0.0175986
0.0185533
0.0201276
0.0207247
0.0201746
0.0197481
0.0202698
0.0213108
0.0218708
0.00864386
0.00961454
0.0104768
0.0112991
0.0123014
0.0130572
0.0136598
0.0148208
0.0166579
0.0179811
0.017978
0.0176353
0.0184093
0.01992
0.0206588
0.0202223
0.0197168
0.0200418
0.0210049
0.0217368
0.00895825
0.00982477
0.0106131
0.0114641
0.0125127
0.0132334
0.0137726
0.0148739
0.016644
0.0179721
0.0180449
0.0176841
0.0182841
0.0197014
0.0205629
0.0202656
0.0197178
0.0198689
0.0207085
0.0215383
0.00927069
0.0100483
0.0107628
0.0116232
0.0127174
0.0134182
0.0138905
0.0149237
0.0166333
0.0179667
0.0181054
0.0177365
0.0181823
0.0194879
0.0204342
0.020291
0.019743
0.0197487
0.0204424
0.021299
0.00958084
0.0102835
0.0109275
0.0117783
0.0129123
0.0136095
0.0140175
0.0149699
0.01662
0.0179638
0.0181639
0.0177969
0.0181057
0.0192785
0.0202748
0.0203045
0.0197923
0.0196759
0.0202155
0.0210464
0.00988833
0.0105293
0.0111083
0.0119313
0.0130946
0.0138055
0.0141569
0.0150135
0.0165987
0.0179617
0.0182266
0.0178648
0.0180496
0.0190839
0.0201484
0.0203024
0.0198489
0.0196378
0.0200299
0.0208048
0.0101929
0.0107836
0.011306
0.0120848
0.0132627
0.0140025
0.0143113
0.015058
0.0165652
0.0179546
0.0182939
0.0179419
0.0180179
0.0189061
0.0199549
0.0202653
0.0199057
0.0196358
0.0198905
0.0205874
0.0104948
0.0110439
0.0115204
0.0122424
0.0134153
0.014196
0.014483
0.0151098
0.016518
0.0179336
0.018365
0.0180333
0.0180111
0.01875
0.019755
0.0201975
0.0199609
0.0196694
0.0197962
0.0203887
0.0107944
0.0113079
0.0117497
0.012408
0.0135538
0.0143792
0.0146706
0.0151796
0.0164599
0.0178876
0.0184338
0.018142
0.0180303
0.0186218
0.019559
0.0200991
0.0199946
0.0197227
0.01975
0.0202173
0.0110918
0.0115742
0.0119916
0.0125837
0.0136812
0.0145458
0.014869
0.0152782
0.0164019
0.0178101
0.0184862
0.0182679
0.0180801
0.0185251
0.0193736
0.0199759
0.0200001
0.019782
0.0197529
0.0200935
0.0113873
0.011841
0.0122431
0.0127706
0.0138016
0.0146949
0.0150687
0.0154069
0.0163633
0.0177042
0.0185029
0.0184019
0.0181642
0.0184651
0.0192049
0.0198364
0.0199795
0.0198288
0.0197853
0.0200282
0.0116811
0.0121068
0.0125002
0.0129697
0.0139202
0.0148274
0.0152597
0.0155603
0.0163588
0.0175868
0.0184755
0.0185247
0.0182792
0.0184472
0.0190616
0.0196912
0.0199381
0.0198591
0.0198241
0.0200134
0.0119732
0.0123708
0.0127584
0.0131806
0.0140424
0.0149455
0.015437
0.0157269
0.0163916
0.0174816
0.0184078
0.0186161
0.0184114
0.018472
0.0189551
0.0195447
0.0198765
0.019879
0.019857
0.0200265
0.0122635
0.0126323
0.0130141
0.0134016
0.0141727
0.0150526
0.015598
0.0158959
0.0164581
0.0174048
0.0183166
0.018667
0.0185432
0.0185315
0.0188923
0.0194117
0.0197955
0.0198883
0.0198858
0.020043
0.012551
0.0128908
0.0132645
0.0136297
0.0143144
0.0151534
0.0157418
0.0160604
0.0165504
0.0173639
0.0182222
0.0186771
0.0186599
0.0186139
0.0188709
0.0193083
0.0196993
0.0198791
0.0199143
0.0200576
0.0128348
0.0131464
0.0135088
0.013861
0.0144684
0.0152526
0.0158692
0.0162167
0.0166585
0.0173576
0.0181418
0.0186551
0.0187496
0.0187088
0.018882
0.0192403
0.0196024
0.0198469
0.0199413
0.0200782
0.0131137
0.0133987
0.0137464
0.0140911
0.0146338
0.0153546
0.0159821
0.016362
0.0167754
0.0173807
0.0180854
0.0186186
0.0188079
0.0188037
0.0189186
0.0192071
0.0195321
0.0198006
0.0199569
0.020106
0.0133865
0.0136474
0.013977
0.0143163
0.0148083
0.0154631
0.0160842
0.0164942
0.016896
0.0174276
0.018055
0.0185824
0.0188395
0.0188862
0.018973
0.0192037
0.0194879
0.0197498
0.0199522
0.0201335
0.0136517
0.0138914
0.0142008
0.0145342
0.014988
0.0155791
0.0161805
0.0166144
0.0170151
0.0174919
0.0180499
0.0185546
0.0188559
0.0189534
0.019034
0.0192228
0.0194696
0.0197106
0.0199351
0.0201519
0.0139081
0.0141295
0.0144174
0.0147435
0.0151698
0.0157028
0.0162736
0.0167236
0.0171299
0.017568
0.0180681
0.0185397
0.0188654
0.0190087
0.0190959
0.019257
0.0194741
0.019694
0.0199174
0.0201599
0.0141541
0.0143602
0.0146266
0.0149425
0.0153494
0.0158336
0.0163671
0.0168228
0.0172376
0.0176516
0.0181073
0.0185424
0.0188717
0.0190529
0.0191581
0.0193016
0.0194961
0.0196985
0.0199122
0.0201635
0.014388
0.014582
0.014828
0.0151316
0.0155232
0.0159675
0.0164641
0.0169165
0.0173361
0.0177363
0.0181622
0.018565
0.018887
0.0190921
0.0192202
0.0193535
0.0195268
0.0197178
0.019919
0.0201686
0.0146084
0.0147926
0.0150199
0.0153096
0.0156895
0.0161019
0.0165622
0.017008
0.01743
0.0178195
0.0182225
0.0185978
0.0189114
0.0191342
0.0192886
0.0194253
0.0195782
0.0197568
0.0199464
0.0201884
0.0148128
0.0149909
0.0152018
0.0154755
0.0158455
0.0162352
0.0166614
0.0170926
0.0175182
0.0179073
0.0182961
0.0186439
0.0189419
0.0191666
0.0193341
0.0194887
0.0196426
0.019826
0.020044
0.0202877
0.0149994
0.0151736
0.015372
0.0156299
0.0159889
0.0163628
0.0167643
0.0171727
0.0175888
0.0179854
0.018379
0.0187209
0.0190233
0.0192592
0.0194241
0.019562
0.01968
0.0198064
0.0199598
0.0201739
0.0151653
0.0153375
0.0155282
0.015773
0.0161209
0.016481
0.0168666
0.0172583
0.0176487
0.0180268
0.0184098
0.0187345
0.0190421
0.01932
0.019535
0.0197354
0.0199103
0.0200675
0.0202317
0.0204462
0.0153086
0.0154797
0.0156659
0.0159017
0.0162427
0.0165911
0.0169597
0.0173463
0.0177554
0.0181545
0.0185656
0.0188975
0.0191728
0.0194203
0.0195797
0.0197063
0.0198377
0.0199576
0.0200832
0.020246
0.0154269
0.0155936
0.0157775
0.0160133
0.016352
0.0166931
0.0170256
0.0173282
0.0176477
0.0179945
0.0184219
0.0188591
0.0192586
0.019645
0.0199708
0.020257
0.0205616
0.0208881
0.0212141
0.0214901
0.0155136
0.0156936
0.0158869
0.016128
0.0164691
0.0168161
0.0171801
0.0175397
0.0179298
0.0183173
0.0187124
0.0190542
0.0193047
0.0195326
0.0197087
0.0198188
0.019931
0.0200423
0.0201483
0.0202698
0.0155217
0.0156873
0.0159367
0.0162324
0.0165903
0.0169287
0.0172591
0.0175581
0.0178987
0.0182484
0.0186001
0.0189702
0.0192934
0.0196133
0.0199889
0.0203501
0.0206892
0.0210246
0.0213539
0.0216031
0.015584
0.0157667
0.0160246
0.0163313
0.0166992
0.0170387
0.0173865
0.0177064
0.018065
0.0184438
0.0187813
0.0191024
0.0193869
0.019613
0.0198491
0.0200816
0.0203239
0.0205798
0.020843
0.0210662
0.0378935
0.0319354
0.0233343
0.0165393
0.0147271
0.0162677
0.0180643
0.0190741
0.0195959
0.0200691
0.020508
0.0208944
0.0213892
0.0219132
0.0222724
0.0225041
0.0227619
0.0231039
0.0234411
0.0237731
0.024236
0.0247938
0.0252464
0.0255847
0.0259668
0.0264592
0.0269743
0.0273849
0.0277736
0.0282641
0.0287741
0.0292462
0.0297442
0.0302651
0.0307315
0.0312113
0.0317848
0.0323579
0.0328676
0.0334042
0.0340391
0.0346891
0.0353006
0.03589
0.036419
0.0369334
0.0375037
0.0380684
0.0386078
0.0392164
0.0399071
0.0405894
0.041249
0.041986
0.0427584
0.0435107
0.0443814
0.0452435
0.045671
0.0458576
0.0464067
0.0474989
0.0486817
0.0495832
0.0504112
0.051237
0.0520625
0.0529616
0.0538879
0.0546995
0.0555753
0.0565256
0.0574607
0.0584072
0.0593898
0.0604224
0.0614899
0.0625761
0.0636432
0.0647715
0.0659065
0.0670814
0.0682258
0.0693965
0.0706215
0.0718652
0.073172
0.0744738
0.0757764
0.0770929
0.0784147
0.0798207
0.0812079
0.0826405
0.0840635
0.0854973
0.0868815
0.0881861
0.0894417
0.0905453
0.0369783
0.0317389
0.0234062
0.0166996
0.0148333
0.0163186
0.0180945
0.0190944
0.0196108
0.0200813
0.0205182
0.0209027
0.0213963
0.0219197
0.0222782
0.022509
0.0227661
0.0231077
0.0234445
0.0237759
0.0242384
0.0247963
0.0252488
0.0255868
0.0259685
0.0264607
0.0269759
0.0273863
0.0277747
0.0282652
0.0287751
0.0292472
0.0297451
0.030266
0.0307324
0.031212
0.0317856
0.0323587
0.0328684
0.0334049
0.0340398
0.0346898
0.0353013
0.0358907
0.0364197
0.036934
0.0375043
0.038069
0.0386084
0.0392169
0.0399077
0.0405899
0.0412495
0.0419864
0.0427588
0.0435111
0.0443817
0.0452441
0.0456717
0.045858
0.0464068
0.0474991
0.0486821
0.0495835
0.0504115
0.0512373
0.0520627
0.0529618
0.0538882
0.0546997
0.0555755
0.0565258
0.0574609
0.0584074
0.05939
0.0604226
0.06149
0.0625762
0.0636434
0.0647716
0.0659067
0.0670816
0.0682259
0.0693966
0.0706216
0.0718653
0.0731721
0.0744739
0.0757765
0.0770931
0.0784148
0.0798208
0.081208
0.0826406
0.0840636
0.0854974
0.0868816
0.0881862
0.0894416
0.0905453
0.0361749
0.0315459
0.02357
0.0170012
0.0150168
0.0163859
0.0181234
0.0191142
0.0196266
0.0200943
0.0205291
0.0209118
0.0214041
0.0219267
0.0222841
0.0225137
0.02277
0.0231112
0.0234476
0.0237784
0.0242406
0.0247986
0.025251
0.0255886
0.02597
0.0264622
0.0269773
0.0273876
0.0277757
0.0282661
0.028776
0.029248
0.0297458
0.0302668
0.0307331
0.0312126
0.0317862
0.0323595
0.032869
0.0334054
0.0340404
0.0346904
0.0353019
0.0358913
0.0364203
0.0369345
0.0375048
0.0380695
0.0386089
0.0392173
0.0399081
0.0405904
0.0412499
0.0419868
0.0427592
0.0435114
0.044382
0.0452447
0.0456723
0.0458581
0.0464067
0.0474992
0.0486825
0.0495838
0.0504117
0.0512375
0.0520629
0.0529619
0.0538884
0.0546999
0.0555756
0.0565259
0.057461
0.0584075
0.0593901
0.0604227
0.0614901
0.0625764
0.0636435
0.0647717
0.0659068
0.0670817
0.068226
0.0693967
0.0706217
0.0718654
0.0731722
0.074474
0.0757766
0.0770931
0.0784149
0.0798209
0.081208
0.0826407
0.0840636
0.0854975
0.0868817
0.0881863
0.0894417
0.0905453
0.0353967
0.0313318
0.0237673
0.0173738
0.0152691
0.0164856
0.0181682
0.0191449
0.0196517
0.0201143
0.0205444
0.0209237
0.0214138
0.0219349
0.0222917
0.022521
0.0227763
0.0231164
0.0234522
0.0237823
0.0242437
0.0248012
0.0252535
0.0255911
0.0259724
0.0264642
0.0269791
0.0273892
0.027777
0.0282674
0.0287772
0.0292489
0.0297466
0.0302677
0.0307339
0.0312132
0.0317868
0.0323601
0.0328696
0.0334059
0.034041
0.034691
0.0353025
0.035892
0.036421
0.0369351
0.0375053
0.03807
0.0386093
0.0392177
0.0399085
0.0405908
0.0412503
0.0419872
0.0427596
0.0435116
0.0443823
0.0452455
0.0456731
0.0458581
0.0464064
0.0474993
0.048683
0.0495842
0.050412
0.0512377
0.0520631
0.0529621
0.0538886
0.0547001
0.0555757
0.0565261
0.0574612
0.0584077
0.0593902
0.0604228
0.0614903
0.0625765
0.0636436
0.0647718
0.0659069
0.0670818
0.0682261
0.0693968
0.0706218
0.0718655
0.0731723
0.0744741
0.0757767
0.0770932
0.078415
0.079821
0.0812081
0.0826407
0.0840637
0.0854976
0.0868818
0.0881864
0.0894419
0.0905454
0.0346075
0.0310777
0.0239663
0.0177704
0.0155521
0.0166024
0.0182208
0.0191833
0.019686
0.0201423
0.0205654
0.0209399
0.0214262
0.0219442
0.0223005
0.0225307
0.0227858
0.0231245
0.0234596
0.0237891
0.0242486
0.0248042
0.0252563
0.0255948
0.0259763
0.0264674
0.0269815
0.0273914
0.0277792
0.0282694
0.0287788
0.0292502
0.0297478
0.0302687
0.0307348
0.0312139
0.0317874
0.0323607
0.0328702
0.0334065
0.0340417
0.0346917
0.035303
0.0358927
0.0364218
0.0369357
0.0375058
0.0380706
0.0386098
0.0392181
0.039909
0.0405913
0.0412507
0.0419876
0.0427601
0.0435118
0.0443827
0.0452465
0.045674
0.0458581
0.0464059
0.0474994
0.0486836
0.0495847
0.0504122
0.051238
0.0520633
0.0529623
0.0538889
0.0547003
0.0555758
0.0565263
0.0574614
0.0584078
0.0593903
0.060423
0.0614904
0.0625767
0.0636437
0.064772
0.065907
0.0670819
0.0682263
0.0693969
0.0706219
0.0718656
0.0731724
0.0744742
0.0757768
0.0770933
0.078415
0.0798211
0.0812082
0.0826408
0.0840638
0.0854977
0.0868819
0.0881865
0.0894422
0.0905455
0.0338113
0.0307889
0.0241619
0.0181766
0.0158523
0.0167285
0.0182749
0.0192239
0.0197255
0.0201763
0.0205914
0.0209603
0.0214409
0.0219537
0.0223092
0.0225419
0.022798
0.0231357
0.0234705
0.0237998
0.0242563
0.0248081
0.0252594
0.0255996
0.025982
0.0264718
0.0269847
0.0273945
0.0277824
0.0282723
0.0287811
0.0292522
0.0297494
0.0302701
0.0307361
0.0312149
0.031788
0.032361
0.0328706
0.0334072
0.0340425
0.0346923
0.0353034
0.0358934
0.0364228
0.0369364
0.0375063
0.0380711
0.0386103
0.0392186
0.0399095
0.0405918
0.0412512
0.0419881
0.0427606
0.0435121
0.0443831
0.0452477
0.0456751
0.045858
0.0464054
0.0474996
0.0486844
0.0495852
0.0504126
0.0512384
0.0520636
0.0529626
0.0538893
0.0547006
0.055576
0.0565265
0.0574616
0.058408
0.0593905
0.0604231
0.0614906
0.0625768
0.0636439
0.0647721
0.0659072
0.0670821
0.0682264
0.069397
0.0706221
0.0718657
0.0731725
0.0744743
0.075777
0.0770935
0.0784151
0.0798212
0.0812083
0.0826409
0.084064
0.0854978
0.0868821
0.0881868
0.0894426
0.0905457
0.0330247
0.0304782
0.024351
0.018584
0.0161646
0.0168626
0.0183296
0.019265
0.0197683
0.0202145
0.0206213
0.0209836
0.0214573
0.0219633
0.0223172
0.0225531
0.0228114
0.0231487
0.0234843
0.0238144
0.0242672
0.0248133
0.025263
0.0256056
0.0259892
0.0264772
0.0269883
0.0273984
0.027787
0.0282763
0.0287842
0.0292549
0.0297518
0.0302721
0.0307381
0.0312166
0.0317888
0.0323612
0.0328708
0.0334078
0.0340433
0.0346927
0.0353036
0.0358941
0.0364241
0.0369375
0.037507
0.0380717
0.0386109
0.0392192
0.0399099
0.0405922
0.0412518
0.0419887
0.042761
0.0435124
0.0443837
0.045249
0.0456763
0.0458579
0.0464048
0.0474998
0.0486853
0.0495858
0.050413
0.0512388
0.0520639
0.0529629
0.0538897
0.0547009
0.0555762
0.0565268
0.0574618
0.0584082
0.0593906
0.0604233
0.0614908
0.062577
0.063644
0.0647722
0.0659073
0.0670822
0.0682266
0.0693972
0.0706222
0.0718658
0.0731727
0.0744745
0.0757771
0.0770936
0.0784152
0.0798213
0.0812085
0.0826411
0.0840641
0.085498
0.0868824
0.0881872
0.0894433
0.0905461
0.0322654
0.0301532
0.0245256
0.0189843
0.0164861
0.0170059
0.0183859
0.0193063
0.0198135
0.0202563
0.0206542
0.0210091
0.0214751
0.0219734
0.0223249
0.0225639
0.0228248
0.0231624
0.0234998
0.0238316
0.0242807
0.0248202
0.0252678
0.0256127
0.0259977
0.0264833
0.0269922
0.027403
0.0277927
0.0282813
0.0287879
0.0292582
0.0297548
0.0302747
0.0307409
0.0312191
0.0317901
0.0323615
0.032871
0.0334084
0.0340441
0.0346928
0.0353033
0.0358946
0.0364255
0.0369388
0.0375078
0.0380725
0.0386119
0.0392201
0.0399104
0.0405927
0.0412523
0.0419891
0.0427613
0.0435126
0.0443843
0.0452505
0.0456777
0.0458579
0.0464042
0.0475001
0.0486862
0.0495865
0.0504134
0.0512392
0.0520644
0.0529633
0.0538902
0.0547014
0.0555765
0.0565271
0.0574621
0.0584085
0.0593909
0.0604235
0.061491
0.0625772
0.0636442
0.0647724
0.0659075
0.0670824
0.0682267
0.0693973
0.0706223
0.0718659
0.0731728
0.0744746
0.0757772
0.0770937
0.0784153
0.0798214
0.0812086
0.0826412
0.0840643
0.0854982
0.0868827
0.0881877
0.0894442
0.0905465
0.0315451
0.0298159
0.0246787
0.0193727
0.0168151
0.0171596
0.0184445
0.0193471
0.0198601
0.020301
0.0206897
0.0210365
0.0214944
0.0219845
0.0223331
0.022575
0.0228383
0.0231763
0.0235159
0.0238501
0.0242957
0.0248284
0.0252736
0.025621
0.0260071
0.0264899
0.0269962
0.0274078
0.0277991
0.028287
0.0287921
0.0292619
0.0297581
0.0302777
0.0307445
0.0312227
0.0317922
0.0323622
0.0328714
0.0334091
0.0340448
0.0346926
0.0353024
0.0358947
0.036427
0.0369402
0.0375088
0.0380735
0.0386133
0.0392215
0.0399113
0.0405933
0.0412531
0.0419895
0.0427611
0.0435124
0.0443849
0.0452521
0.0456793
0.0458582
0.0464038
0.0475005
0.0486872
0.0495871
0.0504138
0.0512398
0.0520649
0.0529639
0.0538907
0.0547019
0.055577
0.0565275
0.0574625
0.0584089
0.0593912
0.0604237
0.0614913
0.0625775
0.0636444
0.0647726
0.0659077
0.0670825
0.0682269
0.0693974
0.0706225
0.071866
0.0731729
0.0744748
0.0757774
0.0770939
0.0784155
0.0798216
0.0812088
0.0826413
0.0840645
0.0854984
0.0868831
0.0881885
0.0894454
0.090547
0.0308689
0.0294691
0.0248099
0.0197478
0.0171493
0.0173233
0.0185052
0.019386
0.0199069
0.0203482
0.0207277
0.0210658
0.0215151
0.0219967
0.0223423
0.0225868
0.0228525
0.0231904
0.0235321
0.0238692
0.0243114
0.0248374
0.0252804
0.0256301
0.0260172
0.0264968
0.0270002
0.0274128
0.0278058
0.0282931
0.0287967
0.0292659
0.0297614
0.0302808
0.0307487
0.031227
0.0317949
0.0323635
0.0328724
0.03341
0.0340455
0.0346922
0.035301
0.0358942
0.0364283
0.0369417
0.0375096
0.0380745
0.038615
0.0392234
0.0399125
0.0405944
0.0412543
0.04199
0.0427606
0.0435116
0.0443848
0.0452535
0.0456812
0.045859
0.0464039
0.0475011
0.0486882
0.0495877
0.0504142
0.0512403
0.0520655
0.0529644
0.0538913
0.0547026
0.0555775
0.056528
0.0574631
0.0584094
0.0593916
0.0604241
0.0614917
0.0625778
0.0636446
0.0647729
0.0659079
0.0670827
0.0682271
0.0693976
0.0706227
0.0718662
0.0731731
0.0744749
0.0757776
0.077094
0.0784156
0.0798217
0.0812089
0.0826415
0.0840648
0.0854987
0.0868836
0.0881896
0.089447
0.0905478
0.0302383
0.029119
0.0249217
0.0201076
0.0174838
0.0174954
0.0185682
0.0194229
0.019953
0.0203974
0.020768
0.0210967
0.021537
0.0220098
0.0223526
0.0226002
0.0228679
0.0232051
0.0235485
0.0238884
0.0243275
0.0248467
0.0252875
0.0256397
0.0260278
0.0265041
0.0270044
0.027418
0.0278129
0.0282994
0.0288014
0.0292701
0.0297648
0.0302839
0.0307531
0.0312318
0.031798
0.0323653
0.0328739
0.0334114
0.0340464
0.0346916
0.0352991
0.0358932
0.0364292
0.0369429
0.0375103
0.0380753
0.0386169
0.0392257
0.0399142
0.040596
0.0412561
0.041991
0.0427601
0.04351
0.0443836
0.0452539
0.0456828
0.04586
0.0464045
0.0475023
0.0486895
0.0495882
0.0504143
0.0512407
0.0520662
0.0529649
0.0538919
0.0547033
0.0555782
0.0565285
0.0574637
0.0584101
0.0593921
0.0604246
0.0614922
0.0625783
0.063645
0.0647733
0.0659082
0.067083
0.0682273
0.0693978
0.0706228
0.0718663
0.0731732
0.0744751
0.0757778
0.0770942
0.0784157
0.0798219
0.0812092
0.0826417
0.0840651
0.085499
0.0868841
0.0881909
0.089449
0.0905487
0.029654
0.028771
0.025014
0.0204475
0.0178145
0.0176764
0.0186351
0.0194578
0.0199974
0.0204477
0.0208103
0.0211289
0.0215595
0.0220235
0.022364
0.0226152
0.022885
0.0232208
0.0235652
0.0239079
0.0243438
0.0248559
0.0252946
0.0256496
0.0260388
0.0265118
0.0270088
0.0274233
0.0278201
0.028306
0.0288064
0.0292744
0.0297682
0.0302868
0.0307575
0.0312371
0.0318015
0.0323674
0.032876
0.0334131
0.0340474
0.0346911
0.0352969
0.0358916
0.0364297
0.0369439
0.0375107
0.0380759
0.0386187
0.0392283
0.0399163
0.040598
0.0412586
0.0419926
0.0427597
0.0435077
0.044381
0.0452529
0.0456834
0.0458608
0.0464056
0.0475044
0.0486913
0.0495889
0.0504144
0.0512409
0.0520667
0.0529654
0.0538923
0.0547041
0.055579
0.0565291
0.0574644
0.058411
0.0593929
0.0604253
0.061493
0.0625789
0.0636455
0.0647737
0.0659086
0.0670833
0.0682277
0.069398
0.0706231
0.0718665
0.0731734
0.0744753
0.075778
0.0770944
0.0784159
0.0798221
0.0812094
0.0826419
0.0840655
0.0854993
0.0868848
0.0881927
0.0894515
0.0905497
0.0291133
0.0284261
0.0250832
0.0207649
0.018141
0.0178677
0.0187072
0.0194899
0.0200382
0.0204977
0.0208543
0.0211625
0.0215825
0.0220374
0.0223762
0.0226318
0.0229037
0.0232375
0.0235824
0.0239277
0.0243602
0.024865
0.0253015
0.0256597
0.0260502
0.0265199
0.0270134
0.0274288
0.0278277
0.0283129
0.0288115
0.0292789
0.0297719
0.0302897
0.030762
0.0312426
0.0318052
0.0323697
0.0328783
0.0334153
0.0340485
0.0346906
0.0352946
0.0358896
0.0364297
0.0369446
0.0375108
0.0380762
0.0386202
0.0392308
0.0399184
0.0406002
0.0412615
0.0419948
0.0427596
0.043505
0.0443769
0.0452499
0.0456825
0.0458607
0.0464067
0.0475073
0.048694
0.0495898
0.0504143
0.051241
0.0520672
0.0529656
0.0538926
0.0547049
0.0555798
0.0565296
0.0574651
0.0584119
0.0593937
0.0604262
0.0614939
0.0625797
0.0636462
0.0647743
0.065909
0.0670837
0.0682281
0.0693984
0.0706233
0.0718666
0.0731736
0.0744755
0.0757783
0.0770946
0.0784161
0.0798223
0.0812096
0.0826421
0.0840659
0.0854998
0.0868856
0.0881948
0.0894544
0.090551
0.0286103
0.0280819
0.0251283
0.0210612
0.0184638
0.0180696
0.0187849
0.019519
0.0200743
0.0205467
0.0209003
0.0211981
0.0216061
0.0220511
0.0223886
0.0226494
0.0229238
0.0232553
0.0236003