/*--------------------------------*- C++ -*----------------------------------*\
| =========                 |                                                 |
| \\      /  F ield         | OpenFOAM: The Open Source CFD Toolbox           |
|  \\    /   O peration     | Version:  v1912                                 |
|   \\  /    A nd           | Website:  www.openfoam.com                      |
|    \\/     M anipulation  |                                                 |
\*---------------------------------------------------------------------------*/
FoamFile
{
    version     2.0;
    format      ascii;
    class       surfaceScalarField;
    location    "8";
    object      phi;
}
// * * * * * * * * * * * * * * * * * * * * * * * * * * * * * * * * * * * * * //

dimensions      [0 3 -1 0 0 0 0];
oriented        oriented;


internalField   nonuniform List<scalar> 
19000
(
1.20386e-06
-6.00903e-07
1.12188e-06
1.96384e-06
1.11407e-06
-1.955e-06
1.27433e-06
-2.40485e-06
1.30225e-06
-1.19164e-06
1.22168e-06
1.74968e-06
1.23124e-06
1.34218e-07
1.24486e-06
-2.65675e-07
1.26918e-06
-1.17172e-06
1.27776e-06
-8.20707e-07
1.26896e-06
-7.55954e-07
1.2077e-06
1.14231e-07
1.17232e-06
1.87626e-07
1.2078e-06
4.01301e-07
1.21478e-06
8.68631e-09
1.22844e-06
1.60148e-07
1.24715e-06
-2.09337e-08
1.24795e-06
6.3594e-08
1.25425e-06
-2.25038e-08
3.88262e-08
1.2326e-06
1.26255e-06
-6.39195e-07
1.22871e-06
1.99768e-06
1.19613e-06
-1.92242e-06
1.3153e-06
-2.52403e-06
1.35727e-06
-1.23361e-06
1.30951e-06
1.79744e-06
1.30833e-06
1.35397e-07
1.32225e-06
-2.79602e-07
1.3437e-06
-1.19316e-06
1.35035e-06
-8.27355e-07
1.34516e-06
-7.50768e-07
1.28648e-06
1.72914e-07
1.23532e-06
2.38789e-07
1.28085e-06
3.55768e-07
1.27808e-06
1.14576e-08
1.30491e-06
1.33316e-07
1.3062e-06
-2.22179e-08
1.32928e-06
4.05054e-08
1.30924e-06
-2.45924e-09
2.28381e-08
1.32523e-06
1.32332e-06
-6.79731e-07
1.32679e-06
1.99421e-06
1.26059e-06
-1.85621e-06
1.34679e-06
-2.61023e-06
1.4098e-06
-1.29662e-06
1.40443e-06
1.80281e-06
1.39166e-06
1.48164e-07
1.39508e-06
-2.83024e-07
1.40165e-06
-1.19973e-06
1.41758e-06
-8.4328e-07
1.416e-06
-7.49195e-07
1.37569e-06
2.13224e-07
1.30915e-06
3.05336e-07
1.34948e-06
3.15439e-07
1.347e-06
1.39316e-08
1.3709e-06
1.09417e-07
1.37308e-06
-2.43971e-08
1.39266e-06
2.09304e-08
1.38253e-06
7.66641e-09
2.2568e-08
1.3828e-06
1.38516e-06
-7.20785e-07
1.41823e-06
1.96114e-06
1.31799e-06
-1.75598e-06
1.37448e-06
-2.66672e-06
1.46006e-06
-1.3822e-06
1.4968e-06
1.76607e-06
1.47704e-06
1.67927e-07
1.46477e-06
-2.70756e-07
1.44946e-06
-1.18442e-06
1.47156e-06
-8.65374e-07
1.47574e-06
-7.53379e-07
1.45426e-06
2.34708e-07
1.39226e-06
3.6733e-07
1.41372e-06
2.9398e-07
1.41825e-06
9.40768e-09
1.43547e-06
9.21952e-08
1.44105e-06
-2.99759e-08
1.45783e-06
4.14761e-09
1.45371e-06
1.17856e-08
2.51843e-08
1.45109e-06
1.44804e-06
-7.60469e-07
1.49568e-06
1.9135e-06
1.36974e-06
-1.63004e-06
1.40387e-06
-2.70085e-06
1.5116e-06
-1.48993e-06
1.5848e-06
1.69287e-06
1.56375e-06
1.88985e-07
1.53174e-06
-2.38749e-07
1.49401e-06
-1.14669e-06
1.5143e-06
-8.85667e-07
1.52525e-06
-7.64326e-07
1.5206e-06
2.39351e-07
1.47717e-06
4.10765e-07
1.48335e-06
2.878e-07
1.48937e-06
3.38096e-09
1.5044e-06
7.71636e-08
1.50931e-06
-3.48841e-08
1.52492e-06
-1.14581e-08
1.52291e-06
1.37956e-08
2.7959e-08
1.52013e-06
1.51242e-06
-7.97218e-07
1.56153e-06
1.86439e-06
1.4251e-06
-1.49361e-06
1.44192e-06
-2.71767e-06
1.56827e-06
-1.61628e-06
1.67069e-06
1.59045e-06
1.65138e-06
2.08297e-07
1.5998e-06
-1.87168e-07
1.54304e-06
-1.08994e-06
1.55436e-06
-8.96987e-07
1.56941e-06
-7.79377e-07
1.58081e-06
2.27957e-07
1.55922e-06
4.32346e-07
1.55994e-06
2.87082e-07
1.56266e-06
6.65169e-10
1.57635e-06
6.34667e-08
1.57899e-06
-3.75234e-08
1.59175e-06
-2.42152e-08
1.59046e-06
1.50835e-08
3.16223e-08
1.5868e-06
1.57892e-06
-8.29917e-07
1.62207e-06
1.82124e-06
1.49146e-06
-1.36299e-06
1.49319e-06
-2.71941e-06
1.63166e-06
-1.75475e-06
1.75633e-06
1.46577e-06
1.73776e-06
2.26873e-07
1.67088e-06
-1.20287e-07
1.59961e-06
-1.01867e-06
1.59869e-06
-8.96061e-07
1.61353e-06
-7.94224e-07
1.63977e-06
2.01722e-07
1.63841e-06
4.33701e-07
1.64107e-06
2.84424e-07
1.63988e-06
1.85489e-09
1.65074e-06
5.26096e-08
1.64997e-06
-3.67559e-08
1.65809e-06
-3.23326e-08
1.65611e-06
1.70619e-08
3.70099e-08
1.65072e-06
1.6479e-06
-8.57684e-07
1.68444e-06
1.7847e-06
1.5713e-06
-1.24986e-06
1.55817e-06
-2.70628e-06
1.70025e-06
-1.89682e-06
1.84014e-06
1.32588e-06
1.81939e-06
2.47621e-07
1.74388e-06
-4.47793e-08
1.66304e-06
-9.37825e-07
1.6502e-06
-8.83223e-07
1.66177e-06
-8.05794e-07
1.70061e-06
1.62888e-07
1.71653e-06
4.17779e-07
1.72413e-06
2.76823e-07
1.71993e-06
6.05179e-09
1.72674e-06
4.58064e-08
1.72149e-06
-3.15126e-08
1.72367e-06
-3.45147e-08
1.71978e-06
2.09522e-08
4.47199e-08
1.71207e-06
1.71964e-06
-8.79745e-07
1.75329e-06
1.75104e-06
1.66222e-06
-1.15878e-06
1.63433e-06
-2.67839e-06
1.77076e-06
-2.03326e-06
1.91791e-06
1.17873e-06
1.89315e-06
2.72379e-07
1.81637e-06
3.20066e-08
1.73164e-06
-8.53094e-07
1.70949e-06
-8.61081e-07
1.71662e-06
-8.12922e-07
1.76513e-06
1.14381e-07
1.79451e-06
3.88397e-07
1.80652e-06
2.64809e-07
1.79973e-06
1.28487e-08
1.80208e-06
4.34549e-08
1.79227e-06
-2.17012e-08
1.78815e-06
-3.04e-08
1.78168e-06
2.74233e-08
5.48536e-08
1.77155e-06
1.79457e-06
-8.95591e-07
1.82983e-06
1.71577e-06
1.75984e-06
-1.08879e-06
1.71866e-06
-2.63721e-06
1.84033e-06
-2.15492e-06
1.98594e-06
1.03312e-06
1.95789e-06
3.00428e-07
1.88668e-06
1.03216e-07
1.80424e-06
-7.70649e-07
1.7766e-06
-8.33443e-07
1.77905e-06
-8.1537e-07
1.8334e-06
6.00273e-08
1.87143e-06
3.50373e-07
1.88557e-06
2.50666e-07
1.87615e-06
2.22651e-08
1.87442e-06
4.51877e-08
1.86128e-06
-8.55643e-09
1.85186e-06
-2.09819e-08
1.84292e-06
3.63631e-08
6.69045e-08
1.83087e-06
1.87337e-06
-9.05208e-07
1.91273e-06
1.67641e-06
1.86038e-06
-1.03643e-06
1.80918e-06
-2.58601e-06
1.9079e-06
-2.25365e-06
2.04346e-06
8.97564e-07
2.01511e-06
3.28772e-07
1.95508e-06
1.63247e-07
1.88045e-06
-6.96015e-07
1.85145e-06
-8.04451e-07
1.849e-06
-8.12914e-07
1.90424e-06
4.7871e-09
1.94556e-06
3.09053e-07
1.9596e-06
2.36619e-07
1.94801e-06
3.38571e-08
1.94332e-06
4.9884e-08
1.92896e-06
5.79797e-09
1.91634e-06
-8.36445e-09
1.90582e-06
4.68839e-08
7.98481e-08
1.89288e-06
1.95673e-06
-9.09096e-07
2.00009e-06
1.63304e-06
1.96157e-06
-9.97909e-07
1.90483e-06
-2.52927e-06
1.97467e-06
-2.3235e-06
2.09343e-06
7.78812e-07
2.06879e-06
3.5341e-07
2.02366e-06
2.08381e-07
1.96049e-06
-6.32846e-07
1.9337e-06
-7.77663e-07
1.92603e-06
-8.05249e-07
1.97689e-06
-4.60696e-08
2.01666e-06
2.69281e-07
2.02954e-06
2.23744e-07
2.01711e-06
4.62806e-08
2.01104e-06
5.59579e-08
1.99761e-06
1.92296e-08
1.98417e-06
5.0746e-09
1.97335e-06
5.76999e-08
9.24282e-08
1.96077e-06
2.04516e-06
-9.08064e-07
2.09094e-06
1.58726e-06
2.0628e-06
-9.69766e-07
2.00491e-06
-2.47138e-06
2.0436e-06
-2.36219e-06
2.14198e-06
6.80432e-07
2.12445e-06
3.70948e-07
2.09556e-06
2.37265e-07
2.04499e-06
-5.82279e-07
2.02265e-06
-7.55323e-07
2.00988e-06
-7.92472e-07
2.05242e-06
-8.86144e-08
2.08739e-06
2.34314e-07
2.09919e-06
2.11945e-07
2.08774e-06
5.77265e-08
2.08172e-06
6.1977e-08
2.07053e-06
3.0424e-08
2.05804e-06
1.75663e-08
2.04804e-06
6.76988e-08
1.03571e-07
2.03689e-06
2.13894e-06
-9.03004e-07
2.1855e-06
1.5407e-06
2.16471e-06
-9.48981e-07
2.1088e-06
-2.41547e-06
2.11831e-06
-2.3717e-06
2.1965e-06
6.02242e-07
2.18761e-06
3.79845e-07
2.17393e-06
2.50943e-07
2.13478e-06
-5.43126e-07
2.11757e-06
-7.38112e-07
2.10054e-06
-7.75447e-07
2.13343e-06
-1.21498e-07
2.16242e-06
2.05319e-07
2.17374e-06
2.00625e-07
2.16469e-06
6.67738e-08
2.1595e-06
6.71745e-08
2.1507e-06
3.92198e-08
2.13991e-06
2.83532e-08
2.13126e-06
7.63555e-08
1.12726e-07
2.1221e-06
2.23825e-06
-8.94768e-07
2.28463e-06
1.49432e-06
2.26859e-06
-9.32945e-07
2.21601e-06
-2.36289e-06
2.20165e-06
-2.35734e-06
2.26298e-06
5.40915e-07
2.26219e-06
3.80635e-07
2.26097e-06
2.5216e-07
2.2306e-06
-5.1276e-07
2.21787e-06
-7.25379e-07
2.19805e-06
-7.55627e-07
2.22242e-06
-1.45871e-07
2.24608e-06
1.81657e-07
2.25735e-06
1.89363e-07
2.25118e-06
7.2935e-08
2.24686e-06
7.14999e-08
2.23978e-06
4.63003e-08
2.23061e-06
3.75224e-08
2.22322e-06
8.37427e-08
1.19932e-07
2.21602e-06
2.34322e-06
-8.84116e-07
2.38914e-06
1.44841e-06
2.37574e-06
-9.19542e-07
2.32635e-06
-2.3135e-06
2.29472e-06
-2.3257e-06
2.34413e-06
4.91505e-07
2.34967e-06
3.75096e-07
2.3576e-06
2.44232e-07
2.33305e-06
-4.88211e-07
2.32334e-06
-7.15674e-07
2.30216e-06
-7.34451e-07
2.32046e-06
-1.64166e-07
2.3404e-06
1.61713e-07
2.35163e-06
1.78141e-07
2.34797e-06
7.65875e-08
2.34419e-06
7.52798e-08
2.33791e-06
5.2581e-08
2.32992e-06
4.55198e-08
2.32342e-06
9.02341e-08
1.25604e-07
2.31775e-06
2.45397e-06
-8.71693e-07
2.49951e-06
1.40286e-06
2.48716e-06
-9.07183e-07
2.44004e-06
-2.26639e-06
2.39708e-06
-2.28274e-06
2.43949e-06
4.49096e-07
2.44949e-06
3.65096e-07
2.46367e-06
2.30053e-07
2.44243e-06
-4.66976e-07
2.43407e-06
-7.07308e-07
2.41245e-06
-7.12832e-07
2.427e-06
-1.78719e-07
2.44493e-06
1.43785e-07
2.4559e-06
1.67164e-07
2.45397e-06
7.85205e-08
2.45042e-06
7.88344e-08
2.44427e-06
5.87315e-08
2.43706e-06
5.27263e-08
2.43114e-06
9.61556e-08
1.30218e-07
2.42652e-06
2.57062e-06
-8.58023e-07
2.61601e-06
1.35748e-06
2.60355e-06
-8.94718e-07
2.55761e-06
-2.22045e-06
2.5076e-06
-2.23274e-06
2.5469e-06
4.09804e-07
2.5601e-06
3.51897e-07
2.57847e-06
2.11684e-07
2.55883e-06
-4.4734e-07
2.55031e-06
-6.98785e-07
2.52855e-06
-6.91075e-07
2.54082e-06
-1.90989e-07
2.55795e-06
1.26652e-07
2.5685e-06
1.56618e-07
2.56752e-06
7.9498e-08
2.56407e-06
8.22867e-08
2.55777e-06
6.50271e-08
2.55118e-06
5.93179e-08
2.54576e-06
1.01574e-07
1.34115e-07
2.54187e-06
2.69332e-06
-8.43518e-07
2.73882e-06
1.31197e-06
2.72542e-06
-8.81317e-07
2.67972e-06
-2.17474e-06
2.62536e-06
-2.17838e-06
2.66415e-06
3.71009e-07
2.67995e-06
3.36096e-07
2.70118e-06
1.90456e-07
2.68214e-06
-4.28302e-07
2.67237e-06
-6.89012e-07
2.65041e-06
-6.6912e-07
2.66095e-06
-2.01527e-07
2.67787e-06
1.09735e-07
2.68792e-06
1.46569e-07
2.68736e-06
8.00533e-08
2.68408e-06
8.55742e-08
2.67766e-06
7.14471e-08
2.67165e-06
6.53198e-08
2.66693e-06
1.06296e-07
1.37435e-07
2.66361e-06
2.82225e-06
-8.28495e-07
2.86813e-06
1.26609e-06
2.85319e-06
-8.66373e-07
2.80701e-06
-2.12856e-06
2.7499e-06
-2.12127e-06
2.78979e-06
3.31117e-07
2.80798e-06
3.17907e-07
2.83115e-06
1.67291e-07
2.81219e-06
-4.09348e-07
2.80052e-06
-6.77341e-07
2.77827e-06
-6.46868e-07
2.78707e-06
-2.10329e-07
2.80382e-06
9.29926e-08
2.8134e-06
1.36988e-07
2.81296e-06
8.04861e-08
2.81e-06
8.85414e-08
2.80362e-06
7.7826e-08
2.79822e-06
7.07146e-08
2.79451e-06
1.10011e-07
1.40157e-07
2.79179e-06
2.9576e-06
-8.13196e-07
3.00409e-06
1.2196e-06
2.98718e-06
-8.49462e-07
2.94011e-06
-2.0815e-06
2.88124e-06
-2.0624e-06
2.92311e-06
2.89254e-07
2.94358e-06
2.97435e-07
2.96793e-06
1.42937e-07
2.94884e-06
-3.90257e-07
2.935e-06
-6.63497e-07
2.91249e-06
-6.24361e-07
2.91939e-06
-2.17224e-07
2.93568e-06
7.66963e-08
2.94486e-06
1.27814e-07
2.9444e-06
8.09425e-08
2.94192e-06
9.10211e-08
2.93582e-06
8.39297e-08
2.93101e-06
7.55255e-08
2.92857e-06
1.12446e-07
1.42154e-07
2.92657e-06
3.09961e-06
-7.978e-07
3.14682e-06
1.17239e-06
3.12768e-06
-8.30316e-07
3.07958e-06
-2.0334e-06
3.01966e-06
-2.00248e-06
3.06384e-06
2.45074e-07
3.08644e-06
2.74828e-07
3.11132e-06
1.18055e-07
3.09206e-06
-3.70992e-07
3.07605e-06
-6.47486e-07
3.05347e-06
-6.0178e-07
3.05835e-06
-2.2211e-07
3.07383e-06
6.12143e-08
3.08267e-06
1.18976e-07
3.08214e-06
8.14796e-08
3.08027e-06
9.2886e-08
3.07471e-06
8.94897e-08
3.0704e-06
7.98407e-08
3.06935e-06
1.13493e-07
1.43248e-07
3.06825e-06
3.24854e-06
-7.82428e-07
3.2965e-06
1.12442e-06
3.27497e-06
-8.08778e-07
3.22595e-06
-1.98439e-06
3.16548e-06
-1.94201e-06
3.2119e-06
1.98655e-07
3.23643e-06
2.50303e-07
3.2613e-06
9.31809e-08
3.24198e-06
-3.51665e-07
3.22397e-06
-6.29485e-07
3.20155e-06
-5.79356e-07
3.20446e-06
-2.25019e-07
3.21882e-06
4.68559e-08
3.22741e-06
1.10385e-07
3.2268e-06
8.20904e-08
3.2256e-06
9.40805e-08
3.22084e-06
9.42542e-08
3.21691e-06
8.37648e-08
3.21712e-06
1.13287e-07
1.43268e-07
3.2171e-06
3.40464e-06
-7.67136e-07
3.45339e-06
1.07567e-06
3.42938e-06
-7.84773e-07
3.37971e-06
-1.93472e-06
3.31907e-06
-1.88137e-06
3.36728e-06
1.50452e-07
3.39349e-06
2.2409e-07
3.41803e-06
6.86435e-08
3.39889e-06
-3.32526e-07
3.37913e-06
-6.09727e-07
3.35704e-06
-5.57261e-07
3.35811e-06
-2.2609e-07
3.37116e-06
3.38009e-08
3.37965e-06
1.019e-07
3.37901e-06
8.27262e-08
3.37849e-06
9.46065e-08
3.37468e-06
9.80595e-08
3.37109e-06
8.73499e-08
3.3722e-06
1.12182e-07
1.4213e-07
3.37334e-06
3.56817e-06
-7.51899e-07
3.61783e-06
1.02602e-06
3.59136e-06
-7.58305e-07
3.54131e-06
-1.88467e-06
3.48074e-06
-1.8208e-06
3.52997e-06
1.01219e-07
3.55767e-06
1.9639e-07
3.58177e-06
4.45434e-08
3.56318e-06
-3.13938e-07
3.5419e-06
-5.88441e-07
3.52018e-06
-5.35545e-07
3.51959e-06
-2.25498e-07
3.53129e-06
2.20972e-08
3.53986e-06
9.33309e-08
3.5393e-06
8.32833e-08
3.5394e-06
9.4511e-08
3.53663e-06
1.00824e-07
3.53339e-06
9.05988e-08
3.53495e-06
1.10616e-07
1.39924e-07
3.53716e-06
3.73939e-06
-7.36588e-07
3.79022e-06
9.75191e-07
3.76142e-06
-7.29498e-07
3.71121e-06
-1.83447e-06
3.65079e-06
-1.76038e-06
3.70009e-06
5.19187e-08
3.72909e-06
1.67393e-07
3.75284e-06
2.07981e-08
3.73524e-06
-2.96342e-07
3.71264e-06
-5.65836e-07
3.69125e-06
-5.14164e-07
3.68914e-06
-2.23388e-07
3.69953e-06
1.17146e-08
3.70838e-06
8.44805e-08
3.70807e-06
8.35883e-08
3.70872e-06
9.38639e-08
3.70703e-06
1.02514e-07
3.70417e-06
9.34626e-08
3.70581e-06
1.08978e-07
1.3696e-07
3.70877e-06
3.91855e-06
-7.20945e-07
3.97094e-06
9.22794e-07
3.94012e-06
-6.98672e-07
3.88983e-06
-1.78418e-06
3.82958e-06
-1.70013e-06
3.8779e-06
3.59754e-09
3.90794e-06
1.37347e-07
3.9315e-06
-2.75668e-09
3.91537e-06
-2.80211e-07
3.89168e-06
-5.42144e-07
3.87056e-06
-4.93049e-07
3.86709e-06
-2.19915e-07
3.87615e-06
2.6487e-09
3.88542e-06
7.52141e-08
3.8856e-06
8.34105e-08
3.88672e-06
9.27424e-08
3.88611e-06
1.03127e-07
3.88374e-06
9.58256e-08
3.88521e-06
1.0751e-07
1.33655e-07
3.88852e-06
4.10591e-06
-7.04608e-07
4.16027e-06
8.68434e-07
4.12801e-06
-6.66407e-07
4.07756e-06
-1.73373e-06
4.01741e-06
-1.63998e-06
4.06376e-06
-4.27462e-08
4.09448e-06
1.06627e-07
4.11798e-06
-2.62648e-08
4.10378e-06
-2.66009e-07
4.0793e-06
-5.17666e-07
4.05846e-06
-4.72207e-07
4.05381e-06
-2.1527e-07
4.06151e-06
-5.0487e-09
4.0712e-06
6.55259e-08
4.0721e-06
8.25073e-08
4.07362e-06
9.12286e-08
4.07405e-06
1.02697e-07
4.0723e-06
9.75739e-08
4.07356e-06
1.06244e-07
1.30359e-07
4.07686e-06
4.30185e-06
-6.87155e-07
4.35842e-06
8.11859e-07
4.32555e-06
-6.33534e-07
4.27474e-06
-1.68292e-06
4.21462e-06
-1.57986e-06
4.25815e-06
-8.62802e-08
4.28905e-06
7.57274e-08
4.31257e-06
-4.97779e-08
4.30068e-06
-2.5412e-07
4.27578e-06
-4.92768e-07
4.25533e-06
-4.51757e-07
4.24979e-06
-2.09727e-07
4.25602e-06
-1.12838e-08
4.26599e-06
5.5557e-08
4.26783e-06
8.06729e-08
4.26963e-06
8.94282e-08
4.27101e-06
1.01318e-07
4.26998e-06
9.86e-08
4.27115e-06
1.05074e-07
1.27218e-07
4.27429e-06
4.50682e-06
-6.68197e-07
4.56561e-06
7.53069e-07
4.5331e-06
-6.0103e-07
4.48168e-06
-1.6315e-06
4.42152e-06
-1.5197e-06
4.46167e-06
-1.26428e-07
4.49221e-06
4.51848e-08
4.51565e-06
-7.3223e-08
4.50632e-06
-2.44788e-07
4.4814e-06
-4.67848e-07
4.46156e-06
-4.31912e-07
4.45549e-06
-2.03657e-07
4.46019e-06
-1.59872e-08
4.47018e-06
4.55711e-08
4.47308e-06
7.77746e-08
4.47503e-06
8.74736e-08
4.47718e-06
9.91658e-08
4.47698e-06
9.88026e-08
4.47821e-06
1.03844e-07
1.24215e-07
4.48121e-06
4.72138e-06
-6.47459e-07
4.78209e-06
6.92356e-07
4.75091e-06
-5.69854e-07
4.69867e-06
-1.57925e-06
4.63847e-06
-1.45949e-06
4.67496e-06
-1.62919e-07
4.70465e-06
1.5492e-08
4.72784e-06
-9.6409e-08
4.72111e-06
-2.38057e-07
4.69655e-06
-4.43291e-07
4.67752e-06
-4.1288e-07
4.67137e-06
-1.97508e-07
4.67456e-06
-1.91746e-08
4.68423e-06
3.58949e-08
4.68822e-06
7.37873e-08
4.69021e-06
8.54808e-08
4.69288e-06
9.6494e-08
4.69353e-06
9.81563e-08
4.69493e-06
1.0244e-07
1.21219e-07
4.69793e-06
4.94618e-06
-6.24844e-07
5.00828e-06
6.30259e-07
4.97921e-06
-5.40783e-07
4.92599e-06
-1.52604e-06
4.86588e-06
-1.39938e-06
4.89873e-06
-1.95774e-07
4.9272e-06
-1.2977e-08
4.94986e-06
-1.19063e-07
4.94556e-06
-2.33766e-07
4.92169e-06
-4.19413e-07
4.90362e-06
-3.94812e-07
4.89783e-06
-1.91715e-07
4.89966e-06
-2.10131e-08
4.90867e-06
2.68889e-08
4.91365e-06
6.88058e-08
4.91568e-06
8.34506e-08
4.91852e-06
9.36537e-08
4.92e-06
9.66774e-08
4.92159e-06
1.00849e-07
1.18079e-07
4.92473e-06
5.18192e-06
-6.00443e-07
5.24471e-06
5.67465e-07
5.21823e-06
-5.14299e-07
5.164e-06
-1.47181e-06
5.10423e-06
-1.3396e-06
5.13368e-06
-2.25222e-07
5.16072e-06
-4.00211e-08
5.18252e-06
-1.40868e-07
5.18036e-06
-2.316e-07
5.15737e-06
-3.96421e-07
5.1403e-06
-3.77751e-07
5.13524e-06
-1.86647e-07
5.13603e-06
-2.18034e-08
5.14399e-06
1.89296e-08
5.14984e-06
6.29492e-08
5.152e-06
8.12944e-08
5.15464e-06
9.10157e-08
5.15679e-06
9.45263e-08
5.15859e-06
9.9047e-08
1.1469e-07
5.16198e-06
5.42926e-06
-5.74514e-07
5.49203e-06
5.04698e-07
5.46829e-06
-4.90564e-07
5.41314e-06
-1.41666e-06
5.35406e-06
-1.28053e-06
5.38042e-06
-2.51583e-07
5.40599e-06
-6.55955e-08
5.42664e-06
-1.61516e-07
5.4262e-06
-2.31162e-07
5.40421e-06
-3.74428e-07
5.38808e-06
-3.61621e-07
5.38399e-06
-1.82558e-07
5.38411e-06
-2.19188e-08
5.39071e-06
1.23253e-08
5.39729e-06
5.63716e-08
5.39974e-06
7.88422e-08
5.40185e-06
8.89082e-08
5.40439e-06
9.19805e-08
5.40657e-06
9.68676e-08
1.11093e-07
5.41017e-06
5.68887e-06
-5.47424e-07
5.75093e-06
4.42635e-07
5.72986e-06
-4.69489e-07
5.6739e-06
-1.3607e-06
5.61592e-06
-1.22255e-06
5.63953e-06
-2.75187e-07
5.6637e-06
-8.97666e-08
5.68294e-06
-1.80754e-07
5.68382e-06
-2.3205e-07
5.66288e-06
-3.53485e-07
5.64751e-06
-3.46246e-07
5.64452e-06
-1.79575e-07
5.64436e-06
-2.17571e-08
5.64942e-06
7.27121e-09
5.65647e-06
4.93168e-08
5.65941e-06
7.58985e-08
5.66087e-06
8.7449e-08
5.66344e-06
8.94132e-08
5.66609e-06
9.42144e-08
1.07268e-07
5.66992e-06
5.96135e-06
-5.19586e-07
6.02213e-06
3.81857e-07
6.00348e-06
-4.50835e-07
5.94687e-06
-1.30409e-06
5.89039e-06
-1.16607e-06
5.91152e-06
-2.96323e-07
5.93441e-06
-1.12656e-07
5.95206e-06
-1.98401e-07
5.95392e-06
-2.33904e-07
5.93405e-06
-3.33624e-07
5.91921e-06
-3.31397e-07
5.91732e-06
-1.77688e-07
5.91729e-06
-2.17252e-08
5.92072e-06
3.8403e-09
5.92793e-06
4.21062e-08
5.9316e-06
7.22261e-08
5.93253e-06
8.65204e-08
5.93471e-06
8.72344e-08
5.93769e-06
9.1235e-08
1.03074e-07
5.94188e-06
6.24731e-06
-4.91405e-07
6.30632e-06
3.22844e-07
6.28982e-06
-4.34332e-07
6.23272e-06
-1.24699e-06
6.17802e-06
-1.11137e-06
6.19692e-06
-3.15223e-07
6.21866e-06
-1.34394e-07
6.23462e-06
-2.14358e-07
6.23714e-06
-2.36427e-07
6.2184e-06
-3.14886e-07
6.20385e-06
-3.16845e-07
6.20293e-06
-1.76767e-07
6.2034e-06
-2.21911e-08
6.20526e-06
1.97164e-09
6.21224e-06
3.51318e-08
6.21682e-06
6.76477e-08
6.21755e-06
8.57911e-08
6.21908e-06
8.5702e-08
6.22204e-06
8.82708e-08
9.84664e-08
6.22665e-06
6.54731e-06
-4.63245e-07
6.60415e-06
2.66003e-07
6.58958e-06
-4.19761e-07
6.53213e-06
-1.18955e-06
6.47943e-06
-1.05867e-06
6.49625e-06
-3.3204e-07
6.51694e-06
-1.55091e-07
6.53118e-06
-2.28598e-07
6.53413e-06
-2.39369e-07
6.51658e-06
-2.97337e-07
6.50215e-06
-3.02415e-07
6.50198e-06
-1.76602e-07
6.50325e-06
-2.34572e-08
6.50374e-06
1.47442e-09
6.51001e-06
2.88651e-08
6.51558e-06
6.20822e-08
6.51652e-06
8.48508e-08
6.51738e-06
8.48333e-08
6.51996e-06
8.5693e-08
9.36412e-08
6.52479e-06
6.86196e-06
-4.35411e-07
6.91626e-06
2.11702e-07
6.90352e-06
-4.07022e-07
6.84586e-06
-1.13189e-06
6.79524e-06
-1.00805e-06
6.81008e-06
-3.46878e-07
6.8298e-06
-1.74814e-07
6.84235e-06
-2.41148e-07
6.84551e-06
-2.42531e-07
6.82924e-06
-2.81066e-07
6.81481e-06
-2.87983e-07
6.81514e-06
-1.76932e-07
6.81745e-06
-2.57696e-08
6.81685e-06
2.07763e-09
6.82197e-06
2.37488e-08
6.82838e-06
5.5669e-08
6.82994e-06
8.32915e-08
6.83036e-06
8.44072e-08
6.83233e-06
8.37306e-08
8.89432e-08
6.83702e-06
7.19189e-06
-4.08164e-07
7.24328e-06
1.60315e-07
7.23235e-06
-3.9609e-07
7.17469e-06
-1.07423e-06
7.12614e-06
-9.59496e-07
7.13904e-06
-3.59783e-07
7.15782e-06
-1.93594e-07
7.16874e-06
-2.52062e-07
7.17193e-06
-2.45722e-07
7.15705e-06
-2.66186e-07
7.14258e-06
-2.73513e-07
7.14312e-06
-1.77474e-07
7.14664e-06
-2.92844e-08
7.14542e-06
3.29292e-09
7.14905e-06
2.01225e-08
7.15578e-06
4.89355e-08
7.15821e-06
8.08601e-08
7.15837e-06
8.4247e-08
7.15973e-06
8.23765e-08
8.45302e-08
7.16414e-06
7.53778e-06
-3.81714e-07
7.58589e-06
1.12199e-07
7.57682e-06
-3.87018e-07
7.51939e-06
-1.0168e-06
7.47285e-06
-9.12955e-07
7.48385e-06
-3.70792e-07
7.50163e-06
-2.11364e-07
7.51102e-06
-2.61458e-07
7.51409e-06
-2.48796e-07
7.50069e-06
-2.52783e-07
7.4862e-06
-2.59023e-07
7.48665e-06
-1.77921e-07
7.49139e-06
-3.40287e-08
7.49026e-06
4.42648e-09
7.49234e-06
1.80364e-08
7.4987e-06
4.25754e-08
7.50197e-06
7.75994e-08
7.50138e-06
8.48345e-08
7.50232e-06
8.14344e-08
8.02404e-08
7.50661e-06
7.90035e-06
-3.56254e-07
7.94481e-06
6.77433e-08
7.93764e-06
-3.79848e-07
7.88078e-06
-9.59949e-07
7.83614e-06
-8.68308e-07
7.84525e-06
-3.79909e-07
7.86192e-06
-2.28033e-07
7.86986e-06
-2.69399e-07
7.87272e-06
-2.5165e-07
7.86091e-06
-2.40974e-07
7.84647e-06
-2.44585e-07
7.84647e-06
-1.77923e-07
7.85244e-06
-3.99938e-08
7.8522e-06
4.65878e-09
7.85305e-06
1.71926e-08
7.85892e-06
3.67032e-08
7.86211e-06
7.44073e-08
7.85984e-06
8.71013e-08
7.85937e-06
8.19113e-08
7.47751e-08
7.86483e-06
8.28038e-06
-3.31955e-07
8.32085e-06
2.72737e-08
8.31555e-06
-3.74549e-07
8.25967e-06
-9.04068e-07
8.21679e-06
-8.25429e-07
8.22407e-06
-3.8718e-07
8.23947e-06
-2.43441e-07
8.24607e-06
-2.75998e-07
8.24858e-06
-2.54161e-07
8.23839e-06
-2.30779e-07
8.22426e-06
-2.30459e-07
8.22335e-06
-1.77015e-07
8.23035e-06
-4.69873e-08
8.23141e-06
3.59314e-09
8.23255e-06
1.60575e-08
8.24224e-06
2.70156e-08
8.25483e-06
6.18091e-08
8.26222e-06
7.97185e-08
8.26466e-06
7.94634e-08
7.61748e-08
8.26327e-06
8.67869e-06
-3.08982e-07
8.71485e-06
-8.88507e-09
8.71132e-06
-3.71021e-07
8.65698e-06
-8.4973e-07
8.61564e-06
-7.84087e-07
8.62112e-06
-3.92656e-07
8.63512e-06
-2.57445e-07
8.64042e-06
-2.81303e-07
8.64253e-06
-2.56271e-07
8.63396e-06
-2.22201e-07
8.62035e-06
-2.16851e-07
8.61843e-06
-1.75098e-07
8.62627e-06
-5.4827e-08
8.62908e-06
7.87274e-10
8.63033e-06
1.48085e-08
8.63869e-06
1.86557e-08
8.64993e-06
5.05688e-08
8.65669e-06
7.29572e-08
8.65723e-06
7.89194e-08
7.58574e-08
8.65755e-06
9.09611e-06
-2.87469e-07
9.12777e-06
-4.05516e-08
9.12583e-06
-3.69079e-07
9.07348e-06
-7.97384e-07
9.03348e-06
-7.44088e-07
9.03731e-06
-3.96483e-07
9.04979e-06
-2.69923e-07
9.05385e-06
-2.8536e-07
9.05543e-06
-2.57858e-07
9.04843e-06
-2.15192e-07
9.03557e-06
-2.03996e-07
9.03266e-06
-1.72185e-07
9.04086e-06
-6.30281e-08
9.045e-06
-3.35003e-09
9.04613e-06
1.36707e-08
9.05227e-06
1.25246e-08
9.06405e-06
3.87861e-08
9.07347e-06
6.35386e-08
9.07627e-06
7.61203e-08
7.81079e-08
9.07402e-06
9.53354e-06
-2.67553e-07
9.56051e-06
-6.75226e-08
9.55997e-06
-3.68535e-07
9.5101e-06
-7.47507e-07
9.47128e-06
-7.05276e-07
9.47348e-06
-3.98685e-07
9.4844e-06
-2.80843e-07
9.48726e-06
-2.88219e-07
9.48819e-06
-2.58783e-07
9.48252e-06
-2.09526e-07
9.47089e-06
-1.92364e-07
9.46725e-06
-1.68549e-07
9.47535e-06
-7.11245e-08
9.48012e-06
-8.12041e-09
9.47784e-06
1.59501e-08
9.47598e-06
1.43812e-08
9.47813e-06
3.66421e-08
9.4795e-06
6.21651e-08
9.47915e-06
7.64764e-08
7.08996e-08
9.48635e-06
9.9919e-06
-2.49321e-07
1.00142e-05
-8.9803e-08
1.00148e-05
-3.6912e-07
9.96764e-06
-7.00383e-07
9.92994e-06
-6.67574e-07
9.93059e-06
-3.99335e-07
9.94e-06
-2.90248e-07
9.94165e-06
-2.89873e-07
9.94177e-06
-2.58899e-07
9.93747e-06
-2.05224e-07
9.92675e-06
-1.81651e-07
9.92194e-06
-1.6374e-07
9.92921e-06
-7.83865e-08
9.93649e-06
-1.54046e-08
9.93963e-06
1.28109e-08
9.9437e-06
1.03117e-08
9.95558e-06
2.47647e-08
9.96767e-06
5.00723e-08
9.97213e-06
7.20189e-08
7.62452e-08
9.96678e-06
1.04722e-05
-2.32837e-07
1.049e-05
-1.07633e-07
1.04912e-05
-3.70286e-07
1.04472e-05
-6.56464e-07
1.04105e-05
-6.30875e-07
1.04096e-05
-3.98427e-07
1.04175e-05
-2.9808e-07
1.0418e-05
-2.90451e-07
1.04172e-05
-2.58072e-07
1.04139e-05
-2.01866e-07
1.04045e-05
-1.72291e-07
1.03993e-05
-1.58556e-07
1.04052e-05
-8.42758e-08
1.04106e-05
-2.08552e-08
1.04095e-05
1.39114e-08
1.04069e-05
1.29582e-08
1.04075e-05
2.41439e-08
1.04123e-05
4.53296e-08
1.04143e-05
6.99834e-08
7.14424e-08
1.04191e-05
1.09753e-05
-2.18097e-07
1.09891e-05
-1.2149e-07
1.09903e-05
-3.71402e-07
1.09498e-05
-6.15993e-07
1.09142e-05
-5.95278e-07
1.09115e-05
-3.95788e-07
1.09179e-05
-3.04447e-07
1.09175e-05
-2.90021e-07
1.09157e-05
-2.5626e-07
1.09128e-05
-1.98999e-07
1.09045e-05
-1.63964e-07
1.08981e-05
-1.52152e-07
1.09023e-05
-8.84805e-08
1.09075e-05
-2.61045e-08
1.09077e-05
1.3743e-08
1.0906e-05
1.46423e-08
1.09062e-05
2.39272e-08
1.09125e-05
3.90628e-08
1.0919e-05
6.34695e-08
7.0052e-08
1.09204e-05
1.15023e-05
-2.0506e-07
1.15127e-05
-1.31817e-07
1.15131e-05
-3.71868e-07
1.14763e-05
-5.79193e-07
1.1442e-05
-5.60999e-07
1.14375e-05
-3.91204e-07
1.14424e-05
-3.0939e-07
1.14412e-05
-2.88774e-07
1.14381e-05
-2.53197e-07
1.14351e-05
-1.96014e-07
1.1428e-05
-1.56814e-07
1.14209e-05
-1.45108e-07
1.14233e-05
-9.08438e-08
1.14288e-05
-3.16032e-08
1.14298e-05
1.27361e-08
1.14291e-05
1.53373e-08
1.14294e-05
2.35774e-08
1.14348e-05
3.36564e-08
1.14417e-05
5.65855e-08
6.72949e-08
1.14445e-05
1.20544e-05
-1.93605e-07
1.20618e-05
-1.39225e-07
1.20609e-05
-3.71005e-07
1.20278e-05
-5.46129e-07
1.19951e-05
-5.28298e-07
1.19886e-05
-3.84611e-07
1.1992e-05
-3.12849e-07
1.19901e-05
-2.8685e-07
1.19859e-05
-2.48979e-07
1.19826e-05
-1.92709e-07
1.19762e-05
-1.50455e-07
1.19689e-05
-1.37795e-07
1.19696e-05
-9.15518e-08
1.19754e-05
-3.73689e-08
1.19774e-05
1.06806e-08
1.19773e-05
1.55093e-08
1.19777e-05
2.31536e-08
1.19814e-05
2.99207e-08
1.19881e-05
4.99411e-08
6.25989e-08
1.19928e-05
1.26326e-05
-1.83582e-07
1.26376e-05
-1.44208e-07
1.26349e-05
-3.68327e-07
1.26055e-05
-5.1675e-07
1.25748e-05
-4.97597e-07
1.25661e-05
-3.75897e-07
1.25679e-05
-3.14648e-07
1.25656e-05
-2.84581e-07
1.25604e-05
-2.43737e-07
1.25562e-05
-1.88512e-07
1.25506e-05
-1.44874e-07
1.25437e-05
-1.30896e-07
1.25428e-05
-9.07084e-08
1.25483e-05
-4.28371e-08
1.25512e-05
7.75151e-09
1.25515e-05
1.53028e-08
1.2552e-05
2.265e-08
1.25548e-05
2.70926e-08
1.25608e-05
4.39624e-08
5.67118e-08
1.25666e-05
1.32381e-05
-1.74777e-07
1.32412e-05
-1.47283e-07
1.32365e-05
-3.63659e-07
1.32104e-05
-4.90602e-07
1.31821e-05
-4.69322e-07
1.31714e-05
-3.65197e-07
1.31713e-05
-3.14495e-07
1.31689e-05
-2.82194e-07
1.31629e-05
-2.3775e-07
1.31577e-05
-1.83344e-07
1.31526e-05
-1.39738e-07
1.31463e-05
-1.24614e-07
1.31442e-05
-8.86287e-08
1.31488e-05
-4.7414e-08
1.31527e-05
3.80777e-09
1.31535e-05
1.45197e-08
1.31542e-05
2.20223e-08
1.31564e-05
2.48617e-08
1.31613e-05
3.89958e-08
5.06325e-08
1.31674e-05
1.38724e-05
-1.66975e-07
1.38739e-05
-1.48834e-07
1.38672e-05
-3.56954e-07
1.38438e-05
-4.67185e-07
1.38183e-05
-4.438e-07
1.38058e-05
-3.52734e-07
1.38035e-05
-3.12151e-07
1.3801e-05
-2.79754e-07
1.3795e-05
-2.31686e-07
1.37888e-05
-1.77168e-07
1.37834e-05
-1.34339e-07
1.37778e-05
-1.19007e-07
1.37752e-05
-8.60283e-08
1.37789e-05
-5.11474e-08
1.37833e-05
-6.19723e-10
1.37846e-05
1.32808e-08
1.37852e-05
2.14137e-08
1.3787e-05
2.30145e-08
1.37912e-05
3.48118e-08
4.48232e-08
1.3797e-05
1.45366e-05
-1.59896e-07
1.4537e-05
-1.49263e-07
1.45283e-05
-3.48268e-07
1.4507e-05
-4.45823e-07
1.44843e-05
-4.21168e-07
1.44706e-05
-3.39011e-07
1.44659e-05
-3.07424e-07
1.44632e-05
-2.77096e-07
1.44578e-05
-2.26251e-07
1.44509e-05
-1.70296e-07
1.44449e-05
-1.28305e-07
1.44397e-05
-1.13833e-07
1.44368e-05
-8.30948e-08
1.44394e-05
-5.38039e-08
1.44443e-05
-5.47579e-09
1.4446e-05
1.15357e-08
1.44468e-05
2.06782e-08
1.44484e-05
2.1398e-08
1.44519e-05
3.13026e-08
3.94886e-08
1.44572e-05
1.52322e-05
-1.53251e-07
1.5232e-05
-1.49062e-07
1.52213e-05
-3.37529e-07
1.52015e-05
-4.26058e-07
1.51816e-05
-4.01209e-07
1.51672e-05
-3.24606e-07
1.516e-05
-3.00222e-07
1.51566e-05
-2.73762e-07
1.51523e-05
-2.21927e-07
1.51456e-05
-1.63594e-07
1.51387e-05
-1.21377e-07
1.51334e-05
-1.0859e-07
1.51304e-05
-8.00224e-08
1.51321e-05
-5.55337e-08
1.51371e-05
-1.04574e-08
1.51395e-05
9.15189e-09
1.51403e-05
1.98479e-08
1.51416e-05
2.01062e-08
1.51443e-05
2.85455e-08
3.46261e-08
1.51492e-05
1.59609e-05
-1.46777e-07
1.59604e-05
-1.48621e-07
1.59478e-05
-3.24936e-07
1.59288e-05
-4.07041e-07
1.59112e-05
-3.83563e-07
1.58967e-05
-3.10105e-07
1.58872e-05
-2.90749e-07
1.58825e-05
-2.69062e-07
1.58796e-05
-2.18998e-07
1.58739e-05
-1.57985e-07
1.58663e-05
-1.13726e-07
1.58607e-05
-1.02948e-07
1.58574e-05
-7.68158e-08
1.58583e-05
-5.63402e-08
1.5863e-05
-1.51953e-08
1.5866e-05
6.12055e-09
1.5867e-05
1.88316e-08
1.58682e-05
1.89025e-08
1.58704e-05
2.64301e-08
3.02391e-08
1.58747e-05
1.67241e-05
-1.40305e-07
1.67236e-05
-1.48055e-07
1.67096e-05
-3.1098e-07
1.66904e-05
-3.87806e-07
1.66749e-05
-3.68065e-07
1.66605e-05
-2.95751e-07
1.66491e-05
-2.79372e-07
1.66424e-05
-2.62269e-07
1.66406e-05
-2.1726e-07
1.6637e-05
-1.54419e-07
1.66294e-05
-1.06032e-07
1.6623e-05
-9.65884e-08
1.66196e-05
-7.34032e-08
1.66195e-05
-5.62783e-08
1.66237e-05
-1.93534e-08
1.66273e-05
2.46973e-09
1.66288e-05
1.7402e-08
1.663e-05
1.76634e-08
1.66316e-05
2.48448e-08
2.66798e-08
1.66351e-05
1.75238e-05
-1.33698e-07
1.7523e-05
-1.47311e-07
1.75082e-05
-2.96202e-07
1.74882e-05
-3.67766e-07
1.74742e-05
-3.54107e-07
1.74609e-05
-2.82434e-07
1.74481e-05
-2.66547e-07
1.74387e-05
-2.5286e-07
1.74366e-05
-2.15222e-07
1.74358e-05
-1.53623e-07
1.74292e-05
-9.94289e-08
1.74222e-05
-8.95269e-08
1.74184e-05
-6.96178e-08
1.74176e-05
-5.55213e-08
1.7421e-05
-2.26856e-08
1.7425e-05
-1.51056e-09
1.74268e-05
1.55655e-08
1.74282e-05
1.62651e-08
1.74296e-05
2.34386e-08
2.41102e-08
1.74322e-05
1.83615e-05
-1.2688e-07
1.83605e-05
-1.46291e-07
1.83453e-05
-2.81033e-07
1.83244e-05
-3.46777e-07
1.83112e-05
-3.4093e-07
1.82993e-05
-2.70591e-07
1.82861e-05
-2.53307e-07
1.82743e-05
-2.41072e-07
1.82698e-05
-2.1076e-07
1.82714e-05
-1.55157e-07
1.82673e-05
-9.53289e-08
1.826e-05
-8.22962e-08
1.82556e-05
-6.52074e-08
1.82543e-05
-5.41681e-08
1.82567e-05
-2.51018e-08
1.82607e-05
-5.50141e-09