/*--------------------------------*- C++ -*----------------------------------*\
| =========                 |                                                 |
| \\      /  F ield         | OpenFOAM: The Open Source CFD Toolbox           |
|  \\    /   O peration     | Version:  v1912                                 |
|   \\  /    A nd           | Website:  www.openfoam.com                      |
|    \\/     M anipulation  |                                                 |
\*---------------------------------------------------------------------------*/
FoamFile
{
    version     2.0;
    format      ascii;
    class       volVectorField;
    location    "8";
    object      U;
}
// * * * * * * * * * * * * * * * * * * * * * * * * * * * * * * * * * * * * * //

dimensions      [0 1 -1 0 0 0 0];


internalField   nonuniform List<vector> 
9600
(
(0.68882 -0.00575495 0)
(1.34541 0.0208147 0)
(0.606336 -0.02351 0)
(1.27375 -0.0294482 0)
(0.91961 -0.0164531 0)
(1.29282 0.0260842 0)
(0.816393 0.00235683 0)
(1.27552 -0.00470882 0)
(0.869368 -0.0228082 0)
(1.28808 -0.0174371 0)
(0.909591 -0.0178035 0)
(1.25564 0.00167211 0)
(0.823508 0.00433634 0)
(1.17155 0.0128512 0)
(0.904148 0.00043861 0)
(1.16842 0.0061013 0)
(0.936305 -0.000158069 0)
(1.19581 0.00289544 0)
(0.938604 -0.000932439 0)
(1.21003 0.0014199 0)
(0.705808 -0.00624747 0)
(1.33055 0.0215732 0)
(0.703473 -0.0231057 0)
(1.23023 -0.0323075 0)
(0.927192 -0.0172056 0)
(1.27743 0.0269891 0)
(0.877735 0.00218339 0)
(1.24751 -0.00498926 0)
(0.922876 -0.0235211 0)
(1.26026 -0.0177526 0)
(0.954164 -0.0177496 0)
(1.23721 0.00368846 0)
(0.876367 0.00586339 0)
(1.13131 0.0116572 0)
(0.96746 0.000204534 0)
(1.11601 0.00546419 0)
(1.01544 -0.00113551 0)
(1.11893 0.00230617 0)
(1.04869 -0.00071114 0)
(1.09546 0.00121385 0)
(0.737271 -0.00666285 0)
(1.30235 0.0219843 0)
(0.787961 -0.0225318 0)
(1.16385 -0.033349 0)
(0.941085 -0.017814 0)
(1.24616 0.0278055 0)
(0.954667 0.00233017 0)
(1.20833 -0.00514744 0)
(0.972854 -0.0238228 0)
(1.20519 -0.0179845 0)
(1.00861 -0.0176133 0)
(1.19707 0.00506458 0)
(0.954602 0.0076201 0)
(1.08169 0.0100243 0)
(1.02391 0.000502264 0)
(1.07598 0.00422128 0)
(1.05759 -0.00079299 0)
(1.08678 0.00116854 0)
(1.07859 0.000408358 0)
(1.08309 0.00117405 0)
(0.7801 -0.00705991 0)
(1.26109 0.0218113 0)
(0.865537 -0.0215223 0)
(1.08885 -0.0343193 0)
(0.9575 -0.0188178 0)
(1.20662 0.0276914 0)
(1.02682 0.00261881 0)
(1.16936 -0.00509018 0)
(1.01253 -0.0237144 0)
(1.14155 -0.0184723 0)
(1.04731 -0.017584 0)
(1.15023 0.0057709 0)
(1.01584 0.00943745 0)
(1.05489 0.00904056 0)
(1.04796 0.000409062 0)
(1.06378 0.00353618 0)
(1.06747 -0.00106967 0)
(1.08083 0.000520072 0)
(1.08282 0.000421572 0)
(1.08548 0.00127031 0)
(0.829031 -0.00745614 0)
(1.21175 0.0213081 0)
(0.923673 -0.0201173 0)
(1.02043 -0.0348765 0)
(0.970767 -0.0201325 0)
(1.16958 0.0267948 0)
(1.08301 0.00299216 0)
(1.14009 -0.00469798 0)
(1.03491 -0.0231353 0)
(1.08744 -0.0189603 0)
(1.05938 -0.0177599 0)
(1.1105 0.00607141 0)
(1.04796 0.0109305 0)
(1.05052 0.00870573 0)
(1.05457 0.000182592 0)
(1.06231 0.00300281 0)
(1.06937 -0.00128998 0)
(1.07797 -0.000197342 0)
(1.08273 0.000591698 0)
(1.08421 0.00137808 0)
(0.877521 -0.00783244 0)
(1.1611 0.0207263 0)
(0.962493 -0.0185531 0)
(0.971925 -0.0352093 0)
(0.977467 -0.021781 0)
(1.14319 0.0253894 0)
(1.12015 0.00334862 0)
(1.1231 -0.00392328 0)
(1.04348 -0.0221646 0)
(1.05059 -0.0192987 0)
(1.05122 -0.0180809 0)
(1.08062 0.00602213 0)
(1.05915 0.0118429 0)
(1.05526 0.00868387 0)
(1.05745 2.99121e-05 0)
(1.06238 0.00248275 0)
(1.06954 -0.00143311 0)
(1.07425 -0.000816039 0)
(1.07915 0.000652193 0)
(1.07978 0.00148712 0)
(0.919391 -0.00817525 0)
(1.11563 0.020171 0)
(0.986373 -0.0169707 0)
(0.948104 -0.0353248 0)
(0.977369 -0.023686 0)
(1.12896 0.0236018 0)
(1.1401 0.00365066 0)
(1.11436 -0.00281801 0)
(1.04453 -0.0208719 0)
(1.02839 -0.0193775 0)
(1.03447 -0.0184336 0)
(1.05763 0.00557579 0)
(1.05964 0.0121617 0)
(1.0607 0.00867505 0)
(1.06048 1.85834e-05 0)
(1.06268 0.00202866 0)
(1.06833 -0.00147532 0)
(1.06935 -0.00127064 0)
(1.07246 0.000693281 0)
(1.07223 0.00171671 0)
(0.950674 -0.00847916 0)
(1.07942 0.0197077 0)
(1.00126 -0.0155311 0)
(0.944867 -0.0352548 0)
(0.972705 -0.0257405 0)
(1.12218 0.0215134 0)
(1.14586 0.00396616 0)
(1.10769 -0.00149122 0)
(1.04228 -0.019342 0)
(1.01508 -0.0191953 0)
(1.01728 -0.0187467 0)
(1.03915 0.00475436 0)
(1.05582 0.0119508 0)
(1.06404 0.00852994 0)
(1.0628 0.000116989 0)
(1.0624 0.00170988 0)
(1.0655 -0.00136218 0)
(1.0628 -0.00149769 0)
(1.06317 0.000810878 0)
(1.06175 0.00208205 0)
(0.970582 -0.00873411 0)
(1.05342 0.0193273 0)
(1.01154 -0.0143022 0)
(0.953588 -0.0349798 0)
(0.966518 -0.0277999 0)
(1.1158 0.0192344 0)
(1.13992 0.00434913 0)
(1.09849 -7.92294e-05 0)
(1.03821 -0.01768 0)
(1.00653 -0.0187946 0)
(1.00309 -0.0189758 0)
(1.02432 0.00362174 0)
(1.0505 0.0112924 0)
(1.06436 0.00822021 0)
(1.06246 0.000297448 0)
(1.0598 0.00155081 0)
(1.06018 -0.00106443 0)
(1.05421 -0.00144872 0)
(1.05162 0.00105237 0)
(1.04891 0.00255632 0)
(0.981138 -0.0089303 0)
(1.03613 0.0189745 0)
(1.01915 -0.0133144 0)
(0.966501 -0.0345045 0)
(0.961283 -0.0296834 0)
(1.10446 0.0169108 0)
(1.12456 0.00479459 0)
(1.08506 0.00128378 0)
(1.03255 -0.0160064 0)
(1.00077 -0.0182419 0)
(0.992742 -0.0190981 0)
(1.01255 0.00226586 0)
(1.04397 0.0103086 0)
(1.06079 0.0078018 0)
(1.05791 0.000565196 0)
(1.05339 0.00154908 0)
(1.05167 -0.000603309 0)
(1.04363 -0.00113088 0)
(1.03853 0.00141988 0)
(1.03481 0.0031266 0)
(0.985752 -0.00906165 0)
(1.02496 0.0185896 0)
(1.02428 -0.0125612 0)
(0.978981 -0.0338637 0)
(0.958356 -0.0312499 0)
(1.08629 0.0146995 0)
(1.10246 0.00526172 0)
(1.06814 0.00248714 0)
(1.0255 -0.0144399 0)
(0.996894 -0.0176162 0)
(0.986087 -0.0191086 0)
(1.003 0.000806615 0)
(1.03551 0.00915309 0)
(1.05272 0.00735303 0)
(1.04885 0.000920172 0)
(1.04307 0.00168009 0)
(1.04034 -4.58945e-05 0)
(1.03177 -0.000631521 0)
(1.02519 0.00187897 0)
(1.021 0.00376836 0)
(0.987606 -0.00912929 0)
(1.01744 0.0181447 0)
(1.02676 -0.0120153 0)
(0.989016 -0.0331218 0)
(0.958069 -0.0324131 0)
(1.0627 0.0127279 0)
(1.077 0.00570482 0)
(1.04983 0.00344837 0)
(1.01775 -0.0130713 0)
(0.994302 -0.0170017 0)
(0.982498 -0.0189951 0)
(0.994996 -0.000596197 0)
(1.02491 0.00798235 0)
(1.04084 0.00693184 0)
(1.03661 0.00132585 0)
(1.03041 0.00189387 0)
(1.02776 0.000505797 0)
(1.01994 -5.22435e-05 0)
(1.01304 0.00238788 0)
(1.009 0.00442578 0)
(0.988702 -0.00914023 0)
(1.01193 0.0176478 0)
(1.02695 -0.0116308 0)
(0.996075 -0.0323523 0)
(0.959987 -0.0331325 0)
(1.03721 0.0110676 0)
(1.05186 0.00606213 0)
(1.03257 0.00411823 0)
(1.01022 -0.0119509 0)
(0.992517 -0.0164651 0)
(0.981089 -0.0187464 0)
(0.988388 -0.00180375 0)
(1.01333 0.00692453 0)
(1.02724 0.00655448 0)
(1.02365 0.0017309 0)
(1.0178 0.00212854 0)
(1.01594 0.000983149 0)
(1.00951 0.000518861 0)
(1.00315 0.00288588 0)
(0.999747 0.0050234 0)
(0.989832 -0.0091057 0)
(1.0076 0.0171265 0)
(1.0257 -0.0113592 0)
(1.0004 -0.0316086 0)
(0.963176 -0.0334293 0)
(1.01387 0.00973219 0)
(1.03022 0.00627933 0)
(1.01826 0.00449176 0)
(1.00378 -0.0110774 0)
(0.991203 -0.0160402 0)
(0.980951 -0.0183831 0)
(0.983443 -0.00275864 0)
(1.00273 0.00604093 0)
(1.01463 0.00620841 0)
(1.01241 0.00207433 0)
(1.00737 0.00233753 0)
(1.00645 0.0013634 0)
(1.00139 0.00101894 0)
(0.995939 0.00332705 0)
(0.993341 0.00551711 0)
(0.991085 -0.00903656 0)
(1.00422 0.0166068 0)
(1.02388 -0.0111609 0)
(1.0026 -0.0309144 0)
(0.966582 -0.033368 0)
(0.99557 0.00868452 0)
(1.0139 0.00635684 0)
(1.0078 0.004611 0)
(0.998933 -0.0104071 0)
(0.990206 -0.0157282 0)
(0.981362 -0.0179413 0)
(0.98032 -0.00346943 0)
(0.994705 0.00532763 0)
(1.00492 0.00587597 0)
(1.00425 0.00231815 0)
(1.0001 0.00250778 0)
(0.999862 0.00165916 0)
(0.995811 0.00143354 0)
(0.991195 0.0037054 0)
(0.9893 0.00590614 0)
(0.99234 -0.00894009 0)
(1.00169 0.0160956 0)
(1.02202 -0.0110041 0)
(1.0034 -0.0302694 0)
(0.969417 -0.0330306 0)
(0.983177 0.0078605 0)
(1.00305 0.00631263 0)
(1.00105 0.00453498 0)
(0.995785 -0.00987834 0)
(0.989518 -0.0155025 0)
(0.981869 -0.0174567 0)
(0.97877 -0.00399464 0)
(0.989677 0.00474107 0)
(0.998621 0.00554473 0)
(0.9992 0.00246819 0)
(0.995747 0.00265102 0)
(0.995844 0.00191175 0)
(0.992395 0.0017772 0)
(0.988378 0.00403344 0)
(0.986938 0.00621314 0)
(0.993498 -0.00882294 0)
(0.999901 0.0155912 0)
(1.02035 -0.0108653 0)
(1.00339 -0.0296552 0)
(0.971355 -0.0324999 0)
(0.975811 0.00717627 0)
(0.996651 0.00618501 0)
(0.997303 0.00432401 0)
(0.994105 -0.00943487 0)
(0.989185 -0.015323 0)
(0.982276 -0.0169551 0)
(0.978237 -0.00440124 0)
(0.987015 0.00422844 0)
(0.995047 0.00521571 0)
(0.996387 0.00254924 0)
(0.993391 0.00278034 0)
(0.993581 0.00215418 0)
(0.990482 0.00207874 0)
(0.986871 0.00432644 0)
(0.985644 0.00646221 0)
(0.994512 -0.00869085 0)
(0.998733 0.0150908 0)
(1.01891 -0.0107275 0)
(1.00297 -0.0290579 0)
(0.97245 -0.0318424 0)
(0.971895 0.00656281 0)
(0.993278 0.00599408 0)
(0.995644 0.004021 0)
(0.993498 -0.0090369 0)
(0.989225 -0.0151507 0)
(0.982561 -0.0164496 0)
(0.978181 -0.00473575 0)
(0.985714 0.00374598 0)
(0.993095 0.00489509 0)
(0.994788 0.00258879 0)
(0.992075 0.00290216 0)
(0.992261 0.00240094 0)
(0.989423 0.00236146 0)
(0.986154 0.00459263 0)
(0.984988 0.0066715 0)
(0.995355 -0.00854866 0)
(0.998064 0.0145912 0)
(1.01765 -0.0105768 0)
(1.00236 -0.0284684 0)
(0.972933 -0.0311048 0)
(0.970035 0.00597422 0)
(0.991713 0.00575392 0)
(0.995306 0.00365569 0)
(0.993544 -0.0086576 0)
(0.989589 -0.0149576 0)
(0.982782 -0.0159399 0)
(0.978283 -0.00502194 0)
(0.98497 0.0032703 0)
(0.991852 0.00458726 0)
(0.993659 0.00261128 0)
(0.991146 0.00301624 0)
(0.991327 0.00265231 0)
(0.988748 0.002628 0)
(0.985862 0.00482913 0)
(0.984703 0.00685254 0)
(0.99601 -0.00839977 0)
(0.997801 0.0140904 0)
(1.01655 -0.0104094 0)
(1.00172 -0.0278751 0)
(0.973041 -0.0303137 0)
(0.969344 0.0053788 0)
(0.991149 0.00547491 0)
(0.995732 0.00324932 0)
(0.993889 -0.00828318 0)
(0.990175 -0.0147261 0)
(0.983 -0.0154235 0)
(0.97845 -0.00526576 0)
(0.98437 0.00279799 0)
(0.990811 0.00429227 0)
(0.992628 0.00263094 0)
(0.990298 0.00312169 0)
(0.990518 0.00290139 0)
(0.988207 0.00287079 0)
(0.98578 0.00502691 0)
(0.984642 0.00701066 0)
(0.996479 -0.00824714 0)
(0.997858 0.0135853 0)
(1.01553 -0.01022 0)
(1.00112 -0.0272705 0)
(0.97297 -0.0294907 0)
(0.969361 0.0047563 0)
(0.991118 0.00515353 0)
(0.99655 0.00281482 0)
(0.994283 -0.00790785 0)
(0.990868 -0.0144482 0)
(0.983257 -0.0148999 0)
(0.978707 -0.00546585 0)
(0.983809 0.00233367 0)
(0.9898 0.00400708 0)
(0.991604 0.0026515 0)
(0.989459 0.00321813 0)
(0.989781 0.00314484 0)
(0.987728 0.00308623 0)
(0.985817 0.00517241 0)
(0.98474 0.00714345 0)
(0.996778 -0.0080927 0)
(0.998159 0.0130725 0)
(1.01453 -0.0100038 0)
(1.00062 -0.0266536 0)
(0.972876 -0.028651 0)
(0.969852 0.00409553 0)
(0.991355 0.00479308 0)
(0.997512 0.00236586 0)
(0.994584 -0.00752934 0)
(0.991569 -0.0141228 0)
(0.983576 -0.0143722 0)
(0.979091 -0.00561378 0)
(0.983326 0.00188981 0)
(0.988831 0.00373072 0)
(0.990639 0.00267122 0)
(0.988675 0.00329802 0)
(0.989167 0.00337626 0)
(0.987343 0.00327791 0)
(0.985956 0.00525094 0)
(0.984979 0.00723841 0)
(0.996934 -0.00793806 0)
(0.998628 0.0125519 0)
(1.0135 -0.00976127 0)
(1.00022 -0.0260253 0)
(0.97288 -0.0278005 0)
(0.970669 0.00339844 0)
(0.99169 0.00439861 0)
(0.998445 0.00191393 0)
(0.994749 -0.00714777 0)
(0.992223 -0.0137529 0)
(0.983975 -0.0138453 0)
(0.979607 -0.00570887 0)
(0.982991 0.00147734 0)
(0.987979 0.00346422 0)
(0.989824 0.00268803 0)
(0.988029 0.00335306 0)
(0.988744 0.00358229 0)
(0.987111 0.00345305 0)
(0.986206 0.00525944 0)
(0.985348 0.00727836 0)
(0.996969 -0.0077839 0)
(0.999197 0.0120219 0)
(1.01245 -0.00948945 0)
(0.999913 -0.0253861 0)
(0.973074 -0.0269497 0)
(0.971677 0.002667 0)
(0.992004 0.00397224 0)
(0.999234 0.0014658 0)
(0.994805 -0.00676793 0)
(0.99281 -0.0133434 0)
(0.984464 -0.0133232 0)
(0.980215 -0.00576049 0)
(0.982837 0.00109775 0)
(0.987307 0.00320721 0)
(0.989226 0.00270331 0)
(0.987592 0.00338291 0)
(0.988549 0.00375385 0)
(0.987073 0.00361502 0)
(0.986569 0.00521282 0)
(0.98583 0.00724852 0)
(0.996901 -0.00763042 0)
(0.999803 0.0114823 0)
(1.01146 -0.00918858 0)
(0.999675 -0.0247401 0)
(0.973508 -0.0260944 0)
(0.972758 0.00191413 0)
(0.992219 0.00351836 0)
(0.999804 0.00102552 0)
(0.994807 -0.00639537 0)
(0.993328 -0.0128998 0)
(0.985044 -0.0128109 0)
(0.980857 -0.00576625 0)
(0.982849 0.000754285 0)
(0.986838 0.00295468 0)
(0.98886 0.00272068 0)
(0.987401 0.00338816 0)
(0.988575 0.00388878 0)
(0.98724 0.00376408 0)
(0.987029 0.00513557 0)
(0.986396 0.00714798 0)
(0.996746 -0.00747741 0)
(1.00038 0.0109321 0)
(1.01059 -0.00885838 0)
(0.999503 -0.0240917 0)
(0.974199 -0.0252389 0)
(0.97383 0.0011557 0)
(0.992297 0.00303963 0)
(1.00011 0.000591842 0)
(0.994796 -0.006036 0)
(0.993777 -0.0124264 0)
(0.985704 -0.0123055 0)
(0.98149 -0.00572906 0)
(0.982982 0.000448027 0)
(0.986554 0.00269545 0)
(0.988687 0.00273758 0)
(0.987453 0.00336897 0)
(0.988781 0.00398266 0)
(0.987599 0.0039021 0)
(0.987567 0.00505032 0)
(0.987026 0.00699314 0)
(0.99653 -0.00732281 0)
(1.00085 0.0103684 0)
(1.00991 -0.00850099 0)
(0.999411 -0.0234419 0)
(0.975124 -0.0243896 0)
(0.974854 0.000403753 0)
(0.992225 0.00254266 0)
(1.00014 0.00016442 0)
(0.994769 -0.00569969 0)
(0.994143 -0.0119275 0)
(0.986421 -0.0118054 0)
(0.9821 -0.00565584 0)
(0.983186 0.000178471 0)
(0.986423 0.00242149 0)
(0.988641 0.00274403 0)
(0.987702 0.00332857 0)
(0.989105 0.00402828 0)
(0.988113 0.00402893 0)
(0.988159 0.00497586 0)
(0.987706 0.00680808 0)
(0.996294 -0.00716263 0)
(1.00114 0.00978516 0)
(1.00943 -0.00812238 0)
(0.999423 -0.0227913 0)
(0.976223 -0.0235407 0)
(0.975823 -0.000324891 0)
(0.99201 0.00203184 0)
(0.99987 -0.000259822 0)
(0.994693 -0.0053963 0)
(0.994395 -0.0114082 0)
(0.987161 -0.0113133 0)
(0.982706 -0.00554923 0)
(0.983433 -5.19389e-05 0)
(0.986414 0.00213307 0)
(0.988655 0.00273239 0)
(0.988082 0.00327481 0)
(0.98948 0.00402397 0)
(0.988727 0.00413181 0)
(0.988772 0.00492489 0)
(0.988416 0.00661889 0)
(0.996088 -0.00699387 0)
(1.0012 0.00917904 0)
(1.0091 -0.00773057 0)
(0.999557 -0.0221361 0)
(0.977414 -0.0226942 0)
(0.976749 -0.00101496 0)
(0.991678 0.00151331 0)
(0.999331 -0.000685939 0)
(0.994526 -0.00513716 0)
(0.994503 -0.0108739 0)
(0.987888 -0.0108291 0)
(0.983333 -0.00541684 0)
(0.983714 -0.000244399 0)
(0.986511 0.00183115 0)
(0.98869 0.00269649 0)
(0.988521 0.0032149 0)
(0.989848 0.00397695 0)
(0.989374 0.00419247 0)
(0.989373 0.00488996 0)
(0.989126 0.00645245 0)
(0.995954 -0.00681132 0)
(1.00104 0.00854797 0)
(1.00885 -0.00733718 0)
(0.999809 -0.0214735 0)
(0.978617 -0.02185 0)
(0.977651 -0.00165549 0)
(0.991277 0.000998824 0)
(0.998583 -0.00111495 0)
(0.994249 -0.00492783 0)
(0.994453 -0.0103352 0)
(0.988568 -0.0103533 0)
(0.983998 -0.00526666 0)
(0.984032 -0.000396822 0)
(0.986704 0.00151893 0)
(0.988738 0.00262654 0)
(0.988967 0.00315256 0)
(0.990172 0.00389908 0)
(0.989992 0.00421097 0)
(0.98993 0.00484681 0)
(0.989797 0.00631169 0)
(0.995919 -0.00661179 0)
(1.00069 0.00789324 0)
(1.0086 -0.00695462 0)
(1.00015 -0.0208007 0)
(0.979769 -0.0210037 0)
(0.978547 -0.00224308 0)
(0.99087 0.000496438 0)
(0.99772 -0.00154092 0)
(0.993874 -0.00476797 0)
(0.994252 -0.00980118 0)
(0.989174 -0.00989877 0)
(0.984695 -0.0051074 0)
(0.98439 -0.000502551 0)
(0.986981 0.00121155 0)
(0.988811 0.00251461 0)
(0.989389 0.00308779 0)
(0.990445 0.00379924 0)
(0.990539 0.00419699 0)
(0.990423 0.00478606 0)
(0.990403 0.00617732 0)
(0.995988 -0.00639367 0)
(1.00022 0.0072203 0)
(1.00827 -0.00659718 0)
(1.00051 -0.020116 0)
(0.980843 -0.0201541 0)
(0.979451 -0.00277409 0)
(0.990522 7.08083e-06 0)
(0.996848 -0.0019599 0)
(0.99344 -0.00465914 0)
(0.993932 -0.00927518 0)
(0.989696 -0.00946893 0)
(0.985409 -0.00495456 0)
(0.984785 -0.000565798 0)
(0.98732 0.000926162 0)
(0.988926 0.00236552 0)
(0.989775 0.00302107 0)
(0.990673 0.00368505 0)
(0.990997 0.00415244 0)
(0.990844 0.00471589 0)
(0.990929 0.00602812 0)
(0.996143 -0.00615657 0)
(0.999731 0.00653483 0)
(1.00785 -0.00626758 0)
(1.00083 -0.019419 0)
(0.981839 -0.0193079 0)
(0.980368 -0.00324841 0)
(0.990279 -0.000460443 0)
(0.99606 -0.00236875 0)
(0.992998 -0.00459874 0)
(0.993543 -0.00876747 0)
(0.990133 -0.00905482 0)
(0.986117 -0.00481541 0)
(0.985206 -0.000599118 0)
(0.987691 0.000667306 0)
(0.989092 0.00218474 0)
(0.990121 0.00295754 0)
(0.990868 0.00357074 0)
(0.99137 0.00406949 0)
(0.991199 0.00464112 0)
(0.991379 0.00586031 0)
(0.996356 -0.00590191 0)
(0.999292 0.00584408 0)
(1.00732 -0.0059698 0)
(1.00106 -0.0187072 0)
(0.982772 -0.0184707 0)
(0.9813 -0.00367382 0)
(0.990162 -0.000898123 0)
(0.995414 -0.00275754 0)
(0.99259 -0.00457593 0)
(0.993133 -0.00828704 0)
(0.990495 -0.00866598 0)
(0.986803 -0.00469774 0)
(0.985638 -0.00060697 0)
(0.988065 0.000445036 0)
(0.989308 0.00197235 0)
(0.990433 0.00289104 0)
(0.991038 0.00348049 0)
(0.99167 0.00395165 0)
(0.991503 0.00455263 0)
(0.991762 0.00568392 0)
(0.996597 -0.00563454 0)
(0.998953 0.0051598 0)
(1.00672 -0.00570694 0)
(1.00117 -0.0179835 0)
(0.98366 -0.0176455 0)
(0.982242 -0.00405579 0)
(0.990166 -0.00131232 0)
(0.994932 -0.00312151 0)
(0.992244 -0.0045801 0)
(0.992745 -0.00782462 0)
(0.990797 -0.0083002 0)
(0.98746 -0.00461093 0)
(0.986067 -0.000601894 0)
(0.988413 0.000271843 0)
(0.989562 0.00173723 0)
(0.990724 0.00280215 0)
(0.99119 0.00342364 0)
(0.991909 0.00382559 0)
(0.991773 0.00443915 0)
(0.992095 0.00550873 0)
(0.996839 -0.00535778 0)
(0.998733 0.00448793 0)
(1.00609 -0.00547394 0)
(1.00115 -0.017252 0)
(0.984516 -0.0168368 0)
(0.983185 -0.00439792 0)
(0.990269 -0.00170278 0)
(0.994607 -0.00345675 0)
(0.991972 -0.0046105 0)
(0.992405 -0.00738356 0)
(0.991053 -0.00794534 0)
(0.988088 -0.00455094 0)
(0.986488 -0.000596185 0)
(0.988718 0.000147438 0)
(0.989837 0.00149337 0)
(0.991004 0.00268468 0)
(0.991333 0.00339038 0)
(0.992097 0.00370861 0)
(0.992023 0.00428754 0)
(0.992394 0.00532051 0)
(0.997067 -0.00507469 0)
(0.998626 0.00383108 0)
(1.00546 -0.00526698 0)
(1.00103 -0.0165124 0)
(0.985344 -0.016054 0)
(0.984118 -0.00470458 0)
(0.990442 -0.00207197 0)
(0.994412 -0.00376214 0)
(0.991774 -0.00465495 0)
(0.992126 -0.00696833 0)
(0.991275 -0.00760304 0)
(0.988691 -0.00452033 0)
(0.986899 -0.000600256 0)
(0.988972 7.1276e-05 0)
(0.990117 0.00124922 0)
(0.991281 0.00253734 0)
(0.991473 0.00338641 0)
(0.992235 0.00363445 0)
(0.992252 0.00411378 0)
(0.99268 0.00508962 0)
(0.997274 -0.00479056 0)
(0.99861 0.00319751 0)
(1.00485 -0.0050883 0)
(1.00084 -0.0157669 0)
(0.986141 -0.0152926 0)
(0.985031 -0.0049812 0)
(0.99066 -0.00242581 0)
(0.994315 -0.00403627 0)
(0.991644 -0.00471299 0)
(0.991905 -0.00657619 0)
(0.991471 -0.00726346 0)
(0.989275 -0.00450938 0)
(0.98731 -0.000624674 0)
(0.989177 4.42975e-05 0)
(0.990386 0.0010221 0)
(0.991568 0.00233566 0)
(0.991623 0.00336767 0)
(0.992328 0.00360941 0)
(0.992448 0.00396684 0)
(0.992954 0.0048268 0)
(0.997461 -0.00450982 0)
(0.998657 0.00259223 0)
(1.00427 -0.00492263 0)
(1.00061 -0.0150275 0)
(0.986908 -0.0145628 0)
(0.985915 -0.00521649 0)
(0.990905 -0.0027731 0)
(0.994286 -0.00427399 0)
(0.991572 -0.0047697 0)
(0.991738 -0.00621575 0)
(0.991646 -0.00692649 0)
(0.989843 -0.00451573 0)
(0.98773 -0.000671951 0)
(0.989342 5.21805e-05 0)
(0.990628 0.000840723 0)
(0.991859 0.00211702 0)
(0.991795 0.00331677 0)
(0.992394 0.00359929 0)
(0.992602 0.0038586 0)
(0.993211 0.0045373 0)
(0.997632 -0.00423051 0)
(0.99874 0.00200919 0)
(1.00374 -0.0047845 0)
(1.00037 -0.0142694 0)
(0.987646 -0.01387 0)
(0.986764 -0.00543184 0)
(0.991162 -0.00308647 0)
(0.9943 -0.00449683 0)
(0.991548 -0.00482666 0)
(0.991613 -0.00586844 0)
(0.9918 -0.00658819 0)
(0.990397 -0.0045319 0)
(0.988169 -0.000753855 0)
(0.989485 8.75822e-05 0)
(0.990843 0.000685217 0)
(0.992156 0.00187619 0)
(0.991986 0.00325016 0)
(0.992437 0.00361279 0)
(0.992702 0.00379744 0)
(0.993424 0.00427763 0)
(0.997792 -0.00396218 0)
(0.998839 0.00147343 0)
(1.00326 -0.00467085 0)
(1.00015 -0.0135331 0)
(0.988352 -0.0131885 0)
(0.98758 -0.00561409 0)
(0.991425 -0.00339632 0)
(0.994335 -0.00466748 0)
(0.99157 -0.00490747 0)
(0.991527 -0.00556553 0)
(0.991931 -0.0062375 0)
(0.99093 -0.00455492 0)
(0.988633 -0.000869752 0)
(0.989617 0.00013381 0)
(0.991019 0.000611024 0)
(0.992463 0.00161549 0)
(0.992219 0.00313721 0)
(0.992476 0.00363957 0)
(0.992752 0.00378058 0)
(0.993572 0.00405268 0)
(0.997946 -0.0037007 0)
(0.998944 0.000962699 0)
(1.0028 -0.00456797 0)
(0.999943 -0.0127875 0)
(0.989036 -0.0125513 0)
(0.988356 -0.00576552 0)
(0.991692 -0.00368612 0)
(0.994383 -0.00483605 0)
(0.991621 -0.00494704 0)
(0.991478 -0.00530374 0)
(0.992043 -0.00589622 0)
(0.991438 -0.00455157 0)
(0.989124 -0.00103087 0)
(0.989764 0.000151569 0)
(0.99116 0.000558284 0)
(0.992755 0.00139329 0)
(0.99249 0.0029902 0)
(0.992527 0.00370725 0)
(0.992744 0.00387903 0)
(0.993628 0.00393009 0)
(0.998093 -0.00344902 0)
(0.999048 0.00049978 0)
(1.00239 -0.00449833 0)
(0.999761 -0.0120593 0)
(0.98969 -0.0119362 0)
(0.989105 -0.00588693 0)
(0.991957 -0.00395034 0)
(0.994441 -0.00497394 0)
(0.991709 -0.00500754 0)
(0.991452 -0.0050548 0)
(0.992141 -0.00555992 0)
(0.991916 -0.00455558 0)
(0.989632 -0.00119905 0)
(0.989922 0.000145631 0)
(0.991275 0.000529597 0)
(0.993048 0.0011147 0)
(0.992819 0.00264432 0)
(0.992633 0.00359668 0)
(0.992702 0.00385053 0)
(0.993561 0.0038626 0)
(0.998237 -0.00321322 0)
(0.999149 8.42865e-05 0)
(1.002 -0.00445003 0)
(0.999603 -0.0113404 0)
(0.990326 -0.0113412 0)
(0.989817 -0.0059867 0)
(0.992227 -0.00419804 0)
(0.994502 -0.00506578 0)
(0.99182 -0.00506695 0)
(0.991464 -0.00486063 0)
(0.992214 -0.00521579 0)
(0.992366 -0.0045124 0)
(0.99017 -0.0014307 0)
(0.990109 8.33041e-05 0)
(0.991341 0.000529449 0)
(0.993261 0.000789674 0)
(0.99316 0.00216247 0)
(0.992785 0.00326676 0)
(0.99269 0.0036616 0)
(0.993525 0.00382396 0)
(0.998373 -0.00298864 0)
(0.999246 -0.000289773 0)
(1.00166 -0.00441513 0)
(0.999463 -0.010648 0)
(0.990925 -0.010772 0)
(0.990503 -0.00606086 0)
(0.992501 -0.00439996 0)
(0.994575 -0.00517533 0)
(0.991958 -0.00508869 0)
(0.991503 -0.00469577 0)
(0.992285 -0.00492501 0)
(0.99276 -0.00443668 0)
(0.990704 -0.00163546 0)
(0.990337 -3.26586e-05 0)
(0.991379 0.000486041 0)
(0.993424 0.000514575 0)
(0.99351 0.00167798 0)
(0.992999 0.00284546 0)
(0.992749 0.0034756 0)
(0.993526 0.00374169 0)
(0.998504 -0.00278035 0)
(0.999342 -0.000607375 0)
(1.00134 -0.00440217 0)
(0.999342 -0.00999205 0)
(0.991504 -0.0102152 0)
(0.991157 -0.00609885 0)
(0.992774 -0.00460869 0)
(0.994659 -0.00521951 0)
(0.992122 -0.00512683 0)
(0.99157 -0.00456918 0)
(0.992336 -0.00460982 0)
(0.99313 -0.00435545 0)
(0.991249 -0.00189187 0)
(0.990584 -0.000163859 0)
(0.991396 0.000492806 0)
(0.993507 0.00047419 0)
(0.993827 0.00149108 0)
(0.993278 0.00269057 0)
(0.992865 0.00355448 0)
(0.993587 0.00378814 0)
(0.998626 -0.00258938 0)
(0.999432 -0.000877292 0)
(1.00107 -0.00440651 0)
(0.999239 -0.00935182 0)
(0.992046 -0.00967721 0)
(0.991777 -0.00613584 0)
(0.993059 -0.00476892 0)
(0.994756 -0.0052586 0)
(0.992302 -0.00514262 0)
(0.991682 -0.00445296 0)
(0.992393 -0.00435851 0)
(0.993411 -0.00424671 0)
(0.991782 -0.00208886 0)
(0.990908 -0.000351429 0)
(0.991462 0.000470074 0)
(0.993614 0.000438966 0)
(0.994164 0.00117552 0)
(0.993622 0.00238833 0)
(0.993011 0.00348265 0)
(0.993489 0.00371852 0)
(0.998742 -0.00241548 0)
(0.999517 -0.00109185 0)
(1.00082 -0.00441684 0)
(0.999156 -0.00877263 0)
(0.99256 -0.00915049 0)
(0.992368 -0.00613277 0)
(0.993344 -0.00490516 0)
(0.994862 -0.00528629 0)
(0.992509 -0.00512789 0)
(0.991811 -0.00438278 0)
(0.992442 -0.00413516 0)
(0.993691 -0.00409725 0)
(0.992297 -0.00225657 0)
(0.991234 -0.00057206 0)
(0.991527 0.000446542 0)
(0.993595 0.000394622 0)
(0.994412 0.000865506 0)
(0.994041 0.00195637 0)
(0.993243 0.00324127 0)
(0.993581 0.0036182 0)
(0.998848 -0.00225936 0)
(0.999594 -0.00126497 0)
(1.00062 -0.00443207 0)
(0.999094 -0.00821919 0)
(0.993038 -0.00863512 0)
(0.992919 -0.00610854 0)
(0.993634 -0.00504409 0)
(0.994989 -0.00526752 0)
(0.992722 -0.00509636 0)
(0.991983 -0.0043269 0)
(0.992522 -0.00390322 0)
(0.993879 -0.00395563 0)
(0.99277 -0.00243859 0)
(0.991641 -0.000714246 0)
(0.991659 0.00045014 0)
(0.993603 0.00049535 0)
(0.994625 0.000938333 0)
(0.994453 0.00174753 0)
(0.993562 0.0030998 0)
(0.993619 0.00366888 0)
(0.998949 -0.00212082 0)
(0.999662 -0.00138925 0)
(1.00043 -0.00444558 0)
(0.999057 -0.00772764 0)
(0.993489 -0.0081337 0)
(0.993432 -0.00606142 0)
(0.99393 -0.00512706 0)
(0.995127 -0.00524953 0)
(0.99295 -0.00505312 0)
(0.992172 -0.00425935 0)
(0.992599 -0.00375129 0)
(0.994066 -0.00378781 0)
(0.993246 -0.00249028 0)
(0.992063 -0.000875117 0)
(0.991819 0.000427636 0)
(0.993608 0.000546925 0)
(0.99476 0.000928783 0)
(0.994823 0.00149291 0)
(0.993964 0.00278215 0)
(0.993707 0.00354265 0)
(0.999042 -0.00199971 0)
(0.999719 -0.00148589 0)
(1.00028 -0.00444071 0)
(0.999043 -0.00727442 0)
(0.993907 -0.00765952 0)
(0.993906 -0.00596968 0)
(0.994226 -0.0052081 0)
(0.995281 -0.00522467 0)
(0.993188 -0.00496621 0)
(0.992387 -0.00420257 0)
(0.992717 -0.0035848 0)
(0.994213 -0.00358671 0)
(0.993654 -0.00256801 0)
(0.992525 -0.00106261 0)
(0.992047 0.000404531 0)
(0.993624 0.000574609 0)
(0.994857 0.000918891 0)
(0.995133 0.00132626 0)
(0.994397 0.00243626 0)
(0.99388 0.00331129 0)
(0.999128 -0.00189255 0)
(0.999766 -0.00154709 0)
(1.00014 -0.00442215 0)
(0.999052 -0.00688081 0)
(0.994307 -0.00720346 0)
(0.994338 -0.00584842 0)
(0.994518 -0.00526523 0)
(0.995457 -0.00518079 0)
(0.993438 -0.00486409 0)
(0.992614 -0.00411712 0)
(0.992842 -0.00346739 0)
(0.994344 -0.00342473 0)
(0.994049 -0.00253505 0)
(0.993016 -0.00121046 0)
(0.992313 0.000307627 0)
(0.993638 0.000554104 0)
(0.994914 0.000895775 0)
(0.995373 0.00119525 0)
(0.994816 0.00212602 0)
(0.994165 0.00300155 0)
(0.999208 -0.00179842 0)
(0.999801 -0.0015934 0)
(1.00002 -0.00437639 0)
(0.999083 -0.00652143 0)
(0.994682 -0.00678816 0)
(0.994729 -0.00569508 0)
(0.994804 -0.00527924 0)
(0.995649 -0.00514782 0)
(0.993702 -0.00474778 0)
(0.992852 -0.00401369 0)
(0.992993 -0.003346 0)
(0.994482 -0.00324139 0)
(0.994391 -0.00248707 0)
(0.993481 -0.00138375 0)
(0.992623 0.000182482 0)
(0.993696 0.000548033 0)
(0.994971 0.000896953 0)
(0.995565 0.00110423 0)
(0.9952 0.00188197 0)
(0.994515 0.00267548 0)
(0.999281 -0.0017165 0)
(0.999828 -0.00161453 0)
(0.999906 -0.00430536 0)
(0.999131 -0.00620974 0)
(0.995045 -0.00641208 0)
(0.995084 -0.00550456 0)
(0.995073 -0.00526219 0)
(0.995858 -0.0051148 0)
(0.993985 -0.00462502 0)
(0.993101 -0.0038793 0)
(0.993154 -0.00321954 0)
(0.994603 -0.00310752 0)
(0.994694 -0.00243929 0)
(0.993963 -0.00150493 0)
(0.992998 6.27798e-05 0)
(0.993782 0.000521556 0)
(0.994996 0.000857942 0)
(0.995698 0.00100199 0)
(0.995529 0.00166754 0)
(0.994886 0.00235842 0)
(0.999348 -0.00164167 0)
(0.999846 -0.0016252 0)
(0.999805 -0.0042135 0)
(0.999193 -0.00592108 0)
(0.995395 -0.00607349 0)
(0.995404 -0.00529803 0)
(0.995323 -0.00520268 0)
(0.996079 -0.00507798 0)
(0.994291 -0.00451367 0)
(0.99336 -0.00372775 0)
(0.993317 -0.00308382 0)
(0.994729 -0.00297138 0)
(0.994971 -0.00234725 0)
(0.994414 -0.00159526 0)
(0.993393 -0.000103086 0)
(0.993895 0.000451836 0)
(0.995026 0.000823434 0)
(0.995815 0.000939667 0)
(0.995824 0.0015132 0)
(0.995256 0.0020937 0)
(0.999409 -0.00157671 0)
(0.999858 -0.00162154 0)
(0.999707 -0.00409072 0)
(0.999262 -0.00566192 0)
(0.995737 -0.00577796 0)
(0.995698 -0.00507364 0)
(0.995549 -0.00509907 0)
(0.996303 -0.00503551 0)
(0.99462 -0.00442253 0)
(0.993637 -0.00357258 0)
(0.993484 -0.00292279 0)
(0.994846 -0.0028363 0)
(0.995209 -0.00226418 0)
(0.994837 -0.00167082 0)
(0.993826 -0.000268614 0)
(0.994068 0.000387125 0)
(0.995067 0.000814063 0)
(0.995896 0.000887719 0)
(0.996058 0.00136377 0)
(0.995595 0.00183403 0)
(0.999463 -0.00150941 0)
(0.999867 -0.00162127 0)
(0.999612 -0.00394202 0)
(0.999334 -0.00541247 0)
(0.996071 -0.00552363 0)
(0.995969 -0.00484379 0)
(0.995746 -0.00494909 0)
(0.996521 -0.00497389 0)
(0.994972 -0.00436773 0)
(0.993939 -0.00343457 0)
(0.993648 -0.00274109 0)
(0.994952 -0.00269872 0)
(0.995419 -0.00217342 0)
(0.995221 -0.0017006 0)
(0.994275 -0.000431329 0)
(0.994288 0.000284494 0)
(0.995114 0.000773975 0)
(0.995943 0.000832537 0)
(0.996245 0.00124232 0)
(0.995926 0.00160256 0)
(0.999511 -0.00144469 0)
(0.999875 -0.00161776 0)
(0.999521 -0.00377528 0)
(0.999399 -0.00516119 0)
(0.996399 -0.005306 0)
(0.99623 -0.00462575 0)
(0.995915 -0.00475024 0)
(0.996718 -0.00486847 0)
(0.995338 -0.00434495 0)
(0.994277 -0.00333915 0)
(0.993822 -0.0025485 0)
(0.995041 -0.00253927 0)
(0.995599 -0.00208395 0)
(0.995562 -0.00170704 0)
(0.994719 -0.000579911 0)
(0.994557 0.000153185 0)
(0.995196 0.000723788 0)
(0.995985 0.000797333 0)
(0.996379 0.00117558 0)
(0.996228 0.00139905 0)
(0.999553 -0.00138014 0)
(0.999884 -0.00160947 0)
(0.999434 -0.00360239 0)
(0.999456 -0.00490475 0)
(0.996717 -0.00510593 0)
(0.996485 -0.004424 0)
(0.996064 -0.00453012 0)
(0.99688 -0.00469863 0)
(0.995701 -0.00432229 0)
(0.994659 -0.00331583 0)
(0.994015 -0.00237448 0)
(0.995109 -0.00235653 0)
(0.995746 -0.00198379 0)
(0.995859 -0.00169608 0)
(0.995147 -0.000701132 0)
(0.994867 1.20552e-05 0)
(0.995316 0.000653747 0)
(0.996032 0.000741377 0)
(0.996457 0.00112479 0)
(0.996457 0.0012394 0)
(0.999588 -0.00131154 0)
(0.999896 -0.00160336 0)
(0.999354 -0.00342008 0)
(0.999501 -0.00463784 0)
(0.997022 -0.00491804 0)
(0.99674 -0.00423931 0)
(0.996202 -0.00431347 0)
(0.997006 -0.00447609 0)
(0.99603 -0.00425497 0)
(0.995077 -0.00335274 0)
(0.994257 -0.00225717 0)
(0.995166 -0.00216248 0)
(0.995852 -0.00186125 0)
(0.996109 -0.00166466 0)
(0.995547 -0.000798207 0)
(0.995201 -0.000129377 0)
(0.995468 0.000565431 0)
(0.9961 0.000667993 0)
(0.996523 0.00106961 0)
(0.996606 0.00115409 0)
(0.999617 -0.00124231 0)
(0.99991 -0.00159076 0)
(0.999284 -0.00323987 0)
(0.999531 -0.00435548 0)
(0.997309 -0.00473217 0)
(0.996994 -0.00407763 0)
(0.996341 -0.00410391 0)
(0.997106 -0.00423404 0)
(0.996309 -0.00411417 0)
(0.995507 -0.00339741 0)
(0.994555 -0.00222176 0)
(0.995232 -0.0019901 0)
(0.995922 -0.00172298 0)