/*--------------------------------*- C++ -*----------------------------------*\
| =========                 |                                                 |
| \\      /  F ield         | OpenFOAM: The Open Source CFD Toolbox           |
|  \\    /   O peration     | Version:  v1912                                 |
|   \\  /    A nd           | Website:  www.openfoam.com                      |
|    \\/     M anipulation  |                                                 |
\*---------------------------------------------------------------------------*/
FoamFile
{
    version     2.0;
    format      ascii;
    class       volScalarField;
    location    "3.6";
    object      p;
}
// * * * * * * * * * * * * * * * * * * * * * * * * * * * * * * * * * * * * * //

dimensions      [0 2 -2 0 0 0 0];


internalField   nonuniform List<scalar> 
9600
(
-7.5138e-09
0.00187157
-0.00523807
0.0012078
0.00829632
0.00301552
0.00246842
0.00627811
0.00403038
0.00736453
0.0064334
0.00635807
0.00924843
0.00893747
0.00880878
0.0103027
0.010108
0.0106286
0.010708
0.0154181
-8.68891e-07
0.0018608
-0.00521588
0.00122417
0.00825273
0.00302826
0.00247782
0.00626811
0.00403618
0.00730458
0.00643459
0.00639133
0.00924189
0.00897312
0.0088308
0.0102933
0.0101208
0.0105966
0.0107782
0.0150878
-2.99773e-06
0.00184848
-0.0051925
0.00123853
0.00820734
0.00306403
0.00248273
0.00624452
0.00403845
0.00722765
0.0064533
0.00644993
0.00923609
0.00900824
0.00884635
0.0102827
0.0101455
0.0105431
0.0108242
0.0147165
-6.35174e-06
0.00183531
-0.00516269
0.00126597
0.00815731
0.00312396
0.00249359
0.0062084
0.00404104
0.00714647
0.00647677
0.00652298
0.0092113
0.00904324
0.00885968
0.0102716
0.0101773
0.0104792
0.0108477
0.0143566
-1.15135e-05
0.00182299
-0.00512045
0.00130332
0.00809308
0.0032093
0.00251484
0.00616171
0.00405102
0.00705915
0.00649945
0.00660339
0.00917915
0.00907756
0.00887502
0.0102569
0.0102121
0.0104161
0.0108535
0.0140151
-1.85333e-05
0.00181364
-0.00506256
0.0013344
0.00801382
0.00331358
0.00255013
0.00611111
0.00407133
0.00696537
0.00652278
0.00668877
0.00914816
0.00910874
0.0088921
0.0102388
0.0102509
0.0103589
0.0108491
0.0136977
-2.70239e-05
0.00180841
-0.00498783
0.00135296
0.00792253
0.00342702
0.00259956
0.00606258
0.00410208
0.00686794
0.00654795
0.00677872
0.00912165
0.00913436
0.00890977
0.0102182
0.0102923
0.0103097
0.0108384
0.0134061
-3.63521e-05
0.00180754
-0.00489446
0.00136193
0.00782293
0.00353957
0.00266114
0.00601922
0.00414236
0.006769
0.00657469
0.00687152
0.00909907
0.00915346
0.00892612
0.0101947
0.0103338
0.01027
0.0108215
0.0131387
-4.57185e-05
0.0018108
-0.00477955
0.00136756
0.0077174
0.00364357
0.00273183
0.00598161
0.00419023
0.00666943
0.00660191
0.0069638
0.00907826
0.00916565
0.00893878
0.0101683
0.0103739
0.0102393
0.0107543
0.0128925
-5.43924e-05
0.00181789
-0.00464058
0.0013758
0.00760727
0.00373461
0.00280817
0.00594899
0.00424388
0.00657008
0.00662841
0.00705193
0.00905665
0.00917018
0.00894631
0.0101403
0.0104107
0.0102153
0.0107187
0.012665
-6.1964e-05
0.00182879
-0.00447706
0.00139051
0.00749325
0.00381083
0.00288686
0.00592062
0.00430262
0.00647233
0.00665388
0.00713339
0.00903196
0.00916716
0.00894818
0.0101111
0.0104424
0.0101957
0.0106746
0.0124522
-6.83217e-05
0.00184365
-0.00429112
0.00141288
0.00737547
0.00387218
0.00296544
0.00589639
0.00436631
0.0063783
0.00667924
0.00720724
0.00900294
0.00915751
0.00894409
0.0100815
0.0104684
0.0101782
0.0106207
0.0122486
-7.34899e-05
0.00186234
-0.00408697
0.00144177
0.00725385
0.00391988
0.00304273
0.00587659
0.00443541
0.00629027
0.00670597
0.00727399
0.00896942
0.00914262
0.00893391
0.0100517
0.010489
0.0101608
0.0105565
0.0120499
-7.74267e-05
0.00188439
-0.00386945
0.00147544
0.00712859
0.00395597
0.00311883
0.00586167
0.00450943
0.00620965
0.00673518
0.00733497
0.00893189
0.00912424
0.00891794
0.0100216
0.0105044
0.0101416
0.010483
0.0118544
-8.00296e-05
0.00190902
-0.00364266
0.00151266
0.00700049
0.00398308
0.00319469
0.00585192
0.00459054
0.00613669
0.00676716
0.00739167
0.00889114
0.00910426
0.00889684
0.0099907
0.0105152
0.0101189
0.0104029
0.0116619
-8.11386e-05
0.00193526
-0.00340954
0.00155278
0.00687091
0.00400401
0.00327147
0.00584742
0.00467683
0.0060708
0.00680154
0.00744554
0.00884801
0.00908444
0.00887158
0.00995808
0.0105227
0.0100911
0.0103177
0.0114733
-8.0561e-05
0.00196222
-0.00317209
0.00159577
0.00674138
0.00402122
0.00335003
0.0058479
0.00476758
0.00601106
0.00683763
0.00749799
0.00880325
0.00906619
0.00884345
0.00992271
0.0105284
0.0100574
0.0102274
0.0112898
-7.80765e-05
0.0019892
-0.0029316
0.00164183
0.00661323
0.00403646
0.00343081
0.00585288
0.00486186
0.00595655
0.00687454
0.00755022
0.00875735
0.0090503
0.00881425
0.00988292
0.0105334
0.0100183
0.0101309
0.011114
-7.34378e-05
0.0020158
-0.00268887
0.00169102
0.00648735
0.00405076
0.00351383
0.00586195
0.00495861
0.0059066
0.00691127
0.0076032
0.00871034
0.00903674
0.00878617
0.00983686
0.0105378
0.0099757
0.0100266
0.0109476
-6.63789e-05
0.0020418
-0.0024443
0.00174333
0.00636422
0.00406436
0.00359858
0.00587488
0.0050568
0.00586074
0.00694675
0.00765774
0.00866216
0.00902459
0.00876129
0.00978324
0.0105405
0.00993223
0.00991251
0.0107911
-5.66076e-05
0.00206708
-0.00219798
0.00179865
0.006244
0.00407717
0.00368434
0.00589142
0.00515548
0.00581881
0.00698005
0.0077143
0.00861289
0.00901239
0.00874116
0.00972142
0.01054
0.00989038
0.0097876
0.0106439
-4.38084e-05
0.00209158
-0.00194999
0.00185691
0.00612686
0.00408898
0.00377027
0.00591141
0.00525389
0.00578077
0.00701045
0.00777319
0.00856271
0.00899829
0.00872676
0.00965103
0.0105343
0.00985341
0.00965255
0.0105036
-2.76544e-05
0.00211523
-0.00170043
0.00191805
0.00601295
0.00409952
0.00385555
0.00593471
0.00535161
0.00574677
0.00703717
0.00783466
0.00851208
0.00898029
0.0087188
0.00957272
0.0105209
0.00982463
0.00953613
0.0103657
-7.80838e-06
0.00213796
-0.00144947
0.00198196
0.00590236
0.00410868
0.00393934
0.0059612
0.00544829
0.00571698
0.00705942
0.00789873
0.0084619
0.00895659
0.00871764
0.00948834
0.0104965
0.00980568
0.0093877
0.0102235
1.60781e-05
0.0021597
-0.00119734
0.00204854
0.00579516
0.00411661
0.00402089
0.00599071
0.00554367
0.00569135
0.00707658
0.00796527
0.00841326
0.00892577
0.00872329
0.00940006
0.0104578
0.00979807
0.00923425
0.0100692
4.43628e-05
0.00218038
-0.000944281
0.00211765
0.00569138
0.00412371
0.00409971
0.00602293
0.00563776
0.00566985
0.00708806
0.0080342
0.00836741
0.00888647
0.00873529
0.00931054
0.0104019
0.00980201
0.00908632
0.00989501
7.74245e-05
0.00219993
-0.000690543
0.00218923
0.00559102
0.00413048
0.00417535
0.00605739
0.00573079
0.0056525
0.00709315
0.00810518
0.00832595
0.00883756
0.00875279
0.00922328
0.010327
0.00981503
0.00895298
0.00969605
0.000115659
0.0022183
-0.00043643
0.00226331
0.00549412
0.0041375
0.00424741
0.00609349
0.00582295
0.00563948
0.00709116
0.00817757
0.0082908
0.00877807
0.00877432
0.00914224
0.0102322
0.00983298
0.00884315
0.00947415
0.00015945
0.00223551
-0.000182309
0.00234
0.0054007
0.00414535
0.0043157
0.00613048
0.0059145
0.00563105
0.00708146
0.00825059
0.00826388
0.0087074
0.00879758
0.00907132
0.0101179
0.00984704
0.00876682
0.00923886
0.000209185
0.00225162
7.13633e-05
0.00241945
0.00531065
0.00415458
0.00438034
0.00616749
0.00600554
0.00562768
0.00706361
0.00832284
0.008247
0.00862586
0.00881937
0.00901402
0.00998615
0.00985111
0.00873066
0.00900621
0.000265249
0.00226673
0.000323975
0.0025018
0.00522384
0.00416577
0.00444161
0.00620363
0.00609597
0.0056301
0.00703747
0.00839249
0.00824219
0.00853411
0.00883537
0.00897427
0.00984243
0.00983621
0.00873261
0.00879299
0.000327984
0.00228099
0.000574691
0.00258737
0.00514038
0.00417945
0.00450003
0.00623808
0.00618562
0.0056389
0.00700297
0.0084577
0.00825151
0.00843338
0.00884033
0.00895554
0.00969283
0.00979299
0.00876108
0.00861775
0.000397735
0.00229457
0.000822506
0.00267641
0.00506039
0.00419599
0.00455634
0.00627013
0.00627413
0.00565486
0.00696061
0.00851593
0.0082764
0.00832629
0.00882883
0.00895897
0.00954262
0.00971706
0.00880225
0.00849408
0.000474845
0.00230772
0.00106632
0.00275694
0.00498403
0.00421561
0.00461135
0.00629943
0.00636098
0.00567871
0.00691143
0.00856416
0.00831736
0.00821659
0.00879617
0.00898381
0.00941166
0.00961139
0.00884149
0.00842226
0.000559577
0.00232083
0.00130505
0.00285485
0.00491177
0.0042384
0.00466572
0.00632578
0.00644579
0.00571095
0.00685647
0.0085997
0.00837409
0.00810903
0.00873876
0.00902363
0.00930575
0.00948265
0.00886601
0.00839425
0.00065214
0.00233433
0.00153762
0.00295754
0.00484405
0.00426431
0.0047202
0.00634907
0.00652788
0.00575213
0.00679726
0.00861973
0.00844516
0.00800976
0.00865375
0.00906987
0.00923423
0.00933931
0.00886583
0.00840024
0.000752735
0.00234882
0.00176287
0.00306515
0.00478158
0.00429302
0.00477553
0.00636966
0.00660648
0.00580236
0.0067358
0.00862157
0.00852758
0.0079265
0.00854064
0.00911109
0.00920566
0.00919471
0.00883196
0.00842831
0.000861474
0.00236504
0.00197978
0.00317762
0.00472513
0.00432433
0.00483204
0.00638779
0.0066814
0.00586123
0.00667408
0.00860432
0.00861707
0.00786588
0.00840278
0.00913294
0.00922158
0.00906525
0.00875897
0.00846311
0.000978387
0.00238376
0.00218757
0.00329493
0.00467546
0.00435782
0.00489032
0.00640374
0.00675191
0.0059288
0.00661356
0.00856707
0.00870978
0.00783251
0.0082461
0.00912308
0.00927388
0.00897037
0.00865048
0.00848397
0.00110346
0.00240586
0.00238546
0.00341673
0.00463353
0.00439334
0.00495025
0.00641814
0.0068179
0.00600467
0.00655664
0.00850821
0.00880065
0.00783128
0.00807843
0.00907202
0.00934948
0.00893125
0.00852614
0.00846768
0.00123667
0.0024322
0.00257273
0.00354292
0.0045999
0.00443063
0.00501267
0.00643135
0.00687876
0.00608789
0.00650586
0.00842952
0.00888264
0.0078632
0.00791051
0.00897381
0.00942905
0.00895454
0.00841478
0.00840748
0.00137776
0.00246383
0.0027487
0.00367309
0.00457568
0.00446887
0.00507783
0.00644473
0.00693377
0.00617738
0.00646303
0.00833353
0.008952
0.00792361
0.00775386
0.00883132
0.00948731
0.00902905
0.00834631
0.00832524
0.00152652
0.00250162
0.00291314
0.00380687
0.00456143
0.00450796
0.00514572
0.00645894
0.006983
0.00627188
0.0064303
0.00822214
0.00900549
0.00800991
0.00761852
0.00864936
0.00950336
0.00913161
0.00833248
0.00825087
0.00168263
0.00254639
0.00306568
0.00394423
0.0045575
0.00454684
0.00521737
0.00647538
0.00702539
0.00636953
0.00640987
0.00810015
0.00903737
0.00811821
0.00752137
0.00844517
0.00947433
0.00923866
0.00837192
0.00818716
0.00184541
0.00259925
0.00320633
0.00408414
0.00456586
0.00458478
0.00529149
0.00649635
0.00706101
0.00646849
0.00640545
0.00797308
0.00904372
0.00824229
0.0074754
0.00825601
0.00941579
0.00935261
0.00843566
0.00806555
0.00201451
0.00266075
0.00333559
0.0042261
0.00458675
0.00462132
0.00536795
0.00652337
0.00709052
0.0065676
0.006418
0.00784697
0.00902331
0.0083731
0.00748057
0.008085
0.00932812
0.0094728
0.00851242
0.00789324
0.00218921
0.00273187
0.00345401
0.00436875
0.00462216
0.00465549
0.00544426
0.00655934
0.0071162
0.00666824
0.00644604
0.00772907
0.00897714
0.0084957
0.00753079
0.00792598
0.00916738
0.00951515
0.0086152
0.00783228
0.00236867
0.0028132
0.00356276
0.00451074
0.00467291
0.00468789
0.00551794
0.00660582
0.00714066
0.00675223
0.00648901
0.00762318
0.00890605
0.00859903
0.00760821
0.00779374
0.00897903
0.00951007
0.00874267
0.00786237
0.00255216
0.00290537
0.00366304
0.00465031
0.00474031
0.00471946
0.0055855
0.006663
0.00716842
0.00682785
0.00654856
0.00753269
0.00881449
0.00867597
0.00770423
0.00770241
0.00877763
0.00944839
0.00886983
0.00796435
0.00273879
0.00300899
0.0037564
0.00478543
0.00482511
0.00475185
0.0056434
0.00672966
0.00720403
0.0068961
0.00660971
0.00745828
0.00870678
0.00872529
0.00781224
0.007649
0.00857175
0.00933966
0.00898732
0.00811235
0.00292782
0.00312436
0.00384459
0.00491423
0.00492683
0.00478865
0.00568862
0.00680117
0.00725248
0.00695853
0.0066705
0.00739899
0.00859322
0.00875068
0.00792286
0.00762569
0.00838245
0.00920097
0.0090782
0.00828938
0.00311844
0.00325183
0.0039295
0.00503446
0.00504486
0.00483339
0.00571909
0.00687246
0.00731593
0.00701809
0.00672746
0.00735506
0.00848426
0.00875605
0.00802974
0.00763105
0.0082233
0.00904334
0.00912568
0.0084852
0.00330991
0.0033913
0.00401347
0.00514425
0.00517691
0.00489084
0.00573549
0.00693543
0.00739393
0.00708244
0.0067788
0.00732046
0.00838323
0.00874936
0.0081339
0.00766276
0.00809602
0.00888047
0.00912543
0.00867852
0.0035015
0.00354254
0.00409899
0.00524189
0.00532023
0.00496569
0.00573926
0.00698244
0.00748447
0.00715916
0.00682534
0.00729011
0.00829147
0.00873558
0.0082345
0.0077176
0.00800091
0.00872701
0.00908335
0.00883618
0.00369255
0.00370485
0.00418873
0.00532682
0.00547052
0.00506168
0.00573502
0.007007
0.00758086
0.00725401
0.006874
0.00725906
0.00820418
0.00871523
0.00833197
0.007796
0.00793749
0.00858806
0.00901414
0.00893877
0.00388242
0.00387732
0.0042853
0.00539925
0.00562259
0.00518127
0.00572904
0.00700461
0.00767409
0.00736983
0.00693456
0.00722681
0.00811606
0.00868948
0.00842639
0.00789579
0.00790464
0.00846422
0.00893623
0.00899147
0.00407048
0.00405879
0.00439107
0.0054604
0.00577089
0.00532453
0.0057293
0.00697486
0.0077531
0.00750438
0.0070157
0.0072027
0.00802541
0.00865273
0.00851327
0.00801279
0.00790741
0.00835821
0.00885894
0.0090142
0.00425615
0.00424762
0.00450805
0.00551265
0.00590975
0.00548935
0.00574482
0.00692103
0.00780698
0.00765082
0.00712389
0.00719961
0.007936
0.00859918
0.00858654
0.00814233
0.00795113
0.00827497
0.00877802
0.00902487
0.00443922
0.00444147
0.00463767
0.00555964
0.00603353
0.0056713
0.00578545
0.00685225
0.00782602
0.00779748
0.0072617
0.00722188
0.00785231
0.00852958
0.00863963
0.00827569
0.00803404
0.00822634
0.00869018
0.00902486
0.00461976
0.00463772
0.00478012
0.00560635
0.00613888
0.00586207
0.00585945
0.00678244
0.00780534
0.00792949
0.00742607
0.00727687
0.00778337
0.00844846
0.00866859
0.00840084
0.00814414
0.00822802
0.00860864
0.00900271
0.00479786
0.00483389
0.00493473
0.00565798
0.00622606
0.00604917
0.00596821
0.00672832
0.00774826
0.00803128
0.00760672
0.00736827
0.00774021
0.00836135
0.00867296
0.00851104
0.00826562
0.00828026
0.00855811
0.00895631
0.00497368
0.00502772
0.00510012
0.00571816
0.0062968
0.00622341
0.00610728
0.00670392
0.00766944
0.00809243
0.00778843
0.00749295
0.00773373
0.0082786
0.00865278
0.00860503
0.00838539
0.0083612
0.00855859
0.00890878
0.00514748
0.00521737
0.0052737
0.0057898
0.00635564
0.00638057
0.00626455
0.00671542
0.00758945
0.00811168
0.00795434
0.00764169
0.0077673
0.00821745
0.00861341
0.00867829
0.00850363
0.00845105
0.00860353
0.00889
0.00531947
0.00540148
0.00545181
0.00587502
0.00640858
0.00651851
0.00642783
0.00676266
0.00752446
0.00809792
0.00809213
0.00782064
0.00783783
0.00819032
0.00856815
0.00872234
0.00862104
0.00854519
0.00866931
0.00891359
0.00548974
0.00557949
0.0056306
0.00597415
0.00646146
0.00663751
0.00658821
0.00683973
0.00748473
0.0080661
0.00819267
0.00798645
0.00793727
0.00819802
0.00853467
0.00873796
0.0087252
0.00864935
0.0087424
0.00896789
0.00565813
0.00575109
0.00580692
0.00608615
0.00651841
0.00673948
0.00673977
0.00693793
0.00747445
0.00803097
0.00825731
0.00813786
0.00805765
0.00823655
0.00852509
0.00874117
0.00880314
0.00876042
0.00882268
0.0090352
0.00582436
0.00591622
0.00597813
0.00620898
0.00658245
0.00682774
0.00687891
0.00704863
0.00749277
0.00800487
0.00829608
0.00826482
0.00818758
0.00830145
0.00854106
0.00874867
0.00885574
0.00886458
0.00891391
0.00910708
0.00598801
0.00607508
0.00614241
0.00633922
0.00665537
0.00690686
0.0070041
0.00716428
0.00753541
0.0079951
0.00832073
0.00836668
0.0083158
0.00838786
0.00858004
0.00877045
0.00889795
0.00895188
0.00901124
0.00918413
0.00614829
0.00622796
0.0062987
0.00647333
0.00673704
0.00698053
0.0071156
0.00727896
0.00759657
0.0080045
0.0083407
0.00844827
0.00843526
0.00848857
0.00864039
0.008808
0.00894221
0.00902642
0.00910667
0.00926847
0.00630444
0.00637492
0.00644592
0.00660793
0.00682735
0.00705158
0.00721344
0.00738832
0.00767069
0.00803276
0.0083623
0.0085152
0.00854442
0.00859753
0.00872081
0.0088617
0.00899483
0.00909757
0.00919803
0.00935809
0.00645535
0.00651657
0.0065841
0.00673851
0.00692334
0.00712373
0.0072999
0.00748787
0.00775228
0.00807864
0.00838952
0.00857384
0.00864399
0.00870779
0.00881708
0.00893409
0.00905936
0.00917132
0.00928637
0.0094507
0.00659974
0.00665227
0.00671356
0.00686311
0.00702163
0.00719691
0.00737809
0.00757639
0.00783239
0.00813732
0.00842718
0.00863217
0.00873896
0.00881701
0.00892449
0.0090265
0.00913934
0.00925234
0.00937468
0.00954493
0.00673642
0.00678186
0.00683386
0.00697884
0.00711941
0.00727024
0.00744874
0.00765688
0.00790993
0.0081968
0.00845918
0.0086836
0.00882999
0.00892647
0.00904084
0.00913834
0.00923504
0.00933932
0.00945804
0.00963097
0.00686365
0.00690425
0.00694742
0.00708561
0.00721168
0.00734031
0.00750733
0.00772375
0.00799484
0.00828898
0.00859491
0.00880495
0.00896838
0.00908315
0.00920574
0.00931274
0.00940432
0.00949065
0.00959209
0.00973758
0.00698031
0.00701677
0.00705207
0.00718324
0.00729887
0.00740956
0.00755682
0.00775473
0.00801217
0.00826906
0.00851653
0.0087664
0.0089797
0.00913133
0.00928795
0.00943717
0.00957357
0.00971313
0.00985893
0.0100374
0.00708823
0.0071204
0.00714378
0.00726351
0.00737286
0.00747489
0.00762797
0.00784767
0.00813981
0.00849888
0.00876154
0.0090099
0.00924066
0.00939471
0.00951533
0.00959277
0.0096267
0.00964043
0.00967282
0.00976283
0.00718469
0.00721834
0.00723183
0.00733178
0.00741707
0.00748973
0.00758939
0.00775585
0.00798587
0.00821056
0.00846666
0.00880667
0.00920699
0.00955491
0.00988386
0.0101965
0.0104918
0.0107828
0.0110651
0.011305
0.00726104
0.0072861
0.00730895
0.00742216
0.00751611
0.00759311
0.00771604
0.00792405
0.00823596
0.00857614
0.00890172
0.00918275
0.009453
0.00964242
0.00977362
0.00987733
0.0099244
0.00991976
0.00990471
0.00993673
0.00733593
0.00735686
0.00734405
0.00740415
0.00745136
0.00750416
0.00762631
0.0078744
0.00818832
0.00850554
0.00882898
0.0091056
0.00941284
0.00973426
0.0100442
0.0103868
0.0107391
0.0110588
0.0113176
0.0114961
0.00739625
0.00743131
0.00744524
0.00753873
0.00761433
0.00766935
0.00773331
0.00787709
0.00811932
0.00841094
0.00881521
0.00925684
0.00965875
0.0100132
0.0102877
0.0105085
0.0106978
0.0108517
0.0109734
0.0110407
0.0186815
0.0137585
0.00670957
0.00148031
0.000490107
0.00204574
0.00376453
0.00491326
0.00562571
0.00631911
0.0071767
0.00798753
0.00853062
0.00887209
0.00927204
0.00977156
0.0102367
0.0107605
0.0113702
0.0118882
0.012325
0.0127362
0.0131311
0.0136231
0.0142129
0.0147226
0.0151391
0.0156406
0.0161705
0.0166414
0.0171402
0.0176743
0.0181886
0.0187127
0.0193191
0.0199563
0.0205529
0.0211493
0.021767
0.0224353
0.0230269
0.0232725
0.0232777
0.0235539
0.0242649
0.0250814
0.0258095
0.0264963
0.0272234
0.0279808
0.0286472
0.0293261
0.0301906
0.0310004
0.0314527
0.0316644
0.0320077
0.0328285
0.0339629
0.0349965
0.0358776
0.036677
0.0373905
0.038204
0.0390366
0.0397982
0.0406247
0.0414481
0.0422717
0.0432182
0.0442306
0.0451523
0.0461605
0.0472113
0.0482531
0.0492768
0.0503368
0.0514062
0.0525172
0.0536763
0.0548176
0.05595
0.0570846
0.058328
0.0595656
0.0608914
0.0621731
0.0634198
0.064709
0.066051
0.0674724
0.0688426
0.0702303
0.071692
0.0731003
0.074558
0.0759815
0.0774078
0.0787296
0.0798822
0.0180677
0.0136206
0.00679829
0.00163484
0.000585202
0.00209384
0.00379424
0.00493205
0.00563798
0.00632798
0.00718441
0.00799513
0.00853789
0.00887835
0.00927724
0.00977611
0.0102405
0.0107636
0.0113731
0.011891
0.0123275
0.0127385
0.013133
0.0136247
0.0142146
0.0147243
0.0151405
0.0156418
0.0161718
0.0166426
0.0171413
0.0176755
0.0181898
0.0187137
0.0193201
0.0199573
0.020554
0.0211503
0.0217678
0.0224361
0.0230281
0.0232737
0.0232785
0.0235544
0.0242655
0.0250821
0.0258102
0.0264969
0.0272239
0.0279814
0.0286478
0.0293265
0.030191
0.031001
0.0314534
0.031665
0.0320079
0.0328287
0.0339631
0.0349969
0.035878
0.0366773
0.0373908
0.0382042
0.0390369
0.0397985
0.0406249
0.0414483
0.0422719
0.0432184
0.0442308
0.0451525
0.0461607
0.0472115
0.0482532
0.049277
0.050337
0.0514063
0.0525173
0.0536765
0.0548178
0.0559502
0.0570848
0.0583281
0.0595658
0.0608915
0.0621732
0.0634199
0.0647091
0.0660511
0.0674725
0.0688427
0.0702304
0.0716921
0.0731004
0.0745581
0.0759816
0.0774078
0.0787296
0.0798822
0.0174469
0.0134409
0.00696354
0.00191872
0.00074371
0.00214907
0.00382226
0.00495494
0.00565628
0.00634157
0.007194
0.00800208
0.00854373
0.00888391
0.0092827
0.00978122
0.0102446
0.0107668
0.0113761
0.0118936
0.0123297
0.0127406
0.0131348
0.0136262
0.0142161
0.0147258
0.0151417
0.0156429
0.0161729
0.0166436
0.0171422
0.0176764
0.0181907
0.0187146
0.0193209
0.0199582
0.0205548
0.0211511
0.0217685
0.0224369
0.0230292
0.0232749
0.023279
0.0235545
0.0242659
0.0250827
0.0258108
0.0264974
0.0272244
0.0279819
0.0286483
0.0293267
0.0301913
0.0310016
0.0314541
0.0316653
0.0320079
0.0328286
0.0339634
0.0349973
0.0358783
0.0366776
0.0373911
0.0382044
0.0390371
0.0397987
0.0406251
0.0414485
0.0422721
0.0432185
0.044231
0.0451526
0.0461608
0.0472116
0.0482534
0.0492771
0.0503371
0.0514065
0.0525175
0.0536766
0.0548179
0.0559503
0.0570849
0.0583282
0.0595659
0.0608916
0.0621734
0.06342
0.0647092
0.0660512
0.0674726
0.0688428
0.0702305
0.0716922
0.0731005
0.0745582
0.0759817
0.0774079
0.0787297
0.0798822
0.0168494
0.0132633
0.00718051
0.00227997
0.000962715
0.0022293
0.00386654
0.00499201
0.00568649
0.00636495
0.00720984
0.0080113
0.00855013
0.0088905
0.00928997
0.00978848
0.0102512
0.0107723
0.0113805
0.011897
0.0123326
0.0127434
0.0131373
0.0136284
0.0142182
0.0147277
0.0151432
0.0156443
0.0161743
0.0166446
0.017143
0.0176772
0.0181915
0.0187154
0.0193218
0.0199591
0.0205556
0.0211519
0.0217693
0.0224378
0.0230306
0.0232762
0.0232793
0.0235544
0.0242662
0.0250834
0.0258115
0.026498
0.0272249
0.0279826
0.0286488
0.029327
0.0301918
0.0310025
0.0314549
0.0316657
0.0320077
0.0328285
0.0339638
0.0349978
0.0358786
0.0366779
0.0373913
0.0382046
0.0390374
0.0397989
0.0406253
0.0414488
0.0422722
0.0432187
0.0442312
0.0451528
0.0461609
0.0472118
0.0482536
0.0492772
0.0503372
0.0514066
0.0525176
0.0536767
0.0548181
0.0559504
0.057085
0.0583283
0.059566
0.0608917
0.0621735
0.0634201
0.0647093
0.0660513
0.0674727
0.0688429
0.0702305
0.0716923
0.0731006
0.0745583
0.0759818
0.077408
0.0787299
0.0798824
0.016273
0.0130857
0.0074096
0.00266353
0.00120758
0.00232286
0.00391856
0.00503826
0.0057274
0.0063988
0.00723318
0.008024
0.00855822
0.00889944
0.00930021
0.00979857
0.0102605
0.0107804
0.0113867
0.0119016
0.0123366
0.0127476
0.0131414
0.0136318
0.0142209
0.0147301
0.0151455
0.0156466
0.0161764
0.016646
0.0171439
0.0176778
0.0181922
0.0187162
0.0193226
0.0199597
0.0205563
0.0211529
0.0217703
0.0224388
0.0230321
0.0232776
0.0232797
0.0235543
0.0242666
0.0250841
0.0258122
0.0264986
0.0272255
0.0279833
0.0286494
0.0293273
0.0301923
0.0310035
0.0314558
0.031666
0.0320074
0.0328283
0.0339643
0.0349984
0.0358791
0.0366783
0.0373916
0.0382048
0.0390377
0.0397991
0.0406256
0.041449
0.0422723
0.0432188
0.0442315
0.0451529
0.0461611
0.047212
0.0482537
0.0492774
0.0503374
0.0514067
0.0525177
0.0536769
0.0548182
0.0559506
0.0570851
0.0583284
0.0595661
0.0608918
0.0621737
0.0634202
0.0647094
0.0660514
0.0674728
0.068843
0.0702306
0.0716924
0.0731007
0.0745584
0.0759819
0.0774082
0.0787303
0.0798826
0.0157182
0.0128962
0.00763016
0.00305229
0.00146857
0.00242458
0.00397231
0.00508748
0.00577374
0.006439
0.00726163
0.00803947
0.00856833
0.00891144
0.00931397
0.00981167
0.0102726
0.0107908
0.0113943
0.0119072
0.0123419
0.0127535
0.0131477
0.0136369
0.0142243
0.014733
0.0151487
0.0156499
0.0161795
0.0166485
0.0171453
0.0176785
0.0181927
0.0187169
0.0193232
0.0199599
0.0205566
0.0211538
0.0217715
0.02244
0.0230337
0.0232793
0.0232803
0.0235544
0.0242671
0.0250849
0.0258129
0.0264993
0.0272261
0.027984
0.0286501
0.0293278
0.030193
0.0310046
0.0314569
0.0316664
0.032007
0.0328281
0.0339649
0.0349992
0.0358796
0.0366788
0.0373919
0.0382051
0.0390381
0.0397994
0.0406258
0.0414492
0.0422724
0.043219
0.0442318
0.0451531
0.0461612
0.0472122
0.0482539
0.0492776
0.0503375
0.0514069
0.0525178
0.0536771
0.0548184
0.0559507
0.0570852
0.0583285
0.0595662
0.0608919
0.0621739
0.0634203
0.0647094
0.0660514
0.0674729
0.0688432
0.0702307
0.0716925
0.0731008
0.0745585
0.0759821
0.0774084
0.0787307
0.0798828
0.0151867
0.0126916
0.00783759
0.00344474
0.00174641
0.00253533
0.00402711
0.00513789
0.00582329
0.00648299
0.00729307
0.00805664
0.00857989
0.00892586
0.00933083
0.00982755
0.0102868
0.0108024
0.0114024
0.0119132
0.0123481
0.0127611
0.0131562
0.0136438
0.0142284
0.0147363
0.0151525
0.0156539
0.0161837
0.0166523
0.0171478
0.0176797
0.0181936
0.018718
0.0193237
0.0199595
0.0205562
0.0211542
0.0217724
0.0224411
0.0230353
0.0232811
0.0232814
0.0235551
0.0242679
0.0250857
0.0258138
0.0265001
0.0272267
0.0279846
0.0286507
0.0293284
0.0301939
0.0310058
0.0314581
0.031667
0.0320067
0.0328279
0.0339656
0.035
0.0358802
0.0366793
0.0373924
0.0382055
0.0390385
0.0397998
0.0406262
0.0414495
0.0422726
0.0432192
0.0442321
0.0451532
0.0461614
0.0472125
0.0482541
0.0492777
0.0503377
0.051407
0.052518
0.0536772
0.0548186
0.0559509
0.0570853
0.0583287
0.0595663
0.0608921
0.062174
0.0634204
0.0647095
0.0660516
0.067473
0.0688433
0.0702308
0.0716926
0.0731009
0.0745586
0.0759823
0.0774087
0.0787314
0.0798832
0.0146816
0.0124753
0.0080309
0.00383954
0.00204158
0.0026568
0.00408358
0.00518914
0.00587537
0.00652999
0.00732689
0.0080751
0.0085922
0.00894155
0.00934975
0.00984559
0.0103027
0.0108148
0.0114106
0.0119191
0.0123546
0.0127698
0.0131665
0.0136525
0.0142335
0.0147399
0.0151565
0.0156582
0.0161884
0.0166571
0.0171514
0.0176819
0.0181953
0.0187197
0.0193244
0.0199585
0.0205549
0.0211539
0.0217726
0.0224415
0.0230362
0.0232829
0.0232832
0.0235568
0.0242694
0.0250869
0.025815
0.0265013
0.0272273
0.027985
0.0286512
0.029329
0.0301948
0.0310071
0.0314596
0.0316678
0.0320064
0.0328278
0.0339664
0.035001
0.0358808
0.03668
0.037393
0.038206
0.039039
0.0398003
0.0406267
0.0414499
0.0422728
0.0432195
0.0442324
0.0451534
0.0461616
0.0472128
0.0482544
0.0492779
0.0503379
0.0514072
0.0525181
0.0536774
0.0548187
0.055951
0.0570854
0.0583288
0.0595665
0.0608922
0.0621743
0.0634206
0.0647097
0.0660517
0.0674732
0.0688435
0.0702309
0.0716928
0.0731011
0.0745588
0.0759826
0.0774092
0.0787323
0.0798838
0.0142081
0.0122523
0.00820667
0.00423181
0.00235286
0.00279086
0.00414277
0.00524076
0.00592923
0.00657962
0.00736301
0.00809484
0.00860491
0.00895771
0.00936975
0.00986503
0.0103197
0.0108277
0.0114188
0.0119251
0.0123613
0.0127791
0.013178
0.0136626
0.0142396
0.0147439
0.0151605
0.0156621
0.016193
0.0166625
0.017156
0.0176851
0.0181981
0.0187225
0.0193258
0.0199574
0.020553
0.0211529
0.0217721
0.0224406
0.023036
0.0232841
0.0232853
0.0235593
0.0242716
0.0250886
0.0258169
0.0265032
0.0272284
0.0279853
0.0286513
0.0293293
0.0301954
0.0310082
0.0314612
0.031669
0.0320065
0.0328279
0.0339673
0.0350019
0.0358813
0.0366806
0.0373938
0.0382066
0.0390396
0.0398009
0.0406273
0.0414503
0.0422731
0.0432199
0.0442329
0.0451537
0.0461619
0.0472131
0.0482546
0.0492781
0.0503381
0.0514074
0.0525183
0.0536776
0.0548189
0.0559512
0.0570856
0.058329
0.0595666
0.0608924
0.0621745
0.0634208
0.0647098
0.0660518
0.0674734
0.0688437
0.070231
0.0716929
0.0731013
0.0745589
0.0759829
0.0774098
0.0787334
0.0798845
0.0137697
0.0120247
0.00836021
0.00461654
0.00267841
0.00293879
0.00420487
0.00529161
0.0059839
0.00663165
0.00740164
0.00811612
0.00861812
0.008974
0.00939023
0.00988536
0.0103375
0.0108414
0.0114275
0.0119314
0.0123684
0.0127889
0.0131901
0.0136737
0.0142464
0.0147482
0.0151645
0.0156657
0.0161973
0.0166679
0.0171609
0.0176891
0.0182019
0.0187263
0.019328
0.0199565
0.0205509
0.0211514
0.0217707
0.0224384
0.0230339
0.0232839
0.0232871
0.0235625
0.0242746
0.0250909
0.0258194
0.026506
0.0272303
0.027986
0.0286513
0.0293289
0.0301951
0.0310085
0.0314627
0.0316706
0.0320071
0.0328285
0.0339686
0.0350029
0.0358817
0.0366811
0.0373946
0.0382073
0.0390403
0.0398018
0.0406281
0.0414508
0.0422736
0.0432205
0.0442334
0.0451541
0.0461624
0.0472136
0.0482549
0.0492784
0.0503384
0.0514077
0.0525185
0.0536778
0.0548191
0.0559513
0.0570858
0.0583292
0.0595668
0.0608925
0.0621747
0.0634209
0.0647099
0.066052
0.0674736
0.0688439
0.0702312
0.0716931
0.0731015
0.0745591
0.0759833
0.0774106
0.0787347
0.0798853
0.0133649
0.0117933
0.00849049
0.00499017
0.00301407
0.00309976
0.00426965
0.00534103
0.00603883
0.006686
0.00744303
0.00813936
0.00863211
0.0089904
0.00941093
0.00990641
0.0103564
0.0108559
0.0114367
0.0119381
0.0123758
0.012799
0.0132028
0.0136854
0.0142539
0.0147529
0.0151685
0.0156692
0.0162013
0.0166732
0.0171659
0.0176934
0.0182063
0.018731
0.0193309
0.0199559
0.0205485
0.0211496
0.0217687
0.0224349
0.02303
0.023282
0.0232878
0.0235657
0.0242781
0.0250936
0.0258224
0.0265096
0.0272331
0.0279876
0.0286515
0.0293279
0.0301936
0.0310075
0.0314633
0.0316721
0.0320081
0.0328297
0.0339706
0.0350043
0.0358819
0.0366813
0.0373954
0.0382079
0.0390408
0.0398029
0.0406291
0.0414515
0.0422743
0.0432212
0.0442341
0.0451546
0.046163
0.0472142
0.0482553
0.0492787
0.0503387
0.051408
0.0525188
0.0536781
0.0548193
0.0559515
0.057086
0.0583294
0.0595669
0.0608927
0.062175
0.0634211
0.06471
0.0660522
0.0674738
0.0688441
0.0702313
0.0716933
0.0731018
0.0745593
0.0759838
0.0774116
0.0787364
0.0798864
0.0129914
0.0115633
0.00859959
0.00534773
0.00335367
0.00327292
0.00433849
0.00538946
0.00609342
0.00674212
0.00748718
0.00816498
0.00864736
0.00900717
0.00943189
0.0099282
0.0103763
0.0108714
0.0114465
0.0119452
0.0123837
0.0128095
0.0132159
0.0136976
0.0142618
0.0147579
0.0151726
0.0156725
0.0162053
0.0166784
0.0171709
0.0176978
0.0182111
0.0187363
0.0193345
0.0199558
0.0205462
0.0211474
0.0217662
0.0224303
0.0230244
0.0232783
0.023287
0.0235682
0.0242817
0.0250966
0.0258256
0.0265134
0.0272366
0.02799
0.0286522
0.0293264
0.0301906
0.0310048
0.0314625
0.0316727
0.0320088
0.0328316
0.0339735
0.0350063
0.0358822
0.0366813
0.037396
0.0382082
0.0390412
0.0398039
0.0406302
0.0414523
0.0422751
0.0432221