/*--------------------------------*- C++ -*----------------------------------*\
| =========                 |                                                 |
| \\      /  F ield         | OpenFOAM: The Open Source CFD Toolbox           |
|  \\    /   O peration     | Version:  v1912                                 |
|   \\  /    A nd           | Website:  www.openfoam.com                      |
|    \\/     M anipulation  |                                                 |
\*---------------------------------------------------------------------------*/
FoamFile
{
    version     2.0;
    format      ascii;
    class       volVectorField;
    location    "3.6";
    object      U;
}
// * * * * * * * * * * * * * * * * * * * * * * * * * * * * * * * * * * * * * //

dimensions      [0 1 -1 0 0 0 0];


internalField   nonuniform List<vector> 
9600
(
(0.731781 -0.00127374 0)
(1.23797 -0.00759485 0)
(0.719741 -0.0156458 0)
(1.42881 0.0226636 0)
(0.745372 0.00526745 0)
(1.16217 -0.0146832 0)
(0.910119 -0.027159 0)
(1.22893 -0.0105268 0)
(0.886994 0.00606693 0)
(1.23151 0.00931238 0)
(0.773767 0.0154853 0)
(1.23976 0.0185764 0)
(0.868286 -0.0013056 0)
(1.18524 -0.000641421 0)
(0.933008 -0.00899682 0)
(1.21334 -0.00905563 0)
(0.919453 -0.0129681 0)
(1.20788 -0.004764 0)
(0.919583 -0.0024753 0)
(1.18841 0.00743823 0)
(0.749827 -0.00117722 0)
(1.22033 -0.00719265 0)
(0.73389 -0.0178517 0)
(1.41333 0.0222612 0)
(0.815788 0.00782348 0)
(1.14416 -0.016197 0)
(0.932123 -0.028654 0)
(1.22237 -0.00994349 0)
(0.904739 0.00571195 0)
(1.21738 0.0112666 0)
(0.806259 0.015153 0)
(1.20263 0.0174287 0)
(0.933144 -0.000457623 0)
(1.13904 -0.00175963 0)
(0.992522 -0.00997718 0)
(1.15507 -0.00877463 0)
(0.998769 -0.0126121 0)
(1.12931 -0.0050384 0)
(1.02597 -0.000895644 0)
(1.07221 0.0067737 0)
(0.782079 -0.00107938 0)
(1.18902 -0.00691986 0)
(0.760894 -0.0195856 0)
(1.38034 0.0221831 0)
(0.906844 0.00969108 0)
(1.11642 -0.016683 0)
(0.956199 -0.0295329 0)
(1.19933 -0.00946153 0)
(0.943198 0.0055997 0)
(1.18565 0.0129762 0)
(0.871699 0.014969 0)
(1.14779 0.0156512 0)
(1.00418 0.000331171 0)
(1.09062 -0.00261994 0)
(1.03452 -0.0101914 0)
(1.10075 -0.00902185 0)
(1.04376 -0.0119003 0)
(1.07935 -0.00587604 0)
(1.06088 0.00046492 0)
(1.05248 0.00756253 0)
(0.824644 -0.000975466 0)
(1.14632 -0.00660279 0)
(0.798293 -0.0212496 0)
(1.33311 0.021293 0)
(0.993115 0.0117584 0)
(1.08746 -0.0166443 0)
(0.978206 -0.0305486 0)
(1.16144 -0.00937545 0)
(0.990403 0.00570667 0)
(1.14533 0.0139832 0)
(0.944985 0.0153185 0)
(1.10514 0.0137597 0)
(1.05052 0.00109936 0)
(1.06521 -0.00281655 0)
(1.04473 -0.0102958 0)
(1.06727 -0.00940285 0)
(1.04945 -0.0113862 0)
(1.05755 -0.00630987 0)
(1.05902 0.00096362 0)
(1.05283 0.00864454 0)
(0.87194 -0.000826879 0)
(1.09832 -0.0062869 0)
(0.840689 -0.0229189 0)
(1.27828 0.0196292 0)
(1.05928 0.0137568 0)
(1.06497 -0.0160465 0)
(0.991583 -0.0313187 0)
(1.11745 -0.00967807 0)
(1.02974 0.00587207 0)
(1.11053 0.0145627 0)
(1.00501 0.0157441 0)
(1.08654 0.0123093 0)
(1.07218 0.00171698 0)
(1.0582 -0.0024225 0)
(1.04042 -0.0100868 0)
(1.04483 -0.00965795 0)
(1.03934 -0.0110413 0)
(1.04282 -0.00669679 0)
(1.04861 0.00105397 0)
(1.04845 0.00935441 0)
(0.917191 -0.000633179 0)
(1.05367 -0.00599188 0)
(0.880946 -0.0245482 0)
(1.22326 0.0176861 0)
(1.09864 0.0155541 0)
(1.05221 -0.0149803 0)
(0.995296 -0.0317908 0)
(1.07671 -0.0103529 0)
(1.05253 0.0059323 0)
(1.08956 0.0148257 0)
(1.04639 0.0159243 0)
(1.08546 0.0114509 0)
(1.07992 0.00228885 0)
(1.05716 -0.00160966 0)
(1.03436 -0.00937846 0)
(1.02737 -0.00973719 0)
(1.0248 -0.0108687 0)
(1.02846 -0.00711154 0)
(1.03592 0.000886449 0)
(1.04017 0.00958856 0)
(0.954477 -0.000417158 0)
(1.02037 -0.00569768 0)
(0.913285 -0.0260714 0)
(1.17302 0.015715 0)
(1.11266 0.0170241 0)
(1.04715 -0.0135871 0)
(0.993238 -0.0319062 0)
(1.04407 -0.0112852 0)
(1.05997 0.00569887 0)
(1.08121 0.0147394 0)
(1.07272 0.0158501 0)
(1.09061 0.0110928 0)
(1.08105 0.0029968 0)
(1.05538 -0.000536901 0)
(1.02952 -0.00828821 0)
(1.0145 -0.00957006 0)
(1.01065 -0.0107339 0)
(1.0145 -0.00752812 0)
(1.02272 0.000465019 0)
(1.02987 0.009393 0)
(0.98059 -0.000217364 0)
(1.00238 -0.00538755 0)
(0.935663 -0.0274042 0)
(1.1289 0.0138568 0)
(1.10764 0.0180966 0)
(1.0452 -0.0120596 0)
(0.990241 -0.0316902 0)
(1.02001 -0.0123674 0)
(1.05771 0.00506752 0)
(1.07881 0.0142902 0)
(1.08768 0.0156213 0)
(1.09385 0.0111271 0)
(1.07769 0.00392693 0)
(1.05123 0.000659303 0)
(1.02554 -0.00698837 0)
(1.00625 -0.00913498 0)
(0.999749 -0.0105275 0)
(1.00248 -0.00792942 0)
(1.01051 -0.00014152 0)
(1.01911 0.00890732 0)
(0.995599 -7.73325e-05 0)
(0.998144 -0.00506025 0)
(0.949823 -0.0284393 0)
(1.09016 0.0122209 0)
(1.09114 0.0187842 0)
(1.04244 -0.0105843 0)
(0.988965 -0.0312097 0)
(1.00337 -0.0134973 0)
(1.05083 0.00408284 0)
(1.07574 0.0135278 0)
(1.09246 0.0153387 0)
(1.09104 0.0114719 0)
(1.06991 0.0050381 0)
(1.04488 0.00185707 0)
(1.02204 -0.00562301 0)
(1.00177 -0.00850963 0)
(0.99308 -0.0102242 0)
(0.993819 -0.00824612 0)
(1.00055 -0.000815365 0)
(1.00933 0.00827655 0)
(1.00201 -2.51198e-05 0)
(1.00224 -0.00473505 0)
(0.959304 -0.0290962 0)
(1.05624 0.0108594 0)
(1.06962 0.0191223 0)
(1.03729 -0.00930763 0)
(0.989623 -0.0305645 0)
(0.992956 -0.014577 0)
(1.04206 0.0028991 0)
(1.06841 0.0125745 0)
(1.08743 0.0150791 0)
(1.08123 0.0120379 0)
(1.05827 0.00621446 0)
(1.03692 0.00294715 0)
(1.01878 -0.00433549 0)
(0.999912 -0.00779309 0)
(0.990137 -0.0098172 0)
(0.988867 -0.00838079 0)
(0.993492 -0.00145017 0)
(1.00144 0.00755716 0)
(1.00326 -5.9155e-05 0)
(1.00874 -0.00444993 0)
(0.967121 -0.0293587 0)
(1.02769 0.00976824 0)
(1.04769 0.0191541 0)
(1.03013 -0.00831017 0)
(0.991257 -0.0298624 0)
(0.987419 -0.0155312 0)
(1.03239 0.00170852 0)
(1.05664 0.0115912 0)
(1.07422 0.0148922 0)
(1.0659 0.0127076 0)
(1.04441 0.00732447 0)
(1.02813 0.00383287 0)
(1.01549 -0.00324058 0)
(0.999517 -0.00707077 0)
(0.989819 -0.00932105 0)
(0.987044 -0.00831565 0)
(0.989282 -0.00196356 0)
(0.99557 0.00681431 0)
(1.00229 -0.000153909 0)
(1.01374 -0.00424313 0)
(0.974588 -0.0292636 0)
(1.0055 0.00893007 0)
(1.02824 0.0189467 0)
(1.0223 -0.00760994 0)
(0.992909 -0.0291894 0)
(0.985115 -0.0163114 0)
(1.02229 0.000665799 0)
(1.04244 0.0107119 0)
(1.05615 0.0147893 0)
(1.04798 0.0133602 0)
(1.03054 0.00825953 0)
(1.01942 0.00446458 0)
(1.01204 -0.00240556 0)
(0.999644 -0.00641087 0)
(0.990945 -0.00880254 0)
(0.987356 -0.00809173 0)
(0.987402 -0.00230891 0)
(0.99147 0.00616374 0)
(1.001 -0.000276719 0)
(1.01589 -0.00413133 0)
(0.981541 -0.0288891 0)
(0.989944 0.00833196 0)
(1.01277 0.0185795 0)
(1.0152 -0.00717696 0)
(0.994108 -0.0285874 0)
(0.984396 -0.016902 0)
(1.01239 -0.000153992 0)
(1.02832 0.00999826 0)
(1.03718 0.0147625 0)
(1.03063 0.0138901 0)
(1.0186 0.00895872 0)
(1.01174 0.00485411 0)
(1.00863 -0.00184343 0)
(0.999727 -0.00587134 0)
(0.992508 -0.00831503 0)
(0.988757 -0.00774514 0)
(0.987201 -0.00246202 0)
(0.98889 0.0056624 0)
(1.0002 -0.00040068 0)
(1.01559 -0.0041071 0)
(0.987236 -0.028328 0)
(0.980178 0.00794418 0)
(1.00177 0.0181192 0)
(1.00984 -0.00695266 0)
(0.994844 -0.0280579 0)
(0.984061 -0.0173102 0)
(1.00346 -0.000746029 0)
(1.01601 0.00945177 0)
(1.02051 0.014791 0)
(1.01617 0.0142404 0)
(1.00964 0.00940916 0)
(1.00587 0.00505684 0)
(1.00576 -0.00152032 0)
(0.999642 -0.00547053 0)
(0.99386 -0.00787482 0)
(0.990362 -0.00732632 0)
(0.987989 -0.00242548 0)
(0.987639 0.00529955 0)
(1.00006 -0.000509308 0)
(1.01384 -0.00415136 0)
(0.991108 -0.0276504 0)
(0.974679 0.00772506 0)
(0.995023 0.0176081 0)
(1.00665 -0.00687319 0)
(0.995334 -0.0275701 0)
(0.983505 -0.0175537 0)
(0.996036 -0.0011415 0)
(1.00617 0.00903816 0)
(1.00772 0.0148423 0)
(1.00561 0.014405 0)
(1.00382 0.00963042 0)
(1.00218 0.00513502 0)
(1.0039 -0.0013693 0)
(0.999561 -0.00517948 0)
(0.994784 -0.00747593 0)
(0.991629 -0.00689636 0)
(0.989106 -0.00223784 0)
(0.98739 0.00505817 0)
(1.00042 -0.000596698 0)
(1.01154 -0.00423698 0)
(0.993082 -0.0269041 0)
(0.972014 0.00761064 0)
(0.991934 0.0170676 0)
(1.00552 -0.00687899 0)
(0.99579 -0.0270805 0)
(0.98259 -0.0176533 0)
(0.990253 -0.00138618 0)
(0.998719 0.0087104 0)
(0.998979 0.0148779 0)
(0.998909 0.0144057 0)
(1.0007 0.00965259 0)
(1.00055 0.00513811 0)
(1.00323 -0.00131984 0)
(0.999695 -0.00494408 0)
(0.995358 -0.00709523 0)
(0.992401 -0.00648912 0)
(0.990078 -0.00196985 0)
(0.987684 0.00491816 0)
(1.00108 -0.000663488 0)
(1.00927 -0.00433663 0)
(0.993506 -0.0261233 0)
(0.971212 0.00752982 0)
(0.99162 0.0164934 0)
(1.00594 -0.00692443 0)
(0.996299 -0.0265542 0)
(0.981439 -0.017631 0)
(0.985973 -0.00152241 0)
(0.993333 0.00842336 0)
(0.993654 0.0148588 0)
(0.995402 0.0142757 0)
(0.99958 0.00951463 0)
(1.00046 0.00509201 0)
(1.00354 -0.00131054 0)
(1.00012 -0.00472609 0)
(0.995758 -0.00668799 0)
(0.992802 -0.00610569 0)
(0.990722 -0.00166678 0)
(0.988118 0.00484998 0)
(1.00182 -0.000712584 0)
(1.00731 -0.00443083 0)
(0.992935 -0.0253308 0)
(0.971655 0.00742323 0)
(0.993065 0.0158818 0)
(1.00723 -0.00697527 0)
(0.996835 -0.0259656 0)
(0.980274 -0.017511 0)
(0.982953 -0.00159199 0)
(0.989693 0.00813751 0)
(0.990827 0.0147496 0)
(0.994141 0.0140494 0)
(0.999697 0.009257 0)
(1.00123 0.00502292 0)
(1.00441 -0.00129674 0)
(1.00077 -0.00450158 0)
(0.996108 -0.00621852 0)
(0.993037 -0.00572651 0)
(0.991084 -0.00136535 0)
(0.988488 0.00482538 0)
(1.00248 -0.000747783 0)
(1.00575 -0.00450739 0)
(0.991898 -0.0245414 0)
(0.972844 0.00725097 0)
(0.995296 0.0152399 0)
(1.00877 -0.00700902 0)
(0.997322 -0.0252968 0)
(0.979307 -0.0173067 0)
(0.980937 -0.00163231 0)
(0.98745 0.00782784 0)
(0.989552 0.014535 0)
(0.994123 0.0137554 0)
(1.00036 0.0089098 0)
(1.00226 0.00494589 0)
(1.00538 -0.0012556 0)
(1.00151 -0.0042602 0)
(0.996453 -0.0056838 0)
(0.993269 -0.00532522 0)
(0.991299 -0.00108797 0)
(0.988761 0.00483543 0)
(1.003 -0.000772339 0)
(1.00458 -0.00456207 0)
(0.990771 -0.0237604 0)
(0.974334 0.00699419 0)
(0.997573 0.0145782 0)
(1.01016 -0.00700928 0)
(0.997703 -0.0245466 0)
(0.978673 -0.0170337 0)
(0.97968 -0.0016618 0)
(0.986204 0.00749081 0)
(0.989015 0.0142222 0)
(0.994512 0.0134167 0)
(1.00104 0.00850527 0)
(1.00313 0.00485288 0)
(1.00612 -0.00117534 0)
(1.00221 -0.00400832 0)
(0.996783 -0.0050916 0)
(0.99357 -0.0048796 0)
(0.991477 -0.000822775 0)
(0.988978 0.00488359 0)
(1.00336 -0.000788382 0)
(1.00372 -0.00459625 0)
(0.989753 -0.0229868 0)
(0.975823 0.00665416 0)
(0.999481 0.0139059 0)
(1.01122 -0.00697047 0)
(0.997964 -0.0237327 0)
(0.978415 -0.0167074 0)
(0.978965 -0.00169348 0)
(0.985588 0.00713479 0)
(0.988682 0.0138303 0)
(0.994811 0.0130448 0)
(1.00146 0.00806473 0)
(1.00368 0.00474383 0)
(1.00647 -0.00105776 0)
(1.00277 -0.00374618 0)
(0.997068 -0.00445682 0)
(0.993941 -0.00437842 0)
(0.991679 -0.000562527 0)
(0.989193 0.00496632 0)
(1.00358 -0.000797291 0)
(1.00309 -0.00461215 0)
(0.988912 -0.0222193 0)
(0.977198 0.00624386 0)
(1.00088 0.0132211 0)
(1.01193 -0.00689812 0)
(0.998126 -0.0228713 0)
(0.978503 -0.01633 0)
(0.978627 -0.00173374 0)
(0.985352 0.00677202 0)
(0.988343 0.0133792 0)
(0.994886 0.0126479 0)
(1.00153 0.00759054 0)
(1.00389 0.00461413 0)
(1.00643 -0.000911564 0)
(1.00315 -0.0034891 0)
(0.997277 -0.0037999 0)
(0.994347 -0.00381805 0)
(0.991939 -0.000321874 0)
(0.989452 0.00507341 0)
(1.00368 -0.000800073 0)
(1.00261 -0.00461217 0)
(0.988249 -0.0214546 0)
(0.978478 0.00577144 0)
(1.00178 0.0125306 0)
(1.01234 -0.006798 0)
(0.99823 -0.0219697 0)
(0.978874 -0.01591 0)
(0.978559 -0.00177346 0)
(0.985367 0.00641276 0)
(0.988024 0.0128832 0)
(0.994819 0.0122364 0)
(1.00135 0.00709239 0)
(1.00385 0.00446106 0)
(1.00607 -0.000740966 0)
(1.00333 -0.00324492 0)
(0.997396 -0.00315942 0)
(0.994745 -0.00319569 0)
(0.992283 -8.97635e-05 0)
(0.989801 0.00519095 0)
(1.00371 -0.000796842 0)
(1.00226 -0.00459842 0)
(0.987739 -0.0206929 0)
(0.979709 0.00524864 0)
(1.00226 0.0118379 0)
(1.0125 -0.00667585 0)
(0.998326 -0.0210457 0)
(0.979451 -0.0154522 0)
(0.97868 -0.00181694 0)
(0.985568 0.00606564 0)
(0.987838 0.0123543 0)
(0.994747 0.0118166 0)
(1.00103 0.00659067 0)
(1.00362 0.00428364 0)
(1.00546 -0.000549379 0)
(1.00331 -0.0030132 0)
(0.997418 -0.00255687 0)
(0.995098 -0.00251498 0)
(0.992723 0.00014153 0)
(0.99027 0.00529115 0)
(1.00367 -0.00078829 0)
(1.00201 -0.00457243 0)
(0.987358 -0.0199347 0)
(0.980904 0.0046863 0)
(1.00242 0.0111472 0)
(1.01245 -0.00653529 0)
(0.99845 -0.0201146 0)
(0.980161 -0.0149592 0)
(0.978933 -0.00186456 0)
(0.985914 0.00572832 0)
(0.987872 0.0117977 0)
(0.994766 0.0113902 0)
(1.00067 0.00609664 0)
(1.00329 0.00408321 0)
(1.00471 -0.000341968 0)
(1.00312 -0.00279717 0)
(0.997354 -0.00200449 0)
(0.995369 -0.00179813 0)
(0.993246 0.000375189 0)
(0.990866 0.00534386 0)
(1.00357 -0.00077519 0)
(1.00188 -0.00453504 0)
(0.987106 -0.0191811 0)
(0.98203 0.00409346 0)
(1.00234 0.0104623 0)
(1.01221 -0.00638184 0)
(0.99861 -0.0191839 0)
(0.98095 -0.0144333 0)
(0.979275 -0.00190968 0)
(0.986363 0.00539084 0)
(0.988156 0.0112174 0)
(0.994905 0.0109665 0)
(1.00036 0.00562478 0)
(1.00291 0.00386619 0)
(1.00387 -0.000115518 0)
(1.00277 -0.00258878 0)
(0.997216 -0.00152218 0)
(0.995531 -0.00107825 0)
(0.993806 0.000623275 0)
(0.991563 0.00532018 0)
(1.00342 -0.000759028 0)
(1.00189 -0.00448955 0)
(0.987013 -0.018427 0)
(0.983031 0.00348045 0)
(1.00206 0.00978345 0)
(1.01181 -0.00622351 0)
(0.998784 -0.0182618 0)
(0.981786 -0.0138743 0)
(0.979688 -0.00195332 0)
(0.986874 0.00504892 0)
(0.988652 0.0106091 0)
(0.995139 0.0105553 0)
(1.00013 0.00519489 0)
(1.00255 0.00363697 0)
(1.00303 0.000132649 0)
(1.00231 -0.00238209 0)
(0.997027 -0.00111682 0)
(0.995573 -0.000384505 0)
(0.994336 0.000907348 0)
(0.992317 0.00520668 0)
(1.00321 -0.000741386 0)
(1.00201 -0.00443844 0)
(0.987118 -0.0176701 0)
(0.98386 0.00285797 0)
(1.00162 0.00911125 0)
(1.01124 -0.00606709 0)
(0.998925 -0.017358 0)
(0.982661 -0.0132877 0)
(0.980171 -0.00199365 0)
(0.987412 0.00469724 0)
(0.989285 0.00997039 0)
(0.995412 0.0101552 0)
(0.999979 0.004813 0)
(1.00222 0.00339891 0)
(1.00224 0.00040603 0)
(1.00179 -0.00216143 0)
(0.996813 -0.000787909 0)
(0.995509 0.000263271 0)
(0.994778 0.00124263 0)
(0.993071 0.00501577 0)
(1.00293 -0.000724171 0)
(1.00223 -0.00438581 0)
(0.987449 -0.0169075 0)
(0.9845 0.00223928 0)
(1.00105 0.00844137 0)
(1.01052 -0.00591379 0)
(0.998986 -0.0164785 0)
(0.983569 -0.0126833 0)
(0.98073 -0.00202499 0)
(0.987957 0.0043304 0)
(0.989973 0.00930857 0)
(0.995659 0.00976377 0)
(0.999886 0.00448848 0)
(1.00195 0.00316073 0)
(1.00153 0.00069587 0)
(1.00125 -0.00191452 0)
(0.996605 -0.00052534 0)
(0.995371 0.000850424 0)
(0.995094 0.00162348 0)
(0.993779 0.00477156 0)
(1.00261 -0.000707722 0)
(1.00248 -0.00433931 0)
(0.988002 -0.016133 0)
(0.984978 0.00163553 0)
(1.00039 0.00777416 0)
(1.00968 -0.00576236 0)
(0.998933 -0.0156312 0)
(0.9845 -0.0120705 0)
(0.981366 -0.00204271 0)
(0.988501 0.00395819 0)
(0.990651 0.0086199 0)
(0.995836 0.00937626 0)
(0.999807 0.00422995 0)
(1.00171 0.00292481 0)
(1.00091 0.000996394 0)
(1.00072 -0.00162603 0)
(0.996436 -0.000317598 0)
(0.99521 0.00135467 0)
(0.995282 0.00204282 0)
(0.994412 0.00452357 0)
(1.00226 -0.000691611 0)
(1.0027 -0.00430349 0)
(0.988729 -0.0153471 0)
(0.985355 0.00106149 0)
(0.999703 0.00710927 0)
(1.00878 -0.00561655 0)
(0.998766 -0.0148211 0)
(0.985428 -0.0114606 0)
(0.982071 -0.00204814 0)
(0.989047 0.00358536 0)
(0.991283 0.00791471 0)
(0.995921 0.00898707 0)
(0.999705 0.00402782 0)
(1.0015 0.002686 0)
(1.0004 0.00130107 0)
(1.00022 -0.00127902 0)
(0.996332 -0.000158372 0)
(0.995079 0.00175635 0)
(0.995368 0.00248189 0)
(0.994955 0.00433111 0)
(1.00191 -0.00067578 0)
(1.00285 -0.00428207 0)
(0.989555 -0.014552 0)
(0.985707 0.000532602 0)
(0.999041 0.00644526 0)
(1.00787 -0.00547569 0)
(0.998509 -0.0140492 0)
(0.986323 -0.0108689 0)
(0.982826 -0.00203785 0)
(0.989598 0.00321574 0)
(0.991857 0.00720744 0)
(0.995919 0.0085912 0)
(0.999556 0.00388454 0)
(1.0013 0.00244921 0)
(0.999996 0.00159053 0)
(0.99978 -0.000873815 0)
(0.996302 -2.96336e-05 0)
(0.995025 0.00204867 0)
(0.995397 0.00291221 0)
(0.995407 0.00423688 0)
(1.0016 -0.000657149 0)
(1.00291 -0.00427916 0)
(0.990398 -0.0137509 0)
(0.986097 5.08155e-05 0)
(0.998455 0.0057828 0)
(1.00699 -0.00533678 0)
(0.998207 -0.0133136 0)
(0.98716 -0.0103026 0)
(0.983605 -0.00201642 0)
(0.990148 0.00286148 0)
(0.992376 0.00650022 0)
(0.995851 0.00817548 0)
(0.999344 0.00379837 0)
(1.00112 0.00221931 0)
(0.999679 0.00184752 0)
(0.999387 -0.000413201 0)
(0.996338 0.000102212 0)
(0.995074 0.0022442 0)
(0.995421 0.00329679 0)
(0.995775 0.00424333 0)
(1.00132 -0.0006351 0)
(1.00288 -0.00429213 0)
(0.991189 -0.0129559 0)
(0.98656 -0.000378238 0)
(0.997975 0.0051222 0)
(1.00618 -0.00519981 0)
(0.997906 -0.0126109 0)
(0.987924 -0.0097666 0)
(0.984386 -0.00199168 0)
(0.990689 0.00252466 0)
(0.992846 0.00580583 0)
(0.995745 0.00774085 0)
(0.99907 0.00375766 0)
(1.00095 0.00200717 0)
(0.999443 0.00205142 0)
(0.999043 8.11952e-05 0)
(0.996422 0.000260983 0)
(0.995229 0.00235721 0)
(0.995475 0.00360779 0)
(0.996078 0.00431697 0)
(1.0011 -0.000609271 0)
(1.00277 -0.00431605 0)
(0.991886 -0.012175 0)
(0.987104 -0.000754967 0)
(0.99761 0.0044691 0)
(1.00543 -0.00506539 0)
(0.997639 -0.0119366 0)
(0.988617 -0.00925713 0)
(0.985148 -0.00196547 0)
(0.991207 0.00220826 0)
(0.993277 0.00513444 0)
(0.99563 0.0072891 0)
(0.998737 0.00375036 0)
(1.00078 0.00182392 0)
(0.999275 0.00218783 0)
(0.998742 0.000599211 0)
(0.996526 0.000467436 0)
(0.995473 0.00240353 0)
(0.995581 0.00385301 0)
(0.996333 0.00443592 0)
(1.00093 -0.000578301 0)
(1.00261 -0.00434633 0)
(0.992478 -0.0114148 0)
(0.987713 -0.00108357 0)
(0.997351 0.00382494 0)
(1.00475 -0.00493191 0)
(0.997423 -0.0112859 0)
(0.989251 -0.00878433 0)
(0.985879 -0.00193978 0)
(0.991693 0.00191999 0)
(0.993674 0.00448868 0)
(0.995526 0.00681677 0)
(0.998362 0.00377312 0)
(1.00061 0.00167939 0)
(0.999166 0.00224322 0)
(0.998479 0.00112344 0)
(0.996618 0.000738428 0)
(0.995779 0.00239284 0)
(0.995748 0.00402582 0)
(0.996551 0.0045886 0)
(1.0008 -0.000543088 0)
(1.00244 -0.00437873 0)
(0.992974 -0.0106875 0)
(0.98836 -0.00135919 0)
(0.99718 0.00319155 0)
(1.00413 -0.00480298 0)
(0.997258 -0.0106534 0)
(0.98984 -0.00833557 0)
(0.986578 -0.00192701 0)
(0.992141 0.0016531 0)
(0.994043 0.00388031 0)
(0.995453 0.00632258 0)
(0.99796 0.00381018 0)
(1.00043 0.00159033 0)
(0.999109 0.00221554 0)
(0.998256 0.0016155 0)
(0.996671 0.00108672 0)
(0.996111 0.00235141 0)
(0.995983 0.00409978 0)
(0.996744 0.00475814 0)
(1.00069 -0.000504032 0)
(1.00226 -0.00440486 0)
(0.993395 -0.00999594 0)
(0.989021 -0.00159727 0)
(0.997077 0.00257787 0)
(1.00355 -0.00467694 0)
(0.997136 -0.0100468 0)
(0.990398 -0.00790733 0)
(0.987243 -0.00191373 0)
(0.992552 0.00140694 0)
(0.994389 0.00331705 0)
(0.995417 0.00581744 0)
(0.997551 0.00383276 0)
(1.00023 0.00155459 0)
(0.999097 0.00212846 0)
(0.998083 0.00203573 0)
(0.996673 0.00150258 0)
(0.996426 0.00233288 0)
(0.996279 0.00407107 0)
(0.996925 0.00492598 0)
(1.0006 -0.000463497 0)
(1.00209 -0.00442326 0)
(0.993765 -0.00934289 0)
(0.989676 -0.00179244 0)
(0.997023 0.00197888 0)
(1.00301 -0.00455721 0)
(0.997042 -0.00945193 0)
(0.990934 -0.00750978 0)
(0.98788 -0.00191078 0)
(0.992925 0.00118599 0)
(0.994716 0.002783 0)
(0.995423 0.00531266 0)
(0.99715 0.00385471 0)
(1.00001 0.00156721 0)
(0.999123 0.0020103 0)
(0.997969 0.00236595 0)
(0.996627 0.00196127 0)
(0.99669 0.0023795 0)
(0.996622 0.003944 0)
(0.997119 0.00503967 0)
(1.00052 -0.000420564 0)
(1.00194 -0.00442818 0)
(0.994106 -0.00873547 0)
(0.99031 -0.00195541 0)
(0.997002 0.00141268 0)
(1.00251 -0.00444642 0)
(0.996968 -0.00889148 0)
(0.991447 -0.0071101 0)
(0.988493 -0.00192095 0)
(0.993264 0.000981171 0)
(0.995025 0.00229527 0)
(0.995475 0.00477858 0)
(0.996767 0.00386611 0)
(0.999757 0.00163234 0)
(0.999177 0.00186572 0)
(0.997924 0.00259395 0)
(0.996548 0.0024303 0)
(0.996868 0.00252707 0)
(0.996984 0.00377428 0)
(0.997358 0.00502491 0)
(1.00045 -0.000377805 0)
(1.0018 -0.0044221 0)
(0.994432 -0.00816435 0)
(0.990919 -0.00208049 0)
(0.997005 0.000859556 0)
(1.00205 -0.0043274 0)
(0.996909 -0.00834095 0)
(0.991945 -0.00675885 0)
(0.989081 -0.00193057 0)
(0.993574 0.00079697 0)
(0.995313 0.00185825 0)
(0.995571 0.00425799 0)
(0.996421 0.00381799 0)
(0.999475 0.00175434 0)
(0.999244 0.00173894 0)
(0.997959 0.00270343 0)
(0.996468 0.00286417 0)
(0.996955 0.00276707 0)
(0.997313 0.00367041 0)
(0.99765 0.00488971 0)
(1.00038 -0.000336874 0)
(1.00168 -0.00439111 0)
(0.994755 -0.00765169 0)
(0.991495 -0.00217137 0)
(0.997022 0.000347703 0)
(1.00163 -0.00423582 0)
(0.996852 -0.00781259 0)
(0.992418 -0.00639637 0)
(0.989655 -0.00196255 0)
(0.993854 0.000630092 0)
(0.995583 0.00145905 0)
(0.995705 0.00373727 0)
(0.996117 0.00374657 0)
(0.999172 0.00186404 0)
(0.999302 0.00165953 0)
(0.998065 0.00271958 0)
(0.996415 0.00322791 0)
(0.996969 0.0030697 0)
(0.997577 0.00365162 0)
(0.997966 0.00471265 0)
(1.00031 -0.00029624 0)
(1.00157 -0.00435114 0)
(0.995076 -0.00716502 0)
(0.992046 -0.00224417 0)
(0.997045 -0.000143232 0)
(1.00124 -0.00412811 0)
(0.996813 -0.00731346 0)
(0.99287 -0.00607385 0)
(0.990203 -0.00198761 0)
(0.994112 0.000471548 0)
(0.995823 0.00111428 0)
(0.995879 0.00322423 0)
(0.995861 0.0036332 0)
(0.998844 0.0020053 0)
(0.999348 0.00157944 0)
(0.998233 0.00263592 0)
(0.996413 0.00346768 0)
(0.996928 0.00336118 0)
(0.997758 0.00370611 0)
(0.998263 0.00451807 0)
(1.00025 -0.000260589 0)
(1.00147 -0.00428221 0)
(0.995401 -0.0067385 0)
(0.992562 -0.00227398 0)
(0.997078 -0.000596993 0)
(1.00089 -0.00405156 0)
(0.996768 -0.00681897 0)
(0.993298 -0.00576052 0)
(0.990742 -0.0020335 0)
(0.994347 0.000330613 0)
(0.99604 0.000815582 0)
(0.996075 0.00273189 0)
(0.99567 0.00346244 0)
(0.998501 0.002153 0)
(0.999343 0.00154147 0)
(0.998447 0.00246257 0)
(0.996474 0.00348677 0)
(0.996872 0.00352608 0)
(0.997852 0.00369807 0)
(0.998526 0.00431126 0)
(1.00018 -0.000228494 0)
(1.00138 -0.00419364 0)
(0.995727 -0.00635004 0)
(0.993054 -0.00229326 0)
(0.997109 -0.00100586 0)
(1.00058 -0.00398049 0)
(0.996746 -0.00635917 0)
(0.993699 -0.00544998 0)
(0.991257 -0.00208706 0)
(0.994569 0.00020206 0)
(0.996221 0.000573303 0)
(0.996291 0.00224706 0)
(0.995539 0.00324938 0)
(0.998158 0.0022742 0)
(0.999288 0.0015261 0)
(0.998649 0.0022649 0)
(0.996585 0.00339495 0)
(0.99681 0.00357457 0)
(0.997899 0.00361556 0)
(0.998835 0.00412897 0)
(1.00012 -0.000200779 0)
(1.0013 -0.00408952 0)
(0.996055 -0.00599853 0)
(0.99351 -0.00229129 0)
(0.997152 -0.00137348 0)
(1.00032 -0.00392663 0)
(0.996717 -0.00590706 0)
(0.99407 -0.00516043 0)
(0.991764 -0.0021392 0)
(0.994781 6.32208e-05 0)
(0.996374 0.000367389 0)
(0.996511 0.00181913 0)
(0.99548 0.0029806 0)
(0.997822 0.00236907 0)
(0.999171 0.00157785 0)
(0.998857 0.00207914 0)
(0.996737 0.00332295 0)
(0.996745 0.00372932 0)
(0.997909 0.00374767 0)
(0.999174 0.00409304 0)
(1.00007 -0.000179735 0)
(1.00122 -0.00395378 0)
(0.996383 -0.00570098 0)
(0.993948 -0.00227388 0)
(0.997186 -0.00168417 0)
(1.00009 -0.00390856 0)
(0.996717 -0.00548216 0)
(0.994408 -0.00485132 0)
(0.99224 -0.00221111 0)
(0.994986 -7.47775e-05 0)
(0.996502 0.000205525 0)
(0.996729 0.00141869 0)
(0.995473 0.00268743 0)
(0.997529 0.00241912 0)
(0.999008 0.00168892 0)
(0.999033 0.00196373 0)
(0.996986 0.00323952 0)
(0.996754 0.00391915 0)
(0.997867 0.0040047 0)
(0.999362 0.00413918 0)
(1.00002 -0.000166185 0)
(1.00115 -0.00380545 0)
(0.996711 -0.00542513 0)
(0.994356 -0.00225249 0)
(0.997226 -0.00194634 0)
(0.999906 -0.00388406 0)
(0.99672 -0.00509687 0)
(0.994711 -0.00455177 0)
(0.992699 -0.00227045 0)
(0.995194 -0.000226273 0)
(0.996604 7.62707e-05 0)
(0.996936 0.00106794 0)
(0.995531 0.00238781 0)
(0.997275 0.00244211 0)
(0.998812 0.00180539 0)
(0.999186 0.00194384 0)
(0.997277 0.00310887 0)
(0.996824 0.0039755 0)
(0.997799 0.00419236 0)
(0.999428 0.0041499 0)
(0.999973 -0.000158957 0)
(1.00108 -0.00363036 0)
(0.997036 -0.00519584 0)
(0.994748 -0.00222337 0)
(0.997255 -0.00214069 0)
(0.999757 -0.00389698 0)
(0.996758 -0.00474208 0)
(0.994986 -0.00422515 0)
(0.99312 -0.00232111 0)
(0.995398 -0.000382245 0)
(0.996692 -3.89819e-05 0)
(0.997133 0.000777021 0)
(0.995634 0.0020884 0)
(0.997079 0.0024132 0)
(0.99861 0.00194546 0)
(0.999276 0.0019423 0)
(0.997583 0.00294628 0)
(0.996976 0.00398126 0)
(0.997722 0.00432834 0)
(0.999392 0.00417132 0)
(0.999933 -0.000161317 0)
(1.00101 -0.00344363 0)
(0.997357 -0.00498204 0)
(0.995121 -0.00220062 0)
(0.997281 -0.00228738 0)
(0.999647 -0.00389057 0)
(0.996815 -0.00444295 0)
(0.995228 -0.00390829 0)
(0.993515 -0.00233581 0)
(0.995605 -0.000546795 0)
(0.996766 -0.000128371 0)
(0.997314 0.000545993 0)
(0.995783 0.00181208 0)
(0.996943 0.00236573 0)
(0.998397 0.00204066 0)
(0.999315 0.00196254 0)
(0.997905 0.00283074 0)
(0.997193 0.00391721 0)
(0.997648 0.00439742 0)
(0.999294 0.00420221 0)
(0.9999 -0.000170779 0)
(1.00094 -0.00323936 0)
(0.997671 -0.00479848 0)
(0.995482 -0.00218027 0)
(0.9973 -0.00237164 0)
(0.99956 -0.00389109 0)
(0.99691 -0.0042027 0)
(0.995456 -0.00357225 0)
(0.993865 -0.00230994 0)
(0.995807 -0.000710571 0)
(0.99684 -0.000198674 0)
(0.997481 0.000390185 0)
(0.995964 0.0015707 0)
(0.996857 0.0022789 0)
(0.998196 0.00210651 0)
(0.999322 0.00201836 0)
(0.9982 0.00274006 0)
(0.997451 0.00375837 0)
(0.997609 0.00439122 0)
(0.99915 0.00424447 0)
(0.999874 -0.000189304 0)
(1.00087 -0.00302685 0)
(0.997976 -0.0046256 0)
(0.995832 -0.002171 0)
(0.997313 -0.00241106 0)
(0.999498 -0.00386713 0)
(0.997037 -0.00400918 0)
(0.995668 -0.0032682 0)
(0.994178 -0.00224205 0)
(0.996012 -0.000848877 0)
(0.996921 -0.000264746 0)
(0.997629 0.000282952 0)
(0.996163 0.00136713 0)
(0.996825 0.00217594 0)
(0.998018 0.00215325 0)
(0.999296 0.00205788 0)
(0.998449 0.00265226 0)
(0.997738 0.00356865 0)
(0.997638 0.0043073 0)
(0.998976 0.00428704 0)
(0.999853 -0.000215432 0)
(1.0008 -0.00280513 0)
(0.998267 -0.00446538 0)
(0.996178 -0.00217539 0)
(0.997323 -0.00240245 0)
(0.999446 -0.00381799 0)
(0.997198 -0.00387709 0)
(0.995886 -0.00298438 0)
(0.994452 -0.00211567 0)
(0.996204 -0.000962078 0)
(0.997013 -0.000345462 0)
(0.99777 0.000206014 0)
(0.996374 0.00120714 0)
(0.996838 0.00205761 0)
(0.997859 0.00216368 0)
(0.999245 0.00207566 0)
(0.99866 0.00256909 0)
(0.99803 0.00338138 0)
(0.997737 0.00414003 0)
(0.998807 0.0042759 0)
(0.999839 -0.000248842 0)
(1.00072 -0.00258087 0)
(0.998542 -0.00430775 0)
(0.99652 -0.00219416 0)
(0.997333 -0.00236358 0)
(0.9994 -0.00373256 0)
(0.99739 -0.00377908 0)
(0.996116 -0.00274599 0)
(0.994692 -0.00196046 0)
(0.996378 -0.00102905 0)
(0.99712 -0.000428826 0)
(0.997911 0.000140128 0)
(0.996588 0.00107049 0)
(0.996886 0.00193438 0)
(0.997729 0.00215628 0)
(0.999176 0.00208908 0)
(0.998831 0.00248517 0)
(0.998305 0.00320178 0)
(0.997886 0.00393811 0)
(0.998703 0.00418987 0)
(0.999831 -0.000288762 0)
(1.00065 -0.00235704 0)
(0.998795 -0.00414725 0)
(0.996861 -0.00222696 0)
(0.997348 -0.00230253 0)
(0.999351 -0.00360607 0)
(0.997604 -0.00371313 0)
(0.996372 -0.00256225 0)
(0.99491 -0.00177618 0)
(0.996526 -0.00104132 0)
(0.997232 -0.000507208 0)
(0.998056 6.06905e-05 0)
(0.99681 0.000951785 0)
(0.996971 0.0018233 0)
(0.997628 0.00213512 0)
(0.999089 0.00209074 0)
(0.998966 0.00239909 0)
(0.998565 0.00302846 0)
(0.998066 0.00374793 0)
(0.998686 0.00402662 0)
(0.999829 -0.000332746 0)
(1.00057 -0.00213717 0)
(0.999023 -0.00398191 0)
(0.997199 -0.00227084 0)
(0.997374 -0.00223252 0)
(0.999294 -0.00343977 0)
(0.997828 -0.00365436 0)
(0.99666 -0.0024379 0)
(0.995119 -0.00158975 0)
(0.996644 -0.000998594 0)
(0.997338 -0.000559497 0)
(0.99821 -2.02001e-05 0)
(0.997046 0.000837254 0)
(0.997086 0.00171193 0)
(0.997554 0.00209816 0)
(0.998991 0.0020864 0)
(0.999065 0.00233158 0)
(0.998816 0.00285406 0)
(0.998248 0.0035756 0)
(0.998734 0.00381881 0)
(0.99983 -0.000380203 0)
(1.00049 -0.0019251 0)
(0.999223 -0.00380609 0)
(0.997533 -0.00232015 0)
(0.997418 -0.00216135 0)
(0.999228 -0.00323695 0)
(0.998049 -0.00358826 0)
(0.996981 -0.0023742 0)
(0.995337 -0.00141988 0)
(0.996737 -0.000907273 0)
(0.997428 -0.000577373 0)
(0.998361 -9.28217e-05 0)
(0.997293 0.000709019 0)
(0.997236 0.00158935 0)
(0.997515 0.00205774 0)
(0.998895 0.00207996 0)
(0.999125 0.00228507 0)
(0.999054 0.00267267 0)
(0.998434 0.00340289 0)
(0.998809 0.00362659 0)
(0.999835 -0.000427857 0)
(1.00041 -0.00172682 0)
(0.999392 -0.00361435 0)
(0.997859 -0.00237007 0)
(0.997483 -0.00209703 0)
(0.999153 -0.00300155 0)
(0.998252 -0.00349253 0)
(0.997332 -0.00236161 0)
(0.995578 -0.00129098 0)
(0.996811 -0.00078357 0)
(0.997494 -0.000557402 0)
(0.9985 -0.000151742 0)
(0.997549 0.000584953 0)
(0.997428 0.00145327 0)
(0.997514 0.00200719 0)
(0.998804 0.00206359 0)
(0.999139 0.00224972 0)
(0.999266 0.00250355 0)
(0.998642 0.00320082 0)
(0.998881 0.00347734 0)
(0.999843 -0.000471739 0)
(1.00033 -0.00154946 0)
(0.999527 -0.00340317 0)
(0.998174 -0.00241377 0)
(0.997575 -0.0020461 0)
(0.999074 -0.00274659 0)
(0.998422 -0.00334972 0)
(0.997697 -0.0023869 0)
(0.995856 -0.00122155 0)
(0.99688 -0.000643363 0)
(0.997532 -0.000496 0)
(0.998618 -0.000186813 0)
(0.997801 0.000473787 0)
(0.997653 0.00130283 0)
(0.997557 0.00193327 0)
(0.998729 0.00203431 0)
(0.999118 0.00222445 0)
(0.999429 0.00237927 0)
(0.998884 0.00296627 0)
(0.998964 0.00333616 0)
(0.999853 -0.000509009 0)
(1.00025 -0.00139466 0)
(0.999629 -0.00317781 0)
(0.998471 -0.00243658 0)
(0.997697 -0.00201599 0)
(0.998999 -0.00249584 0)
(0.998548 -0.00314854 0)
(0.998058 -0.00242113 0)
(0.99618 -0.00122124 0)
(0.996963 -0.000517082 0)
(0.997541 -0.000401874 0)
(0.998707 -0.000189238 0)
(0.998041 0.000380869 0)
(0.997906 0.0011453 0)
(0.997647 0.00184005 0)
(0.99868 0.00198925 0)
(0.999084 0.00219255 0)
(0.999523 0.00230492 0)
(0.999126 0.00273291 0)
(0.999097 0.00314528 0)
(0.999864 -0.000538802 0)
(1.00019 -0.00126269 0)
(0.9997 -0.00294104 0)
(0.998742 -0.00243462 0)
(0.997844 -0.0019988 0)
(0.998943 -0.00226901 0)
(0.99863 -0.00289629 0)
(0.998388 -0.00241882 0)
(0.996545 -0.00128484 0)
(0.997079 -0.000429316 0)
(0.997533 -0.000289201 0)
(0.998761 -0.000158936 0)
(0.998253 0.000318125 0)
(0.998176 0.000986899 0)
(0.997782 0.0017251 0)
(0.998659 0.00193292 0)