/*--------------------------------*- C++ -*----------------------------------*\
| =========                 |                                                 |
| \\      /  F ield         | OpenFOAM: The Open Source CFD Toolbox           |
|  \\    /   O peration     | Version:  v1912                                 |
|   \\  /    A nd           | Website:  www.openfoam.com                      |
|    \\/     M anipulation  |                                                 |
\*---------------------------------------------------------------------------*/
FoamFile
{
    version     2.0;
    format      ascii;
    class       volScalarField;
    location    "8.4";
    object      p;
}
// * * * * * * * * * * * * * * * * * * * * * * * * * * * * * * * * * * * * * //

dimensions      [0 2 -2 0 0 0 0];


internalField   nonuniform List<scalar> 
9600
(
8.71776e-10
-0.000708299
-0.00077606
-0.00119636
-0.00180545
-0.00270878
-0.000658
0.00127143
-0.000471326
-0.00132852
-0.0018837
-0.00311942
-0.00429126
-0.00263712
-0.00239521
0.000254892
4.56838e-05
0.0030575
0.00518156
0.012584
1.27131e-06
-0.000719113
-0.000766932
-0.00120467
-0.00180778
-0.00268436
-0.000666033
0.00122853
-0.000450231
-0.00136627
-0.00188214
-0.00315309
-0.00429795
-0.00261817
-0.0023842
0.000263889
7.15074e-05
0.00303765
0.00519962
0.0116982
1.55228e-06
-0.000732646
-0.000757015
-0.00121402
-0.0018068
-0.00266314
-0.000678826
0.00118138
-0.000423078
-0.00140565
-0.00188118
-0.0031403
-0.00429526
-0.00259003
-0.00236589
0.000253338
9.96406e-05
0.00299604
0.00519088
0.0110531
1.27191e-06
-0.000749183
-0.000751955
-0.00122216
-0.00180503
-0.00264598
-0.000688727
0.00112571
-0.000415675
-0.0014421
-0.0018814
-0.00309878
-0.00429899
-0.00256538
-0.0023458
0.000225419
0.000126982
0.00294033
0.00517254
0.0103962
5.97699e-07
-0.000769775
-0.000751135
-0.00122836
-0.001803
-0.00263114
-0.000695947
0.00105727
-0.000426198
-0.00147714
-0.00188154
-0.00304404
-0.00430562
-0.00254345
-0.00232315
0.000187496
0.000153286
0.0028752
0.00513686
0.00976336
-7.94795e-07
-0.000794657
-0.000752708
-0.00123194
-0.00180099
-0.00261793
-0.000701962
0.000975703
-0.000447254
-0.00150811
-0.00188044
-0.00298189
-0.00430985
-0.00252319
-0.00229308
0.000141781
0.000179075
0.0028033
0.0050827
0.00914159
-3.23518e-06
-0.000823679
-0.0007552
-0.00123263
-0.00179918
-0.00260545
-0.000708053
0.00088139
-0.000474925
-0.00153435
-0.00187781
-0.00291515
-0.0043078
-0.00250172
-0.00225376
8.82762e-05
0.000203509
0.00272584
0.00500705
0.00852835
-7.00461e-06
-0.000856613
-0.000757405
-0.00123033
-0.00179735
-0.00259252
-0.000717478
0.00077463
-0.0005063
-0.00155523
-0.00187346
-0.00284515
-0.00429735
-0.00247705
-0.0022063
2.83055e-05
0.000226279
0.00264289
0.00490964
0.00792752
-1.22664e-05
-0.00089313
-0.000758542
-0.00122521
-0.00179507
-0.00257808
-0.000726499
0.000657018
-0.000538118
-0.00157078
-0.00186765
-0.00277272
-0.00427731
-0.00244887
-0.00215302
-3.58259e-05
0.000246447
0.00255417
0.00479342
0.00734334
-1.89395e-05
-0.000932708
-0.000758447
-0.00121768
-0.00179194
-0.00256148
-0.000736785
0.000531887
-0.00056715
-0.00158265
-0.00186057
-0.00269834
-0.00424772
-0.00241796
-0.00209664
-0.000102388
0.000261956
0.00246007
0.004662
0.00677732
-2.66592e-05
-0.000974609
-0.000757469
-0.0012084
-0.00178778
-0.00254266
-0.000748136
0.000403272
-0.00059079
-0.0015935
-0.00185212
-0.00262275
-0.00420944
-0.00238537
-0.00204043
-0.000170226
0.000271282
0.00236063
0.00451672
0.00622911
-3.48707e-05
-0.00101795
-0.000756203
-0.00119835
-0.00178263
-0.00252201
-0.000760555
0.000274677
-0.000607573
-0.00160589
-0.00184256
-0.00254696
-0.00416355
-0.0023522
-0.00198751
-0.000237876
0.000273647
0.00225393
0.00435663
0.00569938
-4.30082e-05
-0.00106188
-0.000755239
-0.00118851
-0.00177665
-0.00250015
-0.000774508
0.00014903
-0.000617573
-0.00162173
-0.00183237
-0.00247171
-0.00411174
-0.0023195
-0.00194
-0.000304176
0.000268438
0.0021371
0.00418152
0.00518963
-5.06649e-05
-0.00110575
-0.000755032
-0.00117958
-0.00177009
-0.00247762
-0.000790588
2.86353e-05
-0.00062231
-0.00164216
-0.00182215
-0.00239762
-0.00405603
-0.00228776
-0.00189891
-0.000369359
0.000255672
0.0020082
0.00399257
0.00469974
-5.76772e-05
-0.00114922
-0.000755861
-0.00117186
-0.00176318
-0.00245474
-0.000809155
-8.48868e-05
-0.000623946
-0.00166741
-0.00181289
-0.00232537
-0.00399823
-0.00225675
-0.00186464
-0.000434544
0.000236327
0.00186607
0.00379023
0.00422965
-6.41114e-05
-0.0011922
-0.000757841
-0.00116538
-0.00175615
-0.00243153
-0.000830298
-0.000190515
-0.000624353
-0.00169706
-0.00180575
-0.00225538
-0.00393987
-0.00222615
-0.00183683
-0.000501363
0.000211921
0.00170956
0.0035735
0.00378088
-7.01916e-05
-0.00123482
-0.00076097
-0.00116004
-0.00174925
-0.00240788
-0.000853994
-0.000287988
-0.000624895
-0.00173036
-0.00180176
-0.00218771
-0.00388219
-0.00219573
-0.00181447
-0.000572032
0.000184229
0.00153829
0.00334065
0.00335637
-7.62153e-05
-0.00127728
-0.000765189
-0.00115567
-0.00174269
-0.00238359
-0.000880257
-0.000377815
-0.000626498
-0.00176628
-0.00180183
-0.00212218
-0.00382585
-0.00216555
-0.0017961
-0.000649335
0.000154611
0.00135412
0.00308961
0.00295842
-8.24858e-05
-0.00131976
-0.000770428
-0.00115212
-0.00173667
-0.00235848
-0.000909139
-0.000461102
-0.00062992
-0.0018035
-0.00180673
-0.00205838
-0.00377101
-0.00213635
-0.00177954
-0.000736336
0.000123128
0.00116119
0.00281783
0.00258712
-8.92632e-05
-0.00136239
-0.000776651
-0.00114922
-0.0017314
-0.00233247
-0.000940753
-0.000539202
-0.000635971
-0.00184071
-0.00181687
-0.00199589
-0.00371755
-0.00210926
-0.0017626
-0.00083529
8.8707e-05
0.000964398
0.00252292
0.00224095
-9.67555e-05
-0.00140527
-0.000783879
-0.00114683
-0.00172708
-0.00230549
-0.00097532
-0.000613506
-0.000645333
-0.00187674
-0.0018325
-0.00193458
-0.00366485
-0.00208579
-0.00174371
-0.00094729
4.92385e-05
0.000769263
0.00220329
0.00191705
-0.000105134
-0.00144841
-0.000792181
-0.00114484
-0.0017239
-0.0022775
-0.00101307
-0.000685088
-0.00065867
-0.00191074
-0.00185375
-0.00187472
-0.00361206
-0.00206794
-0.00172121
-0.0010723
8.264e-07
0.000582057
0.0018588
0.00160951
-0.00011454
-0.0014918
-0.000801661
-0.00114316
-0.00172209
-0.00224849
-0.00105424
-0.000754589
-0.000676623
-0.00194215
-0.00188057
-0.00181707
-0.00355821
-0.00205758
-0.00169413
-0.00120928
-6.2126e-05
0.000408936
0.00149229
0.0013091
-0.000125084
-0.00153545
-0.000812483
-0.00114168
-0.00172191
-0.00221852
-0.00109907
-0.000822336
-0.000699684
-0.00197078
-0.00191277
-0.00176279
-0.00350243
-0.00205617
-0.00166265
-0.00135612
-0.000145631
0.000254823
0.00110981
0.00100437
-0.000136856
-0.00157931
-0.000824866
-0.00114024
-0.00172358
-0.00218771
-0.00114774
-0.00088846
-0.000728361
-0.00199684
-0.00194974
-0.00171324
-0.0034443
-0.00206492
-0.00162778
-0.00150916
-0.000255498
0.000121616
0.000721266
0.000683028
-0.000149935
-0.00162333
-0.000839026
-0.00113871
-0.00172738
-0.00215617
-0.00120035
-0.000953193
-0.000762912
-0.00202079
-0.00199047
-0.00166975
-0.00338401
-0.00208488
-0.00159115
-0.00166407
-0.000396304
7.2018e-06
0.000339416
0.00033609
-0.000164387
-0.00166746
-0.000855227
-0.00113697
-0.00173357
-0.00212398
-0.00125697
-0.00101696
-0.000802995
-0.00204351
-0.00203392
-0.00163339
-0.00332208
-0.00211666
-0.00155509
-0.00181598
-0.000570669
-9.40018e-05
-2.24657e-05
-4.04439e-05
-0.000180243
-0.00171163
-0.000873801
-0.00113487
-0.0017424
-0.00209121
-0.00131744
-0.00108037
-0.000848001
-0.00206607
-0.00207913
-0.00160494
-0.00325909
-0.0021603
-0.00152277
-0.00195952
-0.000779056
-0.000191342
-0.000350748
-0.000445239
-0.000197519
-0.00175577
-0.000895099
-0.00113223
-0.00175413
-0.00205808
-0.00138121
-0.00114459
-0.000897175
-0.00208965
-0.00212553
-0.00158451
-0.00319582
-0.00221553
-0.00149705
-0.00209024
-0.00101947
-0.000296517
-0.000633841
-0.000869
-0.000216229
-0.0017998
-0.00091952
-0.0011288
-0.00176895
-0.0020249
-0.0014477
-0.00121028
-0.00094905
-0.00211527
-0.00217294
-0.00157175
-0.00313329
-0.00228215
-0.00148084
-0.00220444
-0.00128735
-0.000421456
-0.000866016
-0.00129675
-0.000236397
-0.00184359
-0.000947486
-0.00112439
-0.00178699
-0.00199198
-0.0015161
-0.00127692
-0.00100193
-0.00214329
-0.00222182
-0.0015661
-0.00307229
-0.00236011
-0.0014779
-0.00229817
-0.00157546
-0.000578667
-0.00104915
-0.00170717
-0.000258044
-0.00188701
-0.000979445
-0.00111882
-0.00180827
-0.0019599
-0.0015849
-0.00135182
-0.00105485
-0.00217348
-0.00227337
-0.0015663
-0.00301328
-0.00244964
-0.00149159
-0.00236937
-0.00187448
-0.000777989
-0.00119259
-0.00207463
-0.000281157
-0.00192996
-0.0010159
-0.00111182
-0.0018328
-0.00192941
-0.00165247
-0.00143431
-0.00110726
-0.00220519
-0.00232909
-0.0015714
-0.00295643
-0.00255038
-0.00152473
-0.00241861
-0.00217443
-0.00102268
-0.0013123
-0.00237883
-0.000305752
-0.0019722
-0.00105749
-0.00110308
-0.00186031
-0.00190167
-0.00171704
-0.00152499
-0.00115917
-0.00223687
-0.00239144
-0.00158211
-0.00289962
-0.00266092
-0.00158132
-0.0024472
-0.00246454
-0.00131078
-0.00142981
-0.00261045
-0.000331881
-0.00201353
-0.00110484
-0.00109244
-0.00189035
-0.00187829
-0.00177635
-0.00162391
-0.00121192
-0.0022663
-0.00246258
-0.00160027
-0.00283971
-0.00277903
-0.00166746
-0.00245944
-0.0027323
-0.00163491
-0.00156669
-0.00277251
-0.000359566
-0.00205369
-0.00115861
-0.00108
-0.00192221
-0.00186083
-0.00182841
-0.00173101
-0.00126799
-0.00229108
-0.00254304
-0.00162895
-0.00277421
-0.00290118
-0.00178758
-0.00246215
-0.00296693
-0.00198434
-0.00173807
-0.00287816
-0.000388936
-0.00209223
-0.00121943
-0.00106577
-0.00195481
-0.00185112
-0.00187184
-0.00184578
-0.00133032
-0.00230906
-0.00263163
-0.00167306
-0.00270308
-0.0030221
-0.00194298
-0.00246348
-0.00316086
-0.00234424
-0.00195173
-0.00295406
-0.00042015
-0.00212876
-0.00128786
-0.00105078
-0.00198665
-0.00185115
-0.00190614
-0.00196544
-0.00140239
-0.00231951
-0.00272561
-0.00173747
-0.00262949
-0.00313422
-0.00213296
-0.0024762
-0.00331215
-0.00269513
-0.00220332
-0.00303068
-0.000453351
-0.00216265
-0.00136457
-0.00103609
-0.0020159
-0.00186235
-0.00193144
-0.0020862
-0.00148757
-0.00232287
-0.00282136
-0.00182636
-0.00255683
-0.00322781
-0.00235234
-0.00251371
-0.00342313
-0.00302351
-0.00248355
-0.00312665
-0.000488799
-0.00219327
-0.00144989
-0.00102296
-0.00204057
-0.00188605
-0.00194867
-0.00220443
-0.0015888
-0.00232083
-0.00291333
-0.00194123
-0.00249019
-0.00329806
-0.0025958
-0.00258549
-0.00349529
-0.00331679
-0.00278163
-0.00325449
-0.000526812
-0.00222009
-0.00154383
-0.00101343
-0.00205854
-0.00192281
-0.00194074
-0.00231499
-0.00170807
-0.00231811
-0.00299577
-0.00208042
-0.00235292
-0.0033427
-0.00285543
-0.00270107
-0.00353953
-0.00355997
-0.00306796
-0.00340901
-0.000567554
-0.00224266
-0.00164635
-0.00100965
-0.00206816
-0.00197289
-0.00194752
-0.00241263
-0.00184471
-0.00232051
-0.00306476
-0.00224386
-0.00233841
-0.00336588
-0.00312242
-0.00286723
-0.00357915
-0.00375738
-0.00331969
-0.00354942
-0.000611393
-0.00226075
-0.00175723
-0.00101404
-0.0020685
-0.00203458
-0.00195543
-0.00249424
-0.0019966
-0.00233496
-0.0031178
-0.00242427
-0.00235296
-0.00336824
-0.00338709
-0.0030925
-0.00363954
-0.00392288
-0.00354473
-0.00364743
-0.000658512
-0.00227392
-0.00187235
-0.00102988
-0.00205938
-0.00210518
-0.0019684
-0.0025566
-0.00215931
-0.00236869
-0.00315571
-0.00261094
-0.00240247
-0.00335268
-0.00360862
-0.00333374
-0.0037125
-0.0040592
-0.00377802
-0.00380548
-0.000709312
-0.00228168
-0.0019913
-0.00106033
-0.00204152
-0.0021811
-0.00199191
-0.00260006
-0.00232602
-0.00242664
-0.00318223
-0.00279236
-0.00248577
-0.00332612
-0.00377516
-0.00357459
-0.00380886
-0.00419725
-0.00408611
-0.0040652
-0.000764756
-0.00228296
-0.00211139
-0.00110961
-0.00201677
-0.00225748
-0.00202952
-0.00262467
-0.00248873
-0.00251225
-0.00320296
-0.00296004
-0.00259898
-0.00330669
-0.0038965
-0.00380782
-0.00392233
-0.00430229
-0.00436942
-0.00447819
-0.00082558
-0.00227774
-0.00222884
-0.00118032
-0.00198861
-0.00233049
-0.00208177
-0.00263454
-0.0026398
-0.00262449
-0.00322645
-0.00310879
-0.00273546
-0.00331025
-0.00402494
-0.0041052
-0.00414824
-0.00445869
-0.00455653
-0.00451865
-0.000892638
-0.00226566
-0.00234017
-0.00127446
-0.00196176
-0.00239528
-0.00214818
-0.00263676
-0.00277391
-0.00275807
-0.00326304
-0.00323867
-0.00288836
-0.00333935
-0.0040896
-0.00430726
-0.00433883
-0.00459658
-0.0048315
-0.0049924
-0.000965354
-0.00224853
-0.00244312
-0.00139195
-0.00194034
-0.00245023
-0.00222818
-0.00263565
-0.00288587
-0.00290525
-0.00331976
-0.00335653
-0.00305475
-0.00339975
-0.00415735
-0.00451626
-0.0046006
-0.00480097
-0.00504492
-0.00520628
-0.00104356
-0.00222851
-0.00253588
-0.0015291
-0.00193036
-0.00249575
-0.00231688
-0.00263966
-0.00297626
-0.003057
-0.00339936
-0.00347291
-0.0032292
-0.00350759
-0.00423457
-0.00470427
-0.00484506
-0.00499227
-0.0052003
-0.00540479
-0.00112687
-0.00220719
-0.00261663
-0.00168094
-0.0019368
-0.00253272
-0.0024126
-0.00265287
-0.00304481
-0.00320598
-0.00350402
-0.00359627
-0.00340576
-0.00362528
-0.00431602
-0.00486022
-0.00506507
-0.00519669
-0.00538272
-0.00559633
-0.0012144
-0.00218219
-0.00268395
-0.00184115
-0.00196353
-0.00256598
-0.00251263
-0.0026774
-0.0030975
-0.00334904
-0.00363015
-0.0037278
-0.00357907
-0.00375452
-0.00440097
-0.00500107
-0.0052749
-0.00541415
-0.00557146
-0.00574919
-0.00130583
-0.00217134
-0.00273726
-0.00200381
-0.00201264
-0.00259936
-0.00261521
-0.0027164
-0.0031401
-0.00348066
-0.00376901
-0.00386834
-0.00374965
-0.00389243
-0.00449317
-0.00513255
-0.00547419
-0.0056179
-0.00576223
-0.00591541
-0.00140018
-0.00216768
-0.00277735
-0.00216349
-0.00208442
-0.00263765
-0.002721
-0.00277088
-0.00317524
-0.00359783
-0.0039161
-0.00401937
-0.00391984
-0.00403603
-0.0045918
-0.00525652
-0.00566195
-0.00582025
-0.00594544
-0.00608854
-0.00149676
-0.00217225
-0.00280644
-0.00231623
-0.00217604
-0.00268358
-0.00283034
-0.00284322
-0.00320918
-0.00369862
-0.00406291
-0.00417848
-0.00409314
-0.00418614
-0.00469706
-0.00536351
-0.00583209
-0.006026
-0.00612049
-0.00625538
-0.0015947
-0.00218566
-0.00282744
-0.00245894
-0.00228368
-0.0027394
-0.00294422
-0.00293536
-0.00324653
-0.00378071
-0.00420299
-0.00434598
-0.00427441
-0.00434106
-0.00480386
-0.00546124
-0.00597862
-0.00623131
-0.00630526
-0.00640712
-0.00169341
-0.00220805
-0.00284375
-0.00259141
-0.00240224
-0.00280516
-0.00306304
-0.00304778
-0.00329445
-0.00384664
-0.00432961
-0.00451604
-0.00446428
-0.00450322
-0.00491393
-0.00555541
-0.00610157
-0.00641911
-0.00650382
-0.00655014
-0.00179223
-0.00223937
-0.00285866
-0.00271344
-0.00252712
-0.00287918
-0.00318632
-0.00318102
-0.00335877
-0.00389867
-0.00443775
-0.00468106
-0.00466206
-0.00468122
-0.00503116
-0.0056433
-0.00620345
-0.00657164
-0.00670475
-0.00671285
-0.00189087
-0.00227925
-0.00287503
-0.00282671
-0.00265629
-0.00295913
-0.00330941
-0.00333307
-0.00344514
-0.00394337
-0.00452659
-0.00483603
-0.00486307
-0.00487532
-0.00516037
-0.0057236
-0.00629043
-0.00669377
-0.00689162
-0.00689927
-0.00198914
-0.00232725
-0.00289534
-0.00293221
-0.00278842
-0.00304418
-0.00342727
-0.00349887
-0.00355836
-0.00399029
-0.00459514
-0.00497589
-0.00506
-0.00508023
-0.00531037
-0.005808
-0.00636717
-0.00679348
-0.00703901
-0.00708517
-0.0020869
-0.002383
-0.00292131
-0.00303082
-0.0029233
-0.00313493
-0.00353609
-0.00366814
-0.00369818
-0.00405092
-0.00464714
-0.00509454
-0.00524863
-0.00529109
-0.00548082
-0.00590589
-0.00643428
-0.00687621
-0.00715169
-0.00724849
-0.00218421
-0.00244616
-0.00295426
-0.00312419
-0.00305932
-0.00323267
-0.00363597
-0.00383121
-0.00386046
-0.00413493
-0.00469303
-0.00519013
-0.00542037
-0.00549957
-0.0056666
-0.00602495
-0.00650182
-0.00694947
-0.00724608
-0.0073768
-0.00228123
-0.00251627
-0.00299469
-0.00321243
-0.00319451
-0.00333904
-0.00372932
-0.00398124
-0.00403753
-0.00424673
-0.00474273
-0.00526504
-0.00556887
-0.00569735
-0.00586033
-0.00616642
-0.00658084
-0.00701557
-0.00732848
-0.00747742
-0.00237817
-0.00259261
-0.00304307
-0.00329643
-0.00332687
-0.0034536
-0.00382098
-0.0041157
-0.00421681
-0.00438509
-0.00480548
-0.00532492
-0.0056948
-0.0058774
-0.00604985
-0.00632596
-0.0066794
-0.00707954
-0.00740428
-0.00756507
-0.00247522
-0.00267436
-0.00309951
-0.00337762
-0.00345482
-0.00357457
-0.00391592
-0.00423634
-0.0043865
-0.00454374
-0.00489195
-0.00537728
-0.00579688
-0.00603884
-0.00622673
-0.00649112
-0.00679913
-0.00715022
-0.00747392
-0.00764734
-0.00257252
-0.00276066
-0.00316395
-0.00345729
-0.00357743
-0.00369977
-0.00401643
-0.0043466
-0.00454117
-0.00471005
-0.00500375
-0.00543594
-0.00587661
-0.00617923
-0.00638977
-0.00664947
-0.00693471
-0.00723592
-0.00753956
-0.00772276
-0.0026702
-0.00285081
-0.00323603
-0.00353642
-0.00369415
-0.00382695
-0.00412273
-0.0044509
-0.00468147
-0.00487186
-0.00513224
-0.00551184
-0.0059436
-0.00629405
-0.0065381
-0.00679612
-0.0070733
-0.0073381
-0.0076087
-0.00779291
-0.00276852
-0.00294382
-0.00331501
-0.00361649
-0.00380493
-0.00395374
-0.004234
-0.00455287
-0.00480832
-0.00502473
-0.00526894
-0.00560463
-0.00601184
-0.00638495
-0.00666605
-0.00692995
-0.00720405
-0.00745113
-0.00768601
-0.00786073
-0.0028676
-0.00303884
-0.00339982
-0.00369867
-0.00391037
-0.00407796
-0.00434876
-0.00465546
-0.00492349
-0.0051643
-0.0054054
-0.00570667
-0.006088
-0.00646473
-0.0067714
-0.00704893
-0.00732288
-0.00756426
-0.00777162
-0.00792895
-0.00296766
-0.00313552
-0.00348923
-0.00378352
-0.00401089
-0.00419778
-0.00446441
-0.00475979
-0.00503146
-0.00528911
-0.00553695
-0.0058139
-0.00616644
-0.00653961
-0.00685654
-0.0071471
-0.00742703
-0.00766986
-0.007862
-0.00799795
-0.0030685
-0.00323296
-0.00358199
-0.00387165
-0.00410807
-0.00431174
-0.00457829
-0.00486485
-0.00513501
-0.00539906
-0.00565793
-0.00592484
-0.00624819
-0.0066129
-0.00693072
-0.00722497
-0.00751233
-0.00775977
-0.00794719
-0.00806438
-0.00317027
-0.00333173
-0.00367621
-0.00396158
-0.00420305
-0.00442063
-0.00468858
-0.00496933
-0.00523663
-0.00549793
-0.00576009
-0.00602511
-0.00632595
-0.00667992
-0.00699885
-0.00729087
-0.00758497
-0.00784082
-0.00802988
-0.00813396
-0.00327252
-0.0034308
-0.00377139
-0.00405297
-0.0042958
-0.00452304
-0.00479425
-0.00507152
-0.00533619
-0.005595
-0.00585297
-0.00611029
-0.00639025
-0.00672649
-0.00704519
-0.0073352
-0.00763491
-0.00790715
-0.00811137
-0.00821826
-0.00337494
-0.0035306
-0.00386629
-0.00414358
-0.00438747
-0.00461935
-0.00489186
-0.00517062
-0.00543117
-0.00568552
-0.00594476
-0.00619167
-0.00644668
-0.00675192
-0.00705301
-0.00732728
-0.0076167
-0.00790231
-0.00813144
-0.00827005
-0.00347777
-0.00363185
-0.00396096
-0.00423156
-0.00447613
-0.00471068
-0.00498074
-0.00526227
-0.0055233
-0.00577031
-0.00603417
-0.00628492
-0.00652581
-0.00681226
-0.00709882
-0.00734813
-0.00759373
-0.00783465
-0.00801945
-0.00811669
-0.00357986
-0.00373153
-0.00405521
-0.00431868
-0.00455972
-0.00479355
-0.00506426
-0.00534354
-0.00559638
-0.0058133
-0.00603046
-0.00625176
-0.00646271
-0.00672267
-0.00703144
-0.00733358
-0.00764935
-0.0079926
-0.00829862
-0.00849817
-0.00368232
-0.0038321
-0.00414892
-0.00440124
-0.00463451
-0.00486592
-0.00515769
-0.00548839
-0.00580726
-0.00607714
-0.0062695
-0.00640825
-0.0065373
-0.00668399
-0.00685788
-0.00699156
-0.00705514
-0.00709163
-0.00712041
-0.0071672
-0.0037915
-0.00392824
-0.00422739
-0.0044604
-0.00467851
-0.00489513
-0.00515546
-0.00544262
-0.00569618
-0.00590294
-0.00610158
-0.00629182
-0.00650289
-0.0067408
-0.00701343
-0.00733127
-0.00765606
-0.00799547
-0.00831504
-0.00856052
-0.00392223
-0.00407057
-0.00432322
-0.00449657
-0.00467947
-0.00489427
-0.00516338
-0.00547763
-0.00578639
-0.00603414
-0.00626346
-0.00647671
-0.00663232
-0.00676581
-0.00688823
-0.00697443
-0.006998
-0.00699709
-0.00703481
-0.00714562
-0.00400255
-0.00414647
-0.00438401
-0.00453486
-0.00469981
-0.00490676
-0.00517775
-0.00549203
-0.00579252
-0.00601538
-0.00619546
-0.00638453
-0.00655792
-0.00672372
-0.00690792
-0.00710625
-0.00728223
-0.00742317
-0.00756121
-0.00773399
0.0139673
0.00556655
-0.00297205
-0.00941538
-0.012246
-0.0126252
-0.0128713
-0.0133441
-0.0133281
-0.0124606
-0.0113518
-0.0106251
-0.0102134
-0.0100574
-0.010175
-0.0102066
-0.010071
-0.0100792
-0.0102021
-0.0102115
-0.0101503
-0.0101541
-0.0101503
-0.0100614
-0.0100652
-0.0105321
-0.0119248
-0.0141607
-0.0157704
-0.0152804
-0.0135729
-0.0125147
-0.0125928
-0.0132688
-0.0138571
-0.0139601
-0.013809
-0.01377
-0.0139688
-0.0143603
-0.0148053
-0.0153265
-0.0158947
-0.0162495
-0.0162135
-0.0160817
-0.016168
-0.0164046
-0.0167527
-0.0171424
-0.0173067
-0.017346
-0.0175044
-0.0177242
-0.0179498
-0.0182388
-0.0185696
-0.018848
-0.0191199
-0.0194117
-0.0197003
-0.0199516
-0.0202027
-0.0204773
-0.0207599
-0.0210237
-0.0212922
-0.0216013
-0.0219857
-0.0223315
-0.0226023
-0.0229379
-0.023218
-0.0234416
-0.0237771
-0.0242384
-0.0247346
-0.0250619
-0.0253503
-0.0256696
-0.0260481
-0.0264311
-0.0268502
-0.0273058
-0.0276929
-0.028095
-0.0284773
-0.0289612
-0.0294398
-0.029893
-0.0302796
-0.0307578
-0.0312522
-0.031737
-0.0322298
-0.0326468
-0.0332077
-0.0335824
-0.0342401
-0.0350494
0.0130826
0.005416
-0.00290679
-0.0092448
-0.0121211
-0.0125603
-0.012834
-0.013325
-0.0133182
-0.0124547
-0.0113467
-0.0106202
-0.0102085
-0.0100525
-0.010171
-0.0102033
-0.0100673
-0.0100753
-0.0101984
-0.0102079
-0.0101468
-0.0101508
-0.0101474
-0.0100586
-0.0100619
-0.0105278
-0.0119202
-0.0141581
-0.0157707
-0.0152808
-0.0135712
-0.0125121
-0.0125905
-0.0132672
-0.0138563
-0.0139593
-0.013808
-0.0137689
-0.0139678
-0.0143593
-0.0148044
-0.0153256
-0.015894
-0.0162491
-0.0162131
-0.0160812
-0.0161673
-0.016404
-0.0167522
-0.017142
-0.0173064
-0.0173456
-0.017504
-0.0177238
-0.0179494
-0.0182384
-0.0185692
-0.0188476
-0.0191196
-0.0194114
-0.0197
-0.0199513
-0.0202024
-0.0204771
-0.0207596
-0.0210235
-0.0212919
-0.021601
-0.0219854
-0.0223313
-0.0226021
-0.0229377
-0.0232178
-0.0234414
-0.0237769
-0.0242382
-0.0247345
-0.0250617
-0.0253501
-0.0256695
-0.0260479
-0.026431
-0.02685
-0.0273056
-0.0276928
-0.0280949
-0.0284772
-0.0289611
-0.0294397
-0.0298929
-0.0302795
-0.0307577
-0.0312521
-0.0317369
-0.0322297
-0.0326467
-0.0332077
-0.0335823
-0.03424
-0.0350494
0.0123567
0.00526063
-0.0028035
-0.00896459
-0.0119326
-0.0125031
-0.0128039
-0.0132935
-0.0132929
-0.0124376
-0.0113361
-0.0106141
-0.010204
-0.0100478
-0.0101671
-0.0102005
-0.0100649
-0.0100731
-0.0101963
-0.0102054
-0.0101439
-0.0101481
-0.0101449
-0.010056
-0.0100586
-0.0105235
-0.0119158
-0.014157
-0.0157734
-0.0152824
-0.0135689
-0.0125086
-0.0125879
-0.013266
-0.013856
-0.0139589
-0.0138069
-0.0137678
-0.0139668
-0.0143584
-0.0148036
-0.0153249
-0.0158937
-0.0162491
-0.0162129
-0.0160805
-0.0161667
-0.0164035
-0.0167517
-0.0171418
-0.0173062
-0.0173452
-0.0175036
-0.0177235
-0.0179491
-0.0182381
-0.018569
-0.0188474
-0.0191193
-0.0194111
-0.0196998
-0.0199511
-0.0202022
-0.0204768
-0.0207594
-0.0210232
-0.0212917
-0.0216008
-0.0219852
-0.0223311
-0.0226019
-0.0229375
-0.0232177
-0.0234412
-0.0237767
-0.024238
-0.0247344
-0.0250616
-0.02535
-0.0256694
-0.0260478
-0.0264309
-0.0268499
-0.0273055
-0.0276927
-0.0280948
-0.0284771
-0.028961
-0.0294397
-0.0298929
-0.0302794
-0.0307576
-0.0312521
-0.0317369
-0.0322296
-0.0326466
-0.0332076
-0.0335822
-0.0342399
-0.0350496
0.0116648
0.00507933
-0.0026893
-0.00863123
-0.0116917
-0.0124275
-0.0127558
-0.0132343
-0.0132393
-0.0124003
-0.0113146
-0.0106032
-0.0101971
-0.0100407
-0.01016
-0.0101957
-0.0100629
-0.0100725
-0.0101954
-0.0102038
-0.010142
-0.0101462
-0.0101428
-0.0100534
-0.0100548
-0.0105182
-0.0119107
-0.0141564
-0.0157775
-0.0152843
-0.0135654
-0.012504
-0.012585
-0.0132647
-0.0138559
-0.0139583
-0.0138055
-0.0137664
-0.0139656
-0.0143574
-0.0148027
-0.0153241
-0.0158934
-0.0162492
-0.0162127
-0.0160797
-0.0161659
-0.0164028
-0.0167512
-0.0171418
-0.0173061
-0.0173446
-0.0175031
-0.0177232
-0.0179487
-0.0182377
-0.0185687
-0.0188471
-0.019119
-0.0194109
-0.0196996
-0.0199509
-0.0202019
-0.0204766
-0.0207592
-0.021023
-0.0212915
-0.0216005
-0.021985
-0.022331
-0.0226017
-0.0229374
-0.0232175
-0.023441
-0.0237764
-0.0242378
-0.0247343
-0.0250615
-0.0253498
-0.0256692
-0.0260477
-0.0264307
-0.0268498
-0.0273054
-0.0276926
-0.0280947
-0.028477
-0.0289609
-0.0294396
-0.0298928
-0.0302793
-0.0307575
-0.031252
-0.0317368
-0.0322295
-0.0326466
-0.0332075
-0.0335821
-0.0342397
-0.0350499
0.0109728
0.00487475
-0.00257072
-0.00828236
-0.0114311
-0.0123431
-0.0126999
-0.0131549
-0.0131595
-0.0123421
-0.011281
-0.0105861
-0.0101867
-0.01003
-0.0101479
-0.0101868
-0.0100599
-0.0100728
-0.0101957
-0.0102032
-0.0101415
-0.0101459
-0.0101422
-0.010052
-0.0100515
-0.0105121
-0.0119045
-0.0141554
-0.0157818
-0.0152858
-0.0135608
-0.0124986
-0.0125817
-0.0132633
-0.0138556
-0.0139573
-0.0138034
-0.0137645
-0.0139642
-0.014356
-0.0148015
-0.0153233
-0.0158931
-0.0162493
-0.0162124
-0.0160787
-0.016165
-0.016402
-0.0167506
-0.0171417
-0.0173059
-0.017344
-0.0175026
-0.0177228
-0.0179483
-0.0182373
-0.0185684
-0.0188469
-0.0191187
-0.0194106
-0.0196993
-0.0199506
-0.0202017
-0.0204763
-0.020759
-0.0210228
-0.0212912
-0.0216002
-0.0219848
-0.0223309
-0.0226014
-0.0229372
-0.0232174
-0.0234407
-0.0237761
-0.0242376
-0.0247342
-0.0250614
-0.0253496
-0.025669
-0.0260475
-0.0264306
-0.0268496
-0.0273054
-0.0276925
-0.0280946
-0.0284768
-0.0289608
-0.0294395
-0.0298927
-0.0302792
-0.0307574
-0.0312519
-0.0317367
-0.0322295
-0.0326465
-0.0332075
-0.033582
-0.0342394
-0.0350504
0.010275
0.00465951
-0.00245365
-0.00793943
-0.0111631
-0.0122539
-0.012645
-0.0130697
-0.0130666
-0.0122712
-0.0112396
-0.0105647
-0.0101732
-0.0100155
-0.0101306
-0.0101733
-0.0100547
-0.0100728
-0.0101963
-0.0102033
-0.0101421
-0.0101472
-0.0101439
-0.0100536
-0.0100507
-0.0105068
-0.0118975
-0.0141532
-0.015785
-0.015286
-0.0135551
-0.0124927
-0.0125783
-0.0132616
-0.0138549
-0.0139555
-0.0138006
-0.0137622
-0.0139622
-0.014354
-0.0147997
-0.0153221
-0.0158925
-0.0162492
-0.016212
-0.0160776
-0.0161639
-0.0164011
-0.01675
-0.0171417
-0.0173056
-0.0173433
-0.017502
-0.0177223
-0.0179478
-0.0182368
-0.018568
-0.0188466
-0.0191184
-0.0194103
-0.019699
-0.0199504
-0.0202014
-0.020476
-0.0207587
-0.0210226
-0.021291
-0.0215999
-0.0219846
-0.0223307
-0.0226012
-0.022937
-0.0232173
-0.0234404
-0.0237758
-0.0242374
-0.0247342
-0.0250613
-0.0253494
-0.0256688
-0.0260474
-0.0264304
-0.0268494
-0.0273052
-0.0276924
-0.0280944
-0.0284767
-0.0289606
-0.0294394
-0.0298927
-0.0302791
-0.0307572
-0.0312518
-0.0317366
-0.0322294
-0.0326463
-0.0332074
-0.0335819
-0.0342391
-0.035051
0.0095792
0.00443693
-0.00234922
-0.00761188
-0.0108895
-0.0121577
-0.0125917
-0.0129843
-0.0129683
-0.0121935
-0.0111939
-0.0105415
-0.0101583
-0.00999846
-0.0101096
-0.0101563
-0.0100472
-0.0100714
-0.0101964
-0.0102036
-0.0101433
-0.0101496
-0.0101477
-0.0100589
-0.0100543
-0.0105048
-0.0118917
-0.0141503
-0.0157862
-0.0152839
-0.013548
-0.0124865
-0.0125748
-0.0132596
-0.0138535
-0.0139528
-0.0137971
-0.0137598
-0.01396
-0.0143511
-0.0147972
-0.0153205
-0.0158915
-0.0162488
-0.0162113
-0.0160763
-0.0161626
-0.0163999
-0.0167492
-0.0171416
-0.0173052
-0.0173423
-0.0175012
-0.0177217
-0.0179472
-0.0182362
-0.0185675
-0.0188462
-0.019118
-0.0194099
-0.0196987
-0.0199501
-0.0202011
-0.0204757
-0.0207585
-0.0210224
-0.0212907
-0.0215996
-0.0219843
-0.0223306
-0.0226009
-0.0229369
-0.0232171
-0.02344
-0.0237754
-0.0242372
-0.0247342
-0.0250612
-0.0253491
-0.0256686
-0.0260472
-0.0264302
-0.0268492
-0.0273051
-0.0276923
-0.0280943
-0.0284765
-0.0289605
-0.0294393
-0.0298926
-0.0302789
-0.0307571
-0.0312517
-0.0317365
-0.0322294
-0.0326462
-0.0332073
-0.0335817
-0.0342386
-0.0350518
0.00889131
0.00420188
-0.00226593
-0.00730314
-0.0106078
-0.0120498
-0.0125381
-0.0129002
-0.0128674
-0.0121116
-0.0111456
-0.0105177
-0.0101432
-0.00998046
-0.010087
-0.0101375
-0.010038
-0.0100688
-0.0101959
-0.0102039
-0.0101449
-0.0101528
-0.0101531
-0.0100675
-0.0100627
-0.0105079
-0.0118897
-0.0141491
-0.0157863
-0.0152785
-0.0135382
-0.0124798
-0.0125718
-0.0132575
-0.0138511
-0.0139488
-0.013793
-0.0137576
-0.0139578
-0.0143475
-0.0147938
-0.015318
-0.0158897
-0.0162478
-0.0162104
-0.0160749
-0.0161611
-0.0163985
-0.0167483
-0.0171414
-0.0173046
-0.0173412
-0.0175003
-0.0177211
-0.0179466
-0.0182354
-0.0185667
-0.0188456
-0.0191176
-0.0194094
-0.0196983
-0.0199498
-0.0202008
-0.0204753
-0.0207581
-0.0210222
-0.0212905
-0.0215992
-0.021984
-0.0223304
-0.0226007
-0.0229368
-0.0232169
-0.0234395
-0.023775
-0.024237
-0.0247342
-0.0250611
-0.0253488
-0.0256683
-0.0260469
-0.02643
-0.026849
-0.027305
-0.0276921
-0.0280941
-0.0284763
-0.0289603
-0.0294392
-0.0298925
-0.0302788
-0.030757
-0.0312517
-0.0317364
-0.0322293
-0.0326461
-0.0332072
-0.0335816
-0.034238
-0.0350526
0.00821276
0.00395004
-0.00220496
-0.00701139
-0.0103142
-0.0119259
-0.0124836
-0.0128194
-0.012766
-0.0120267
-0.0110949
-0.0104933
-0.0101286
-0.00996264
-0.0100638
-0.010118
-0.0100281
-0.0100654
-0.010195
-0.0102042
-0.0101468
-0.0101566
-0.0101602
-0.0100794
-0.0100762
-0.0105167
-0.0118934
-0.014153
-0.0157885
-0.0152705
-0.0135243
-0.0124713
-0.0125692
-0.0132558
-0.0138481
-0.0139431
-0.0137876
-0.0137557
-0.0139565
-0.014344
-0.0147899
-0.0153148
-0.0158867
-0.0162457
-0.0162091
-0.0160734
-0.0161595
-0.0163969
-0.0167472
-0.017141
-0.0173037
-0.0173397
-0.0174992
-0.0177203
-0.0179458
-0.0182344
-0.0185657
-0.0188449
-0.019117
-0.0194088
-0.0196978
-0.0199494
-0.0202004
-0.0204748
-0.0207577
-0.0210219
-0.0212902
-0.0215988
-0.0219837
-0.0223303
-0.0226006
-0.0229367
-0.0232167
-0.0234389
-0.0237745
-0.0242368
-0.0247342
-0.0250609
-0.0253485
-0.025668
-0.0260467
-0.0264298
-0.0268488
-0.0273048
-0.0276919
-0.0280939
-0.0284761
-0.0289601
-0.0294391
-0.0298924
-0.0302786
-0.0307568
-0.0312515
-0.0317363
-0.0322292
-0.0326459
-0.0332071
-0.0335815
-0.0342373
-0.0350535
0.0075429
0.0036834
-0.00216077
-0.00673525
-0.0100102
-0.0117859
-0.0124292
-0.012744
-0.0126656
-0.0119391
-0.0110418
-0.0104684
-0.0101149
-0.0099457
-0.0100407
-0.0100982
-0.010018
-0.0100615
-0.0101937
-0.0102046
-0.010149
-0.0101611