/*--------------------------------*- C++ -*----------------------------------*\
| =========                 |                                                 |
| \\      /  F ield         | OpenFOAM: The Open Source CFD Toolbox           |
|  \\    /   O peration     | Version:  v1912                                 |
|   \\  /    A nd           | Website:  www.openfoam.com                      |
|    \\/     M anipulation  |                                                 |
\*---------------------------------------------------------------------------*/
FoamFile
{
    version     2.0;
    format      ascii;
    class       volVectorField;
    location    "8.4";
    object      U;
}
// * * * * * * * * * * * * * * * * * * * * * * * * * * * * * * * * * * * * * //

dimensions      [0 1 -1 0 0 0 0];


internalField   nonuniform List<vector> 
9600
(
(0.99207 0.00554311 0)
(1.00616 -0.011127 0)
(0.90963 0.0109733 0)
(1.08322 -0.00716651 0)
(0.843451 -0.0106298 0)
(1.08251 -0.00479605 0)
(0.981155 0.00134691 0)
(1.0436 0.00114107 0)
(0.927927 0.0373863 0)
(1.16736 0.00545755 0)
(0.802114 0.00730259 0)
(1.15689 0.00404972 0)
(0.71685 -0.0161441 0)
(1.12569 -0.00784583 0)
(0.791729 -0.0280952 0)
(1.13938 -0.00936254 0)
(0.874115 -0.0212739 0)
(1.15704 -0.00663635 0)
(0.905005 -0.00680766 0)
(1.17033 -6.16145e-05 0)
(0.993322 0.00551334 0)
(1.00498 -0.010416 0)
(0.916069 0.0103436 0)
(1.06929 -0.00637988 0)
(0.854275 -0.010755 0)
(1.07133 -0.00629897 0)
(0.985873 0.00154288 0)
(1.03885 0.0020767 0)
(0.937158 0.0357047 0)
(1.14173 0.00818646 0)
(0.841712 0.00710478 0)
(1.10468 0.00642594 0)
(0.811651 -0.0155421 0)
(1.05633 -0.00919196 0)
(0.878397 -0.0286018 0)
(1.06686 -0.0115279 0)
(0.958548 -0.0215717 0)
(1.07359 -0.00817446 0)
(1.00886 -0.006506 0)
(1.05805 1.7407e-05 0)
(0.995851 0.00552668 0)
(1.00302 -0.00984568 0)
(0.928573 0.00973108 0)
(1.04988 -0.00580097 0)
(0.874627 -0.0109645 0)
(1.0496 -0.00737845 0)
(0.996149 0.00186042 0)
(1.03049 0.00269905 0)
(0.955156 0.0341731 0)
(1.10732 0.0091538 0)
(0.898362 0.0075067 0)
(1.04804 0.00648152 0)
(0.897493 -0.0147721 0)
(0.994291 -0.0103502 0)
(0.932518 -0.0285214 0)
(1.00698 -0.0134063 0)
(0.988289 -0.0215175 0)
(1.0264 -0.0096452 0)
(1.02305 -0.00619712 0)
(1.03439 -0.000846945 0)
(0.999167 0.00552793 0)
(1.00033 -0.0093756 0)
(0.945186 0.00934747 0)
(1.02906 -0.00531556 0)
(0.899293 -0.011026 0)
(1.02234 -0.00842136 0)
(1.00867 0.00193478 0)
(1.02436 0.00314722 0)
(0.975252 0.033224 0)
(1.07618 0.00982368 0)
(0.948774 0.0083965 0)
(1.01052 0.00646944 0)
(0.948721 -0.0136826 0)
(0.965754 -0.0109444 0)
(0.952392 -0.0287102 0)
(0.980066 -0.0147228 0)
(0.98943 -0.0220056 0)
(1.00864 -0.0107604 0)
(1.01788 -0.0062079 0)
(1.02582 -0.00114303 0)
(1.00265 0.00552077 0)
(0.996674 -0.00898747 0)
(0.963303 0.0091325 0)
(1.011 -0.00489082 0)
(0.922002 -0.0109771 0)
(0.99731 -0.00945966 0)
(1.01847 0.0017182 0)
(1.02507 0.00356953 0)
(0.992401 0.0326652 0)
(1.05611 0.0101474 0)
(0.982143 0.00935999 0)
(0.995711 0.00650221 0)
(0.973559 -0.012747 0)
(0.963969 -0.0111382 0)
(0.959992 -0.0287038 0)
(0.971523 -0.0157911 0)
(0.987405 -0.0224988 0)
(1.00099 -0.0118481 0)
(1.01546 -0.00649515 0)
(1.02393 -0.00165009 0)
(1.00587 0.00552254 0)
(0.991624 -0.00870209 0)
(0.980749 0.00901539 0)
(0.998395 -0.0044877 0)
(0.93983 -0.0108405 0)
(0.979993 -0.01044 0)
(1.02254 0.00119307 0)
(1.03161 0.00391429 0)
(1.00665 0.0323458 0)
(1.048 0.0102823 0)
(0.999983 0.0102648 0)
(0.994476 0.00666177 0)
(0.986852 -0.0119963 0)
(0.973176 -0.0110865 0)
(0.967399 -0.0284005 0)
(0.970176 -0.0167572 0)
(0.985303 -0.022935 0)
(0.996959 -0.0130242 0)
(1.01334 -0.00708403 0)
(1.02553 -0.00228831 0)
(1.00868 0.00554742 0)
(0.985126 -0.00852823 0)
(0.996335 0.00894205 0)
(0.991578 -0.00406521 0)
(0.953611 -0.0106443 0)
(0.971478 -0.0113137 0)
(1.02071 0.000378102 0)
(1.03867 0.00409383 0)
(1.02025 0.0321731 0)
(1.04735 0.0104454 0)
(1.00835 0.0111268 0)
(0.998013 0.00684752 0)
(0.996708 -0.0113681 0)
(0.984761 -0.0109549 0)
(0.976296 -0.0278385 0)
(0.972248 -0.017465 0)
(0.98253 -0.0233082 0)
(0.99311 -0.0142663 0)
(1.00994 -0.00790748 0)
(1.02563 -0.00314456 0)
(1.01104 0.00561062 0)
(0.977969 -0.0084603 0)
(1.00955 0.00885372 0)
(0.989165 -0.00360901 0)
(0.96548 -0.0104162 0)
(0.969903 -0.0120269 0)
(1.01442 -0.000616298 0)
(1.0409 0.0040207 0)
(1.03386 0.0320475 0)
(1.04855 0.0107628 0)
(1.01228 0.011965 0)
(1.00241 0.00698421 0)
(1.00521 -0.0108642 0)
(0.996056 -0.0108319 0)
(0.985673 -0.0270455 0)
(0.976253 -0.0178158 0)
(0.980203 -0.0235394 0)
(0.988255 -0.0154846 0)
(1.00471 -0.008884 0)
(1.02257 -0.00426444 0)
(1.01279 0.00572079 0)
(0.971742 -0.00848599 0)
(1.01991 0.00870646 0)
(0.989423 -0.00313174 0)
(0.976564 -0.010185 0)
(0.972691 -0.0125183 0)
(1.00566 -0.00162934 0)
(1.0359 0.00362888 0)
(1.04581 0.0318841 0)
(1.04801 0.0112752 0)
(1.01461 0.0127527 0)
(1.00672 0.0070491 0)
(1.01221 -0.0105105 0)
(1.00598 -0.0107245 0)
(0.994412 -0.0260495 0)
(0.981181 -0.0178272 0)
(0.979198 -0.0235019 0)
(0.983187 -0.0165256 0)
(0.997881 -0.00995104 0)
(1.01652 -0.00565155 0)
(1.01372 0.00587241 0)
(0.968141 -0.00858586 0)
(1.02673 0.00848792 0)
(0.991125 -0.0026614 0)
(0.986467 -0.00997467 0)
(0.977583 -0.0127539 0)
(0.996614 -0.00250628 0)
(1.0248 0.00290936 0)
(1.05369 0.0316128 0)
(1.04495 0.0119648 0)
(1.01653 0.0134409 0)
(1.01081 0.00703265 0)
(1.01718 -0.0102917 0)
(1.01355 -0.0106324 0)
(1.00144 -0.0249302 0)
(0.986251 -0.0175461 0)
(0.979697 -0.0231322 0)
(0.979081 -0.0173097 0)
(0.9907 -0.0110164 0)
(1.00845 -0.00724233 0)
(1.01364 0.00604617 0)
(0.968115 -0.00873148 0)
(1.02946 0.00821192 0)
(0.993612 -0.00222505 0)
(0.994186 -0.00979501 0)
(0.98277 -0.012746 0)
(0.989254 -0.00314762 0)
(1.01101 0.00191769 0)
(1.05604 0.0311872 0)
(1.04043 0.0127535 0)
(1.01837 0.0139688 0)
(1.01461 0.00699186 0)
(1.01993 -0.0101508 0)
(1.01811 -0.0105605 0)
(1.00606 -0.0237719 0)
(0.990729 -0.0170444 0)
(0.981539 -0.0224804 0)
(0.976723 -0.0178175 0)
(0.984689 -0.011952 0)
(0.999991 -0.00884202 0)
(1.01262 0.0062158 0)
(0.971439 -0.00888816 0)
(1.02821 0.0079045 0)
(0.99647 -0.00184046 0)
(0.999179 -0.00963861 0)
(0.987001 -0.0125499 0)
(0.984797 -0.00352923 0)
(0.998253 0.000766046 0)
(1.05288 0.0305854 0)
(1.03585 0.0135359 0)
(1.01986 0.0143107 0)
(1.01784 0.00698422 0)
(1.02079 -0.0100264 0)
(1.01964 -0.0104952 0)
(1.00824 -0.0226311 0)
(0.994036 -0.0164393 0)
(0.984258 -0.0216477 0)
(0.976351 -0.0180356 0)
(0.980834 -0.0126353 0)
(0.992806 -0.0102549 0)
(1.01096 0.0063571 0)
(0.976967 -0.00902235 0)
(1.02391 0.00759107 0)
(0.9993 -0.00151815 0)
(1.00175 -0.00948758 0)
(0.989738 -0.012244 0)
(0.983328 -0.00368817 0)
(0.988903 -0.000400192 0)
(1.04545 0.029808 0)
(1.03191 0.0142241 0)
(1.0206 0.0144877 0)
(1.0201 0.0070259 0)
(1.02044 -0.00986761 0)
(1.01877 -0.0104062 0)
(1.00856 -0.0215594 0)
(0.995998 -0.0158364 0)
(0.987196 -0.0207159 0)
(0.977647 -0.0179969 0)
(0.979235 -0.0130393 0)
(0.987839 -0.011386 0)
(1.00903 0.00645475 0)
(0.98327 -0.00910966 0)
(1.01804 0.00728923 0)
(1.00173 -0.00126272 0)
(1.00276 -0.00932652 0)
(0.991093 -0.0118935 0)
(0.984001 -0.0036957 0)
(0.983371 -0.00144936 0)
(1.03552 0.0288888 0)
(1.02843 0.0147579 0)
(1.02029 0.0145261 0)
(1.02114 0.00712694 0)
(1.01956 -0.00963121 0)
(1.01649 -0.0102794 0)
(1.0078 -0.0205853 0)
(0.996875 -0.0152932 0)
(0.989793 -0.0197635 0)
(0.979945 -0.0177915 0)
(0.979321 -0.0131994 0)
(0.98505 -0.0121924 0)
(1.00716 0.00650367 0)
(0.989198 -0.00913821 0)
(1.01201 0.00700868 0)
(1.00354 -0.0010758 0)
(1.00308 -0.00914402 0)
(0.991522 -0.011537 0)
(0.985639 -0.00362047 0)
(0.9807 -0.00229729 0)
(1.02478 0.0278849 0)
(1.0249 0.0151044 0)
(1.01893 0.0144511 0)
(1.02095 0.00726246 0)
(1.01863 -0.00931273 0)
(1.01375 -0.0101174 0)
(1.00664 -0.0197072 0)
(0.99712 -0.0148359 0)
(0.991782 -0.0188574 0)
(0.98257 -0.0174989 0)
(0.980342 -0.0131555 0)
(0.983806 -0.0126499 0)
(1.00552 0.00650693 0)
(0.994111 -0.00910759 0)
(1.00678 0.00675287 0)
(1.00469 -0.000954664 0)
(1.00328 -0.00893761 0)
(0.991502 -0.0111847 0)
(0.987285 -0.00350891 0)
(0.9796 -0.00290849 0)
(1.01445 0.026845 0)
(1.021 0.0152696 0)
(1.01681 0.0142729 0)
(1.01981 0.00739951 0)
(1.01785 -0.00894241 0)
(1.01123 -0.00991049 0)
(1.00549 -0.0189146 0)
(0.997123 -0.0144737 0)
(0.993156 -0.0180129 0)
(0.985034 -0.0171833 0)
(0.981727 -0.0129361 0)
(0.983454 -0.0128058 0)
(1.00419 0.00647239 0)
(0.99782 -0.00902503 0)
(1.00275 0.00652006 0)
(1.00531 -0.000891248 0)
(1.00355 -0.00871032 0)
(0.991351 -0.0108322 0)
(0.988445 -0.00338297 0)
(0.979158 -0.00328626 0)
(1.00531 0.0258041 0)
(1.01688 0.0152781 0)
(1.01435 0.0139968 0)
(1.01815 0.00750881 0)
(1.01723 -0.00854969 0)
(1.00928 -0.00965965 0)
(1.00452 -0.0181893 0)
(0.9971 -0.0141877 0)
(0.994021 -0.0172273 0)
(0.987074 -0.0168722 0)
(0.983165 -0.0126007 0)
(0.983589 -0.0127163 0)
(1.00315 0.00640873 0)
(1.00042 -0.00889995 0)
(0.99991 0.00630461 0)
(1.00558 -0.000874497 0)
(1.0039 -0.00846885 0)
(0.991213 -0.0104673 0)
(0.989025 -0.00325226 0)
(0.978969 -0.00345582 0)
(0.997811 0.0247832 0)
(1.01298 0.0151519 0)
(1.01201 0.0136224 0)
(1.01637 0.00758165 0)
(1.01677 -0.00816312 0)
(1.00797 -0.00937367 0)
(1.0038 -0.0174977 0)
(0.997135 -0.0139709 0)
(0.994511 -0.0164681 0)
(0.988593 -0.0165744 0)
(0.984493 -0.0122291 0)
(0.983996 -0.0124318 0)
(1.00237 0.00632423 0)
(1.00212 -0.00874267 0)
(0.998042 0.00609977 0)
(1.00565 -0.00089314 0)
(1.00427 -0.00821935 0)
(0.99113 -0.0100777 0)
(0.989149 -0.00311816 0)
(0.978925 -0.00345783 0)
(0.992165 0.0237788 0)
(1.00972 0.0149239 0)
(1.01012 0.0131522 0)
(1.01477 0.00761329 0)
(1.01643 -0.0078042 0)
(1.00721 -0.00905465 0)
(1.00332 -0.0168089 0)
(0.997254 -0.0138168 0)
(0.994756 -0.0157151 0)
(0.98961 -0.0162893 0)
(0.985614 -0.0118709 0)
(0.984517 -0.0119906 0)
(1.0018 0.00622556 0)
(1.00318 -0.00856225 0)
(0.996894 0.00590032 0)
(1.00561 -0.000936959 0)
(1.0046 -0.00796469 0)
(0.991101 -0.00965578 0)
(0.988998 -0.00298205 0)
(0.979011 -0.00333278 0)
(0.988334 0.0227835 0)
(1.00731 0.0146154 0)
(1.0088 0.0126052 0)
(1.0135 0.00760034 0)
(1.01617 -0.00746818 0)
(1.00685 -0.00872145 0)
(1.00303 -0.0161041 0)
(0.997461 -0.0136939 0)
(0.994882 -0.0149703 0)
(0.990224 -0.0159871 0)
(0.986487 -0.0115642 0)
(0.985016 -0.0114366 0)
(1.00138 0.00611708 0)
(1.0038 -0.00836416 0)
(0.996242 0.00570004 0)
(1.00551 -0.000996081 0)
(1.00488 -0.00770784 0)
(0.991115 -0.00919504 0)
(0.988725 -0.00284831 0)
(0.979215 -0.00311945 0)
(0.986033 0.0217857 0)
(1.00569 0.0142468 0)
(1.00795 0.0119987 0)
(1.01255 0.00755561 0)
(1.01594 -0.00714608 0)
(1.00673 -0.00838893 0)
(1.0029 -0.0153581 0)
(0.997742 -0.0135898 0)
(0.994979 -0.0142279 0)
(0.990573 -0.0156429 0)
(0.987134 -0.0113405 0)
(0.985408 -0.0108119 0)
(1.00107 0.00600183 0)
(1.00413 -0.00815236 0)
(0.995926 0.00549486 0)
(1.00536 -0.00106485 0)
(1.0051 -0.00744873 0)
(0.991166 -0.00869491 0)
(0.988442 -0.00271605 0)
(0.97952 -0.00285457 0)
(0.984833 0.0207699 0)
(1.00465 0.0138428 0)
(1.00739 0.0113459 0)
(1.01181 0.00748279 0)
(1.01569 -0.00683018 0)
(1.00673 -0.008065 0)
(1.00287 -0.0145629 0)
(0.998074 -0.0135008 0)
(0.995091 -0.0134937 0)
(0.990781 -0.0152154 0)
(0.987626 -0.0112008 0)
(0.985682 -0.0101562 0)
(1.00085 0.00588175 0)
(1.00427 -0.00793056 0)
(0.995848 0.00528403 0)
(1.00515 -0.00113801 0)
(1.00522 -0.00718896 0)
(0.991254 -0.00815532 0)
(0.988235 -0.00258613 0)
(0.979924 -0.00255843 0)
(0.98431 0.0197354 0)
(1.00395 0.0134122 0)
(1.00693 0.0106612 0)
(1.01114 0.00737849 0)
(1.01538 -0.00650538 0)
(1.00673 -0.00776734 0)
(1.00289 -0.0137264 0)
(0.998434 -0.0134005 0)
(0.995227 -0.0127786 0)
(0.990934 -0.0146759 0)
(0.988038 -0.0111306 0)
(0.985879 -0.00952244 0)
(1.00071 0.00575825 0)
(1.00425 -0.00770191 0)
(0.995948 0.00506556 0)
(1.00489 -0.0012076 0)
(1.00523 -0.00693333 0)
(0.991389 -0.00758067 0)
(0.98818 -0.00245811 0)
(0.980441 -0.00224308 0)
(0.984155 0.0186807 0)
(1.0034 0.0129692 0)
(1.00645 0.00996044 0)
(1.01043 0.00724246 0)
(1.01496 -0.00616941 0)
(1.00668 -0.00749641 0)
(1.0029 -0.0128603 0)
(0.9988 -0.0132615 0)
(0.995379 -0.0121099 0)
(0.991073 -0.0140141 0)
(0.988424 -0.0111036 0)
(0.986056 -0.00894545 0)
(1.00063 0.00563294 0)
(1.00412 -0.00746863 0)
(0.996185 0.0048383 0)
(1.00457 -0.00126879 0)
(1.00509 -0.00668462 0)
(0.99158 -0.00697828 0)
(0.988335 -0.00233378 0)
(0.981092 -0.00191494 0)
(0.984199 0.0176152 0)
(1.00289 0.0125202 0)
(1.0059 0.00925757 0)
(1.0096 0.00706129 0)
(1.01438 -0.00581716 0)
(1.00654 -0.00725791 0)
(1.00283 -0.0119735 0)
(0.999139 -0.0130672 0)
(0.995542 -0.0115059 0)
(0.991213 -0.0132337 0)
(0.988812 -0.011065 0)
(0.986264 -0.00847161 0)
(1.00063 0.00550597 0)
(1.0039 -0.00723141 0)
(0.996521 0.00460293 0)
(1.00417 -0.00131664 0)
(1.00479 -0.00644446 0)
(0.99183 -0.00636004 0)
(0.988729 -0.00221182 0)
(0.981889 -0.00157535 0)
(0.984381 0.0165571 0)
(1.00237 0.0120583 0)
(1.00528 0.00857329 0)
(1.00866 0.00682875 0)
(1.01365 -0.0054513 0)
(1.00629 -0.0070502 0)
(1.00265 -0.0110838 0)
(0.99942 -0.0128108 0)
(0.995706 -0.0109704 0)
(0.991353 -0.0123704 0)
(0.989203 -0.0109621 0)
(0.98654 -0.00811531 0)
(1.00067 0.0053783 0)
(1.00362 -0.00699244 0)
(0.996915 0.00435865 0)
(1.00371 -0.00134166 0)
(1.00435 -0.00621855 0)
(0.992131 -0.00573751 0)
(0.989353 -0.00209684 0)
(0.982833 -0.00121937 0)
(0.984713 0.0155184 0)
(1.00184 0.0115812 0)
(1.00466 0.007917 0)
(1.00762 0.00654619 0)
(1.01276 -0.0050791 0)
(1.00595 -0.00687277 0)
(1.00234 -0.0102157 0)
(0.999614 -0.0124786 0)
(0.995865 -0.0105279 0)
(0.991487 -0.0114561 0)
(0.989589 -0.0107656 0)
(0.986904 -0.0078749 0)
(1.00075 0.00525069 0)
(1.00332 -0.00675248 0)
(0.997328 0.00410731 0)
(1.00319 -0.00133993 0)
(1.00378 -0.00600901 0)
(0.992455 -0.00512575 0)
(0.990153 -0.0019876 0)
(0.983904 -0.000858903 0)
(0.98523 0.0145187 0)
(1.00136 0.0110919 0)
(1.00409 0.00730136 0)
(1.00657 0.00622359 0)
(1.01177 -0.00470419 0)
(1.00552 -0.00672361 0)
(1.00192 -0.00938501 0)
(0.999704 -0.0120707 0)
(0.996012 -0.0101745 0)
(0.99161 -0.0105365 0)
(0.989945 -0.0104333 0)
(0.987366 -0.00774895 0)
(1.00084 0.00512201 0)
(1.00303 -0.00651044 0)
(0.99773 0.00385149 0)
(1.00265 -0.0013057 0)
(1.00314 -0.00582103 0)
(0.992768 -0.00453772 0)
(0.99105 -0.00187932 0)
(0.985064 -0.000504077 0)
(0.985963 0.0135784 0)
(1.00097 0.0105874 0)
(1.00364 0.00674299 0)
(1.00556 0.00587691 0)
(1.01072 -0.00432823 0)
(1.00506 -0.00658403 0)
(1.00141 -0.00859835 0)
(0.999691 -0.0115963 0)
(0.996144 -0.00987826 0)
(0.991725 -0.00966119 0)
(0.990244 -0.00995539 0)
(0.987905 -0.00769244 0)
(1.00092 0.00499197 0)
(1.00279 -0.00626577 0)
(0.998097 0.00359095 0)
(1.0021 -0.00123513 0)
(1.00248 -0.00565455 0)
(0.993036 -0.00398007 0)
(0.991953 -0.00178016 0)
(0.986261 -0.000151284 0)
(0.986897 0.012704 0)
(1.0007 0.0100681 0)
(1.00333 0.00623627 0)
(1.00467 0.00551307 0)
(1.00968 -0.00395198 0)
(1.0046 -0.00645057 0)
(1.00086 -0.00785871 0)
(0.999591 -0.0110471 0)
(0.996264 -0.00963076 0)
(0.991836 -0.00886167 0)
(0.990465 -0.00935164 0)
(0.988486 -0.00764093 0)
(1.00097 0.00486012 0)
(1.0026 -0.00601633 0)
(0.998419 0.00332514 0)
(1.00159 -0.0011291 0)
(1.00186 -0.00550408 0)
(0.993243 -0.00346346 0)
(0.992786 -0.00168496 0)
(0.987443 0.000166946 0)
(0.987973 0.0119054 0)
(1.00056 0.00953614 0)
(1.00317 0.00577527 0)
(1.00393 0.00515395 0)
(1.0087 -0.0035872 0)
(1.00418 -0.00631457 0)
(1.00032 -0.00717481 0)
(0.999426 -0.0104272 0)
(0.996383 -0.0094272 0)
(0.991963 -0.00816605 0)
(0.990606 -0.00863971 0)
(0.989065 -0.00753122 0)
(1.00099 0.00472462 0)
(1.00246 -0.00576315 0)
(0.998691 0.00305756 0)
(1.00114 -0.000989084 0)
(1.00134 -0.0053689 0)
(0.993396 -0.00298598 0)
(0.993498 -0.00159069 0)
(0.988562 0.000429481 0)
(0.989102 0.0111791 0)
(1.00053 0.00900319 0)
(1.00312 0.00535842 0)
(1.00333 0.00481338 0)
(1.0078 -0.00323865 0)
(1.00384 -0.00616672 0)
(0.999823 -0.0065519 0)
(0.999218 -0.00975438 0)
(0.996512 -0.00921777 0)
(0.992131 -0.00759304 0)
(0.990684 -0.00787751 0)
(0.989594 -0.00731425 0)
(1.00099 0.0045867 0)
(1.00237 -0.00550685 0)
(0.998918 0.00278841 0)
(1.00075 -0.000819322 0)
(1.00093 -0.00524433 0)
(0.993517 -0.0025481 0)
(0.994073 -0.00149959 0)
(0.989589 0.000636883 0)
(0.990192 0.0105211 0)
(1.00055 0.00847796 0)
(1.00314 0.00497878 0)
(1.00285 0.00450342 0)
(1.00699 -0.00288435 0)
(1.00357 -0.00600823 0)
(0.999411 -0.00598756 0)
(0.998989 -0.00904379 0)
(0.996664 -0.00898079 0)
(0.992358 -0.0071306 0)
(0.990736 -0.00712215 0)
(0.990042 -0.00695417 0)
(1.00095 0.00444406 0)
(1.00231 -0.00524317 0)
(0.999108 0.00251153 0)
(1.00041 -0.000618296 0)
(1.00063 -0.00512606 0)
(0.99364 -0.00214891 0)
(0.994523 -0.00139213 0)
(0.990515 0.000770769 0)
(0.991179 0.00991557 0)
(1.00057 0.0079668 0)
(1.00318 0.00460826 0)
(1.00246 0.00424366 0)
(1.00625 -0.00251857 0)
(1.00337 -0.00583606 0)
(0.999098 -0.00548113 0)
(0.99875 -0.00827756 0)
(0.996842 -0.00870549 0)
(0.99266 -0.00676584 0)
(0.990805 -0.00641957 0)
(0.9904 -0.00644415 0)
(1.00091 0.00429557 0)
(1.00227 -0.00497338 0)
(0.999272 0.00223449 0)
(1.00012 -0.000398764 0)
(1.00044 -0.00500495 0)
(0.993789 -0.00178691 0)
(0.994876 -0.00126161 0)
(0.991348 0.000832215 0)
(0.992035 0.00934602 0)
(1.00057 0.00749129 0)
(1.0032 0.00424009 0)
(1.00214 0.00401278 0)
(1.00557 -0.00214591 0)
(1.00322 -0.00565952 0)
(0.998896 -0.00503826 0)
(0.998512 -0.0074714 0)
(0.997031 -0.00834788 0)
(0.993037 -0.00647755 0)
(0.990933 -0.00579426 0)
(0.990676 -0.00584427 0)
(1.00085 0.00414429 0)
(1.00224 -0.00469812 0)
(0.999419 0.00195037 0)
(0.999863 -0.000162496 0)
(1.00033 -0.0048734 0)
(0.993979 -0.00146655 0)
(0.995166 -0.00110765 0)
(0.992108 0.000830993 0)
(0.992764 0.00880253 0)
(1.00051 0.00705959 0)
(1.00319 0.0038709 0)
(1.00185 0.00379995 0)
(1.00491 -0.0017463 0)
(1.00311 -0.00545231 0)
(0.998805 -0.0046599 0)
(0.998285 -0.00666854 0)
(0.997216 -0.00791704 0)
(0.993477 -0.00624726 0)
(0.991141 -0.00525072 0)
(0.990899 -0.00521879 0)
(1.0008 0.00398471 0)
(1.00219 -0.00440908 0)
(0.99956 0.00165897 0)
(0.999629 8.02865e-05 0)
(1.00028 -0.00473192 0)
(0.994209 -0.00119197 0)
(0.995417 -0.000914153 0)
(0.992814 0.000785126 0)
(0.993391 0.00826538 0)
(1.00042 0.00667735 0)
(1.00316 0.00350014 0)
(1.00161 0.00357432 0)
(1.00428 -0.00132677 0)
(1.003 -0.00520797 0)
(0.998809 -0.00433667 0)
(0.998076 -0.0058745 0)
(0.997373 -0.00739094 0)
(0.993966 -0.00602899 0)
(0.991445 -0.00481358 0)
(0.991103 -0.00461674 0)
(1.00075 0.00382 0)
(1.00214 -0.00411443 0)
(0.999703 0.00136641 0)
(0.999411 0.000328363 0)
(1.00027 -0.00456998 0)
(0.994476 -0.000971724 0)
(0.99565 -0.000687402 0)
(0.993483 0.000710168 0)
(0.993949 0.00771761 0)
(1.00028 0.00634847 0)
(1.00309 0.00314746 0)
(1.00139 0.00333791 0)
(1.00366 -0.000888765 0)
(1.00288 -0.00491992 0)
(0.9989 -0.00409555 0)
(0.9979 -0.00512969 0)
(0.99749 -0.00677423 0)
(0.994463 -0.00577525 0)
(0.99183 -0.00445402 0)
(0.991336 -0.00408618 0)
(1.0007 0.00365143 0)
(1.00209 -0.0038082 0)
(0.999855 0.00106119 0)
(0.999208 0.000572667 0)
(1.00028 -0.0043788 0)
(0.994771 -0.000802513 0)
(0.99587 -0.000428538 0)
(0.994121 0.000620117 0)
(0.994469 0.0071569 0)
(1.00013 0.0060613 0)
(1.00301 0.00281263 0)
(1.00123 0.00307237 0)
(1.00306 -0.000452469 0)
(1.00273 -0.00455197 0)
(0.999055 -0.00390485 0)
(0.997775 -0.00444071 0)
(0.997564 -0.00610319 0)
(0.994952 -0.00550421 0)
(0.992278 -0.00412277 0)
(0.99161 -0.00362821 0)
(1.00066 0.00347336 0)
(1.00202 -0.00349226 0)
(1.00002 0.000762101 0)
(0.999022 0.000808153 0)
(1.0003 -0.00415825 0)
(0.99509 -0.000696906 0)
(0.996081 -0.000145804 0)
(0.994729 0.000528237 0)
(0.994974 0.00658267 0)
(0.999961 0.00581681 0)
(1.00292 0.00252822 0)
(1.00112 0.00276029 0)
(1.00251 -5.32356e-05 0)
(1.00255 -0.00414062 0)
(0.999259 -0.00372777 0)
(0.997711 -0.00380571 0)
(0.997588 -0.00536021 0)
(0.995411 -0.0051919 0)
(0.992776 -0.0038474 0)
(0.991934 -0.00325502 0)
(1.00061 0.00329029 0)
(1.00195 -0.00316642 0)
(1.0002 0.000459834 0)
(0.998854 0.00101809 0)
(1.00031 -0.00388447 0)
(0.995428 -0.000644504 0)
(0.996285 0.000149601 0)
(0.995302 0.000460319 0)
(0.995482 0.00596459 0)
(0.999803 0.00559307 0)
(1.00281 0.00230319 0)
(1.00105 0.00242966 0)
(1.002 0.000303806 0)
(1.00233 -0.00365176 0)
(0.9995 -0.00356254 0)
(0.997727 -0.00326263 0)
(0.997574 -0.00457993 0)
(0.995806 -0.00473362 0)
(0.993291 -0.00355316 0)
(0.992324 -0.00302391 0)
(1.00057 0.00310506 0)
(1.00186 -0.00284341 0)
(1.00039 0.000177264 0)
(0.998712 0.00120443 0)
(1.00031 -0.00357795 0)
(0.995784 -0.00064128 0)
(0.996486 0.000437365 0)
(0.995829 0.000430438 0)
(0.995995 0.00534941 0)
(0.999663 0.00536339 0)
(1.00269 0.00213814 0)
(1.00104 0.00207407 0)
(1.00157 0.000598173 0)
(1.00207 -0.00315233 0)
(0.999747 -0.00337783 0)
(0.997827 -0.00281442 0)
(0.997565 -0.00381843 0)
(0.996147 -0.00418727 0)
(0.993751 -0.00314875 0)
(0.992682 -0.00258744 0)
(1.00053 0.00290681 0)
(1.00177 -0.00250496 0)
(1.0006 -9.89073e-05 0)
(0.998594 0.00135032 0)
(1.0003 -0.00321391 0)
(0.996154 -0.000661014 0)
(0.996688 0.000691192 0)
(0.996314 0.000446714 0)
(0.996515 0.00471162 0)
(0.999551 0.00512412 0)
(1.00255 0.00205257 0)
(1.00107 0.00173476 0)
(1.0012 0.000802748 0)
(1.0018 -0.00262441 0)
(0.999998 -0.00322956 0)
(0.998012 -0.00255539 0)
(0.997569 -0.00317535 0)
(0.996456 -0.00370155 0)
(0.994282 -0.00287727 0)
(0.993056 -0.00229166 0)
(1.0005 0.00271635 0)
(1.00167 -0.00218481 0)
(1.00081 -0.000353347 0)
(0.99851 0.00144829 0)
(1.00028 -0.00281752 0)
(0.996532 -0.000707741 0)
(0.996897 0.000912553 0)
(0.996739 0.000521517 0)
(0.997032 0.00409749 0)
(0.99948 0.00484415 0)
(1.00238 0.0020162 0)
(1.00112 0.00143054 0)
(1.00092 0.000899844 0)
(1.00149 -0.0020662 0)
(1.00019 -0.00303756 0)
(0.998264 -0.00249011 0)
(0.997617 -0.00280572 0)
(0.996689 -0.00341437 0)
(0.994704 -0.00264508 0)
(0.993453 -0.00174572 0)
(1.00047 0.00250982 0)
(1.00156 -0.00184254 0)
(1.00102 -0.000599164 0)
(0.998451 0.00149725 0)
(1.00024 -0.00238847 0)
(0.996916 -0.000745781 0)
(0.997121 0.00106092 0)
(0.997118 0.000640669 0)
(0.997537 0.00350855 0)
(0.999448 0.00453243 0)
(1.00221 0.00202895 0)
(1.00118 0.00118217 0)
(1.00071 0.000909151 0)
(1.00119 -0.0016012 0)
(1.00031 -0.00277765 0)
(0.998509 -0.00240508 0)
(0.997679 -0.00249155 0)
(0.996962 -0.00305776 0)
(0.995368 -0.00260693 0)
(0.993976 -0.00140704 0)
(1.00044 0.00230998 0)
(1.00144 -0.00150676 0)
(1.00122 -0.000821344 0)
(0.998437 0.00147973 0)
(1.0002 -0.00192952 0)
(0.997287 -0.00077942 0)
(0.99736 0.00116676 0)
(0.99744 0.000803196 0)
(0.998017 0.00297609 0)
(0.999471 0.00415256 0)
(1.00202 0.00205864 0)
(1.00123 0.000970378 0)
(1.00058 0.000863578 0)
(1.0009 -0.00116447 0)
(1.00038 -0.0024729 0)
(0.998785 -0.0022078 0)
(0.997805 -0.00197258 0)
(0.997084 -0.0023261 0)
(0.995807 -0.00195821 0)
(0.994728 -0.00109243 0)
(1.00042 0.00209844 0)
(1.00131 -0.00116594 0)
(1.00141 -0.00100512 0)
(0.998454 0.00141408 0)
(1.00014 -0.0014813 0)
(0.997644 -0.000773868 0)
(0.99762 0.00121072 0)
(0.997718 0.00095742 0)
(0.998451 0.00252806 0)
(0.999534 0.00374885 0)
(1.00184 0.00208253 0)
(1.00126 0.000854088 0)
(1.00051 0.000776265 0)
(1.00064 -0.000812852 0)
(1.00041 -0.00208354 0)
(0.999109 -0.00203352 0)
(0.998054 -0.00167982 0)
(0.997417 -0.00183656 0)
(0.996331 -0.00161832 0)
(0.994978 -0.000725038 0)
(1.00041 0.00189252 0)
(1.00117 -0.000838461 0)
(1.00158 -0.00115724 0)
(0.998513 0.00128797 0)
(1.00008 -0.00103216 0)
(0.99797 -0.000729842 0)
(0.997887 0.00118946 0)
(0.997953 0.00113346 0)
(0.998845 0.00215881 0)
(0.999643 0.00331692 0)
(1.00167 0.00206336 0)
(1.00125 0.000807815 0)
(1.00046 0.000695816 0)
(1.00044 -0.000475934 0)
(1.0004 -0.00164285 0)
(0.999356 -0.00185958 0)
(0.998288 -0.00151828 0)
(0.99754 -0.00146505 0)
(0.99674 -0.00136239 0)
(0.99586 -0.000503633 0)
(1.00039 0.0017002 0)
(1.00102 -0.000563068 0)
(1.00172 -0.00123942 0)
(0.998603 0.00113178 0)
(1.00002 -0.000631817 0)
(0.998266 -0.00065667 0)
(0.998176 0.00116239 0)
(0.998161 0.00127865 0)
(0.999168 0.00189527 0)
(0.999766 0.0028846 0)
(1.00154 0.00202036 0)
(1.00123 0.000798604 0)
(1.00048 0.000670778 0)
(1.00029 -0.000179509 0)
(1.00034 -0.00120036 0)
(0.999574 -0.00151272 0)
(0.998611 -0.00114997 0)
(0.997908 -0.000915533 0)
(0.997201 -0.000696374 0)
(0.996294 -0.000208049 0)
(1.00039 0.00150194 0)
(1.00086 -0.000291573 0)
(1.00184 -0.00127921 0)
(0.998727 0.000943634 0)
(0.999976 -0.000283767 0)
(0.998526 -0.000518727 0)
(0.998457 0.00108889 0)
(0.998337 0.00139599 0)
(0.999443 0.00171152 0)
(0.999915 0.00250806 0)
(1.00143 0.00193539 0)
(1.0012 0.000844545 0)
(1.0005 0.000690978 0)
(1.00019 6.97921e-05 0)
(1.00031 -0.000751101 0)
(0.999788 -0.00109538 0)
(0.998931 -0.000847588 0)
(0.998155 -0.000606909 0)
(0.997491 -0.000469984 0)
(0.996815 -7.14885e-05 0)
(1.00038 0.00133009 0)
(1.0007 -8.30702e-05 0)
(1.00192 -0.00124342 0)
(0.998873 0.000737616 0)
(0.999938 -4.76384e-06 0)
(0.998747 -0.000370363 0)
(0.998747 0.0010151 0)
(0.99851 0.0015068 0)
(0.999651 0.00159842 0)
(1.00005 0.00216863 0)
(1.00136 0.0018289 0)
(1.00118 0.000925348 0)
(1.00055 0.000748033 0)
(1.00014 0.000296279 0)
(1.00027 -0.000375512 0)
(0.999933 -0.000767274 0)
(0.999207 -0.000616966 0)
(0.998485 -0.000361418 0)
(0.997874 -8.14064e-05 0)
(0.99726 0.000287181 0)
(1.00038 0.00115887 0)
(1.00054 0.000105861 0)
(1.00197 -0.00116416 0)
(0.999035 0.000527067 0)
(0.999924 0.000207443 0)
(0.998938 -0.000192065 0)
(0.999025 0.000949409 0)
(0.998663 0.00156479 0)
(0.999811 0.00152987 0)
(1.00019 0.00192773 0)
(1.00133 0.00173849 0)
(1.00116 0.00100127 0)
(1.00059 0.000804888 0)
(1.00011 0.000449685 0)
(1.00024 -7.36927e-05 0)
(1.00007 -0.000449883 0)
(0.999491 -0.000340522 0)
(0.99881 -7.17805e-05 0)
(0.998223 0.000161303 0)
(0.997665 0.000516778 0)
(1.00038 0.00101191 0)
(1.00039 0.000244356 0)
(1.00199 -0.00103953 0)
(0.999203 0.000330227 0)
(0.999929 0.000346666 0)
(0.999096 -1.89397e-05 0)
(0.999294 0.000884367 0)
(0.998823 0.00161631 0)
(0.999935 0.00152089 0)
(1.0003 0.00173781 0)
(1.00131 0.00162395 0)
(1.00115 0.00105972 0)
(1.00064 0.000881673 0)
(1.00012 0.000614497 0)
(1.00023 0.000211363 0)
(1.00018 -0.000145229 0)
(0.999751 -8.93019e-05 0)
(0.999121 0.000167746 0)
(0.998578 0.000401844 0)
(0.998077 0.000722884 0)
(1.00038 0.000875348 0)
(1.00025 0.000353738 0)
(1.00198 -0.000893803 0)
(0.999371 0.000161657 0)
(0.999961 0.000431564 0)
(0.999234 0.000148823 0)
(0.999548 0.000828978 0)
(0.998976 0.00163759 0)
(1.00002 0.00152429 0)
(1.00039 0.00160448 0)
(1.00132 0.0015369 0)
(1.00115 0.00111472 0)
(1.00069 0.000959399 0)
(1.00014 0.000755377 0)
(1.00022 0.000451674 0)
(1.00027 0.000148469 0)
(0.999998 0.000140699 0)
(0.999443 0.00038647 0)
(0.99891 0.000651987 0)
(0.998483 0.000869116 0)
(1.00039 0.000758415 0)
(1.00012 0.000423076 0)
(1.00195 -0.000735311 0)
(0.999532 3.38819e-05 0)
(1.00001 0.000467917 0)
(0.99935 0.000288732 0)
(0.999786 0.000772111 0)
(0.99914 0.00163312 0)
(1.00008 0.00156567 0)
(1.00046 0.00153691 0)
(1.00133 0.00145112 0)
(1.00116 0.00114063 0)
(1.00075 0.00103293 0)
(1.00019 0.000903036 0)
(1.00025 0.000686415 0)
(1.00035 0.000422126 0)
(1.00021 0.00037364 0)
(0.999768 0.000549638 0)
(0.999222 0.000873061 0)
(0.998855 0.00104385 0)
(1.00039 0.00065477 0)
(1 0.00046597 0)
(1.00189 -0.000576771 0)
(0.99968 -5.5314e-05 0)
(1.00009 0.000474293 0)
(0.999453 0.000407283 0)
(1.00001 0.00073112 0)
(0.999309 0.00160438 0)
(1.00012 0.00160859 0)
(1.0005 0.00150532 0)
(1.00135 0.00138729 0)
(1.0012 0.00116252 0)
(1.00082 0.00111227 0)
(1.00025 0.00104671 0)
(1.00027 0.000885838 0)
(1.00042 0.000652819 0)
(1.00039 0.000606971 0)
(1.00009 0.000695607 0)
(0.999564 0.00103461 0)
(0.999182 0.00125589 0)
(1.0004 0.000567667 0)
(0.999901 0.000481109 0)
(1.00181 -0.000423342 0)
(0.999813 -0.000101554 0)
(1.00017 0.000463873 0)
(0.999543 0.000498309 0)
(1.00021 0.000684923 0)
(0.999489 0.00154843 0)
(1.00017 0.00165219 0)
(1.00052 0.00152276 0)
(1.00136 0.00135879 0)
(1.00124 0.00117611 0)
(1.00091 0.00115849 0)
(1.00033 0.00116473 0)
(1.00031 0.00107842 0)
(1.0005 0.000881997 0)
(1.00054 0.00083776 0)
(1.00037 0.000872964 0)
(0.999929 0.00111611 0)
(0.999478 0.00143238 0)
(1.0004 0.000494095 0)
(0.999812 0.000476215 0)
(1.00173 -0.000278923 0)
(0.999928 -0.000114118 0)
(1.00027 0.000447599 0)
(0.999624 0.000576937 0)
(1.00039 0.000646905 0)
(0.999681 0.00146825 0)
(1.00021 0.00168135 0)
(1.00051 0.00156294 0)
(1.00136 0.00134555 0)
(1.00129 0.00119348 0)
(1.00101 0.00119475 0)
(1.00044 0.0012656 0)
(1.00037 0.00126379 0)
(1.00057 0.00109762 0)
(1.00067 0.00102777 0)
(1.00059 0.00105496 0)
(1.00029 0.00117156 0)
(0.999809 0.00153513 0)
(1.00041 0.000432645 0)
(0.999736 0.000457793 0)
(1.00164 -0.000149662 0)
(1.00002 -9.59143e-05 0)
(1.00037 0.00043427 0)
(0.999697 0.000649873 0)
(1.00055 0.00062183 0)
(0.99988 0.00135879 0)
(1.00027 0.00167734 0)
(1.00048 0.00161761 0)
(1.00134 0.00136345 0)
(1.00133 0.00121792 0)
(1.00112 0.00123159 0)
(1.00058 0.00133106 0)
(1.00045 0.00140368 0)
(1.00063 0.00129588 0)
(1.00079 0.00119705 0)
(1.00077 0.00123771 0)
(1.00061 0.00127916 0)
(1.00018 0.00157017 0)
(1.00041 0.00038307 0)
(0.999673 0.000427428 0)
(1.00154 -3.32821e-05 0)
(1.0001 -5.55992e-05 0)
(1.00048 0.000420236 0)
(0.999763 0.000717872 0)
(1.00068 0.000620887 0)
(1.00008 0.00124244 0)
(1.00036 0.00162994 0)
(1.00046 0.00167272 0)
(1.00129 0.00140682 0)
(1.00136 0.00124363 0)
(1.00123 0.00125847 0)
(1.00073 0.00138123 0)
(1.00057 0.0014955 0)
(1.0007 0.00147768 0)
(1.0009 0.00136677 0)
(1.00094 0.0013937 0)
(1.00086 0.00141497 0)
(1.00054 0.00157915 0)
(1.00041 0.000343865 0)
(0.999623 0.00039048 0)
(1.00145 6.81989e-05 0)
(1.00016 1.96969e-08 0)
(1.00058 0.000408625 0)
(0.999827 0.000776113 0)
(1.00077 0.000644436 0)
(1.00027 0.00113546 0)
(1.00048 0.00153723 0)
(1.00045 0.00170755 0)
(1.00124 0.00146728 0)
(1.00138 0.00129459 0)
(1.00134 0.00127708 0)
(1.0009 0.00142383 0)
(1.00072 0.00155098 0)
(1.00079 0.00160937 0)
(1.00099 0.00152405 0)
(1.0011 0.00150913 0)
(1.00106 0.00154494 0)
(1.00085 0.0016275 0)
(1.00042 0.000312988 0)
(0.999584 0.00035044 0)
(1.00135 0.000156652 0)
(1.00021 6.56259e-05 0)
(1.00068 0.000400256 0)