/*--------------------------------*- C++ -*----------------------------------*\
| =========                 |                                                 |
| \\      /  F ield         | OpenFOAM: The Open Source CFD Toolbox           |
|  \\    /   O peration     | Version:  v1912                                 |
|   \\  /    A nd           | Website:  www.openfoam.com                      |
|    \\/     M anipulation  |                                                 |
\*---------------------------------------------------------------------------*/
FoamFile
{
    version     2.0;
    format      ascii;
    class       surfaceScalarField;
    location    "3.3";
    object      phi;
}
// * * * * * * * * * * * * * * * * * * * * * * * * * * * * * * * * * * * * * //

dimensions      [0 3 -1 0 0 0 0];
oriented        oriented;


internalField   nonuniform List<scalar> 
19000
(
1.15392e-06
-5.71857e-07
1.23387e-06
-1.76837e-08
1.31009e-06
8.51282e-07
9.79039e-07
5.05896e-07
1.0505e-06
-1.12541e-06
1.22725e-06
1.93693e-06
1.15767e-06
8.10483e-07
1.20057e-06
1.31591e-06
1.19333e-06
7.41995e-07
1.15823e-06
6.33007e-07
1.19867e-06
2.95062e-07
1.1722e-06
-3.10559e-07
1.21164e-06
-5.18359e-08
1.20042e-06
2.44198e-07
1.17171e-06
1.35399e-07
1.17588e-06
6.16702e-07
1.16167e-06
4.70513e-07
1.15975e-06
4.93053e-07
1.15887e-06
2.99897e-07
2.23545e-07
1.15104e-06
1.21274e-06
-5.60335e-07
1.29019e-06
-9.51384e-08
1.37689e-06
7.6459e-07
1.0349e-06
8.47886e-07
1.11319e-06
-1.20371e-06
1.29287e-06
1.75725e-06
1.21615e-06
8.87199e-07
1.26739e-06
1.26466e-06
1.25652e-06
7.52864e-07
1.2263e-06
6.63225e-07
1.26706e-06
2.54304e-07
1.23951e-06
-2.83009e-07
1.27584e-06
-8.81595e-08
1.26971e-06
2.5032e-07
1.22664e-06
1.78477e-07
1.25181e-06
5.91531e-07
1.21226e-06
5.10055e-07
1.23582e-06
4.69501e-07
1.20514e-06
3.3057e-07
1.93703e-07
1.23499e-06
1.27463e-06
-5.52179e-07
1.34674e-06
-1.67253e-07
1.4452e-06
6.66129e-07
1.10862e-06
1.18447e-06
1.17954e-06
-1.27463e-06
1.37428e-06
1.56251e-06
1.28934e-06
9.72139e-07
1.34512e-06
1.20889e-06
1.32944e-06
7.68542e-07
1.3119e-06
6.80764e-07
1.34323e-06
2.22975e-07
1.32362e-06
-2.63403e-07
1.34473e-06
-1.09269e-07
1.35661e-06
2.38446e-07
1.29071e-06
2.44377e-07
1.31743e-06
5.64805e-07
1.27703e-06
5.50456e-07
1.28794e-06
4.58595e-07
1.27558e-06
3.42922e-07
1.8987e-07
1.27942e-06
1.33891e-06
-5.46983e-07
1.40209e-06
-2.30434e-07
1.51563e-06
5.52588e-07
1.20156e-06
1.49855e-06
1.25557e-06
-1.32865e-06
1.47098e-06
1.3471e-06
1.37659e-06
1.06653e-06
1.42976e-06
1.15572e-06
1.41007e-06
7.88224e-07
1.40469e-06
6.86151e-07
1.41914e-06
2.08523e-07
1.40835e-06
-2.52608e-07
1.41658e-06
-1.17504e-07
1.44033e-06
2.14701e-07
1.36941e-06
3.15293e-07
1.373e-06
5.61211e-07
1.35039e-06
5.73071e-07
1.34731e-06
4.61676e-07
1.34521e-06
3.45024e-07
1.90986e-07
1.34409e-06
1.40445e-06
-5.43084e-07
1.45617e-06
-2.82144e-07
1.58544e-06
4.23309e-07
1.31537e-06
1.76862e-06
1.33973e-06
-1.35301e-06
1.57133e-06
1.11551e-06
1.47584e-06
1.16201e-06
1.51406e-06
1.11751e-06
1.49356e-06
8.08722e-07
1.49428e-06
6.85426e-07
1.48945e-06
2.1336e-07
1.48134e-06
-2.44504e-07
1.48574e-06
-1.21904e-07
1.51315e-06
1.87297e-07
1.45809e-06
3.70345e-07
1.44085e-06
5.78459e-07
1.42858e-06
5.85342e-07
1.42259e-06
4.67665e-07
1.42004e-06
3.47575e-07
1.94561e-07
1.41646e-06
1.47054e-06
-5.37952e-07
1.51032e-06
-3.21918e-07
1.65097e-06
2.82658e-07
1.44256e-06
1.97703e-06
1.4276e-06
-1.33804e-06
1.65948e-06
8.8362e-07
1.58099e-06
1.2405e-06
1.59486e-06
1.10364e-06
1.57554e-06
8.28039e-07
1.57622e-06
6.84749e-07
1.5545e-06
2.35081e-07
1.54217e-06
-2.32178e-07
1.54793e-06
-1.27664e-07
1.57621e-06
1.59018e-07
1.54574e-06
4.00814e-07
1.52386e-06
6.00339e-07
1.51331e-06
5.95891e-07
1.5062e-06
4.74779e-07
1.50082e-06
3.52952e-07
2.03489e-07
1.49189e-06
1.53752e-06
-5.29254e-07
1.56681e-06
-3.51211e-07
1.70864e-06
1.40831e-07
1.56699e-06
2.11868e-06
1.51436e-06
-1.28542e-06
1.7273e-06
6.70684e-07
1.68264e-06
1.28516e-06
1.67251e-06
1.11377e-06
1.65348e-06
8.4707e-07
1.65091e-06
6.87323e-07
1.61751e-06
2.68482e-07
1.59765e-06
-2.12324e-07
1.60294e-06
-1.32949e-07
1.63167e-06
1.30286e-07
1.62445e-06
4.08029e-07
1.61071e-06
6.14081e-07
1.60151e-06
6.05089e-07
1.59202e-06
4.84278e-07
1.58332e-06
3.61644e-07
2.1787e-07
1.56894e-06
1.60711e-06
-5.16236e-07
1.62768e-06
-3.71779e-07
1.75711e-06
1.13954e-08
1.6749e-06
2.20089e-06
1.59851e-06
-1.20903e-06
1.77789e-06
4.91309e-07
1.77134e-06
1.29171e-06
1.74685e-06
1.13826e-06
1.72692e-06
8.66997e-07
1.7204e-06
6.93846e-07
1.68132e-06
3.07566e-07
1.65476e-06
-1.85765e-07
1.65502e-06
-1.33208e-07
1.68249e-06
1.02812e-07
1.69278e-06
3.97738e-07
1.69167e-06
6.15192e-07
1.68709e-06
6.09673e-07
1.67662e-06
4.94739e-07
1.66562e-06
3.72652e-07
2.3589e-07
1.6476e-06
1.68174e-06
-5.004e-07
1.69401e-06
-3.84051e-07
1.79905e-06
-9.36421e-08
1.76411e-06
2.23583e-06
1.68148e-06
-1.1264e-06
1.81932e-06
3.53464e-07
1.84228e-06
1.26875e-06
1.81671e-06
1.16383e-06
1.79699e-06
8.86714e-07
1.78735e-06
7.03482e-07
1.74794e-06
3.46978e-07
1.71804e-06
-1.55858e-07
1.71061e-06
-1.25787e-07
1.73373e-06
7.96929e-08
1.75441e-06
3.77064e-07
1.76472e-06
6.04877e-07
1.76723e-06
6.07168e-07
1.75874e-06
5.03225e-07
1.74766e-06
3.83731e-07
2.55085e-07
1.72847e-06
1.76303e-06
-4.84711e-07
1.76623e-06
-3.87249e-07
1.84083e-06
-1.68244e-07
1.84225e-06
2.23441e-06
1.76496e-06
-1.0491e-06
1.85961e-06
2.58809e-07
1.89861e-06
1.22976e-06
1.88239e-06
1.18005e-06
1.8657e-06
9.03401e-07
1.85495e-06
7.14232e-07
1.81929e-06
3.82635e-07
1.78986e-06
-1.26426e-07
1.77521e-06
-1.11138e-07
1.79133e-06
6.35787e-08
1.81576e-06
3.52625e-07
1.83378e-06
5.86859e-07
1.84357e-06
5.97376e-07
1.83895e-06
5.07847e-07
1.82964e-06
3.93043e-07
2.73233e-07
1.81149e-06
1.85092e-06
-4.71884e-07
1.84465e-06
-3.80982e-07
1.88988e-06
-2.13468e-07
1.91893e-06
2.20536e-06
1.85007e-06
-9.80242e-07
1.90627e-06
2.02606e-07
1.95026e-06
1.18576e-06
1.94722e-06
1.18309e-06
1.93575e-06
9.14872e-07
1.92637e-06
7.2362e-07
1.8971e-06
4.11899e-07
1.871e-06
-1.00324e-07
1.85135e-06
-9.14869e-08
1.85946e-06
5.54698e-08
1.88277e-06
3.29309e-07
1.9041e-06
5.65527e-07
1.9193e-06
5.82178e-07
1.91859e-06
5.08556e-07
1.91164e-06
3.99993e-07
2.88849e-07
1.89603e-06
1.94411e-06
-4.6315e-07
1.92969e-06
-3.66562e-07
1.95122e-06
-2.34998e-07
1.99997e-06
2.15661e-06
1.93782e-06
-9.18097e-07
1.96559e-06
1.74839e-07
2.00849e-06
1.14286e-06
2.0163e-06
1.17528e-06
2.01019e-06
9.20988e-07
2.00393e-06
7.29874e-07
1.98217e-06
4.33664e-07
1.96083e-06
-7.898e-08
1.93859e-06
-6.92475e-08
1.93917e-06
5.48823e-08
1.95842e-06
3.10061e-07
1.97902e-06
5.44933e-07
1.99677e-06
5.64429e-07
1.99904e-06
5.06284e-07
1.99427e-06
4.04757e-07
3.01126e-07
1.982e-06
2.0412e-06
-4.58161e-07
2.02158e-06
-3.4694e-07
2.02604e-06
-2.39463e-07
2.08685e-06
2.0958e-06
2.02926e-06
-8.60505e-07
2.04048e-06
1.63619e-07
2.0802e-06
1.10313e-06
2.0938e-06
1.16169e-06
2.09156e-06
9.23227e-07
2.0888e-06
7.32635e-07
2.07413e-06
4.48335e-07
2.05772e-06
-6.25718e-08
2.03483e-06
-4.63568e-08
2.02921e-06
6.05039e-08
2.04308e-06
2.96189e-07
2.05999e-06
5.2802e-07
2.07772e-06
5.46706e-07
2.08214e-06
5.01864e-07
2.07928e-06
4.07613e-07
3.09732e-07
2.07067e-06
2.14151e-06
-4.55675e-07
2.12015e-06
-3.25578e-07
2.1128e-06
-2.32111e-07
2.17908e-06
2.02952e-06
2.12515e-06
-8.06577e-07
2.12978e-06
1.58993e-07
2.1663e-06
1.06661e-06
2.18132e-06
1.14667e-06
2.18113e-06
9.23417e-07
2.18117e-06
7.32597e-07
2.17209e-06
4.57409e-07
2.15991e-06
-5.03895e-08
2.13782e-06
-2.42687e-08
2.12769e-06
7.0636e-08
2.13635e-06
2.87531e-07
2.14834e-06
5.16032e-07
2.16445e-06
5.30588e-07
2.17063e-06
4.95686e-07
2.16942e-06
4.08823e-07
3.14823e-07
2.16433e-06
2.24508e-06
-4.54263e-07
2.22478e-06
-3.05276e-07
2.20919e-06
-2.16525e-07
2.27642e-06
1.96229e-06
2.22599e-06
-7.56146e-07
2.23004e-06
1.54943e-07
2.26397e-06
1.03269e-06
2.27818e-06
1.13245e-06
2.2788e-06
9.22797e-07
2.28079e-06
7.30601e-07
2.27548e-06
4.62726e-07
2.26628e-06
-4.11952e-08
2.24601e-06
-3.99815e-09
2.2331e-06
8.35445e-08
2.23795e-06
2.82681e-07
2.24558e-06
5.08408e-07
2.25952e-06
5.1664e-07
2.26729e-06
4.87921e-07
2.26729e-06
4.08824e-07
3.17068e-07
2.26504e-06
2.35229e-06
-4.52678e-07
2.33469e-06
-2.87673e-07
2.31353e-06
-1.95365e-07
2.37947e-06
1.89635e-06
2.33214e-06
-7.08811e-07
2.33786e-06
1.49216e-07
2.36973e-06
1.00082e-06
2.38272e-06
1.11947e-06
2.38376e-06
9.21753e-07
2.38735e-06
7.27014e-07
2.38425e-06
4.65828e-07
2.3766e-06
-3.3551e-08
2.35866e-06
1.39461e-08
2.34434e-06
9.78675e-08
2.34738e-06
2.79636e-07
2.35243e-06
5.03356e-07
2.3643e-06
5.04779e-07
2.37346e-06
4.78757e-07
2.37409e-06
4.08194e-07
3.17497e-07
2.37366e-06
2.46366e-06
-4.49938e-07
2.44934e-06
-2.7336e-07
2.42495e-06
-1.70972e-07
2.48915e-06
1.83215e-06
2.44402e-06
-6.63682e-07
2.45115e-06
1.42082e-07
2.48111e-06
9.70859e-07
2.49344e-06
1.10714e-06
2.49528e-06
9.19917e-07
2.50058e-06
7.2171e-07
2.49869e-06
4.6772e-07
2.49123e-06
-2.6093e-08
2.47559e-06
2.95866e-08
2.46059e-06
1.12867e-07
2.46353e-06
2.7669e-07
2.46812e-06
4.98774e-07
2.47824e-06
4.94654e-07
2.48855e-06
4.68445e-07
2.48935e-06
4.07392e-07
3.17215e-07
2.48964e-06
2.57973e-06
-4.45369e-07
2.56857e-06
-2.62207e-07
2.54305e-06
-1.45452e-07
2.60603e-06
1.76917e-06
2.562e-06
-6.19648e-07
2.56907e-06
1.35007e-07
2.59688e-06
9.43046e-07
2.60946e-06
1.09457e-06
2.61294e-06
9.16438e-07
2.62025e-06
7.14391e-07
2.61901e-06
4.68961e-07
2.61066e-06
-1.77369e-08
2.59689e-06
4.33502e-08
2.58142e-06
1.28342e-07
2.58511e-06
2.73002e-07
2.59085e-06
4.93033e-07
2.59963e-06
4.85871e-07
2.61082e-06
4.57256e-07
2.61165e-06
4.0656e-07
3.17142e-07
2.61173e-06
2.70113e-06
-4.38669e-07
2.69253e-06
-2.53612e-07
2.66754e-06
-1.20456e-07
2.7302e-06
1.70651e-06
2.68621e-06
-5.75654e-07
2.6916e-06
1.29612e-07
2.71693e-06
9.17715e-07
2.73057e-06
1.08092e-06
2.7366e-06
9.10414e-07
2.74611e-06
7.04882e-07
2.74528e-06
4.69792e-07
2.73536e-06
-7.82149e-09
2.7229e-06
5.58126e-08
2.70689e-06
1.44348e-07
2.71128e-06
2.68617e-07
2.71898e-06
4.85335e-07
2.72678e-06
4.78066e-07
2.73856e-06
4.45474e-07
2.73962e-06
4.05503e-07
3.17896e-07
2.73887e-06
2.82852e-06
-4.29916e-07
2.82164e-06
-2.46738e-07
2.7982e-06
-9.70095e-08
2.86142e-06
1.64328e-06
2.8166e-06
-5.30838e-07
2.81919e-06
1.27022e-07
2.84197e-06
8.94936e-07
2.85715e-06
1.06575e-06
2.86623e-06
9.01333e-07
2.87788e-06
6.93229e-07
2.87745e-06
4.70228e-07
2.86576e-06
3.86924e-09
2.85409e-06
6.74797e-08
2.83753e-06
1.6091e-07
2.84202e-06
2.64129e-07
2.85169e-06
4.75661e-07
2.85879e-06
4.70965e-07
2.87087e-06
4.33397e-07
2.87254e-06
4.03829e-07
3.19736e-07
2.8707e-06
2.96243e-06
-4.19449e-07
2.95646e-06
-2.40765e-07
2.93496e-06
-7.5514e-08
2.99934e-06
1.5789e-06
2.95315e-06
-4.84645e-07
2.95254e-06
1.27634e-07
2.97309e-06
8.74378e-07
2.98986e-06
1.04898e-06
3.0019e-06
8.89297e-07
3.01547e-06
6.79651e-07
3.01557e-06
4.70135e-07
3.00221e-06
1.72274e-08
2.99102e-06
7.86645e-08
2.97404e-06
1.77898e-07
2.97791e-06
2.60257e-07
2.98909e-06
4.64483e-07
2.99567e-06
4.64377e-07
3.0077e-06
4.21369e-07
3.01048e-06
4.01051e-07
3.22609e-07
3.00761e-06
3.10325e-06
-4.0769e-07
3.09758e-06
-2.35096e-07
3.07798e-06
-5.59174e-08
3.14368e-06
1.5132e-06
3.09598e-06
-4.36944e-07
3.09238e-06
1.31233e-07
3.1113e-06
8.55457e-07
3.12945e-06
1.03083e-06
3.14386e-06
8.74889e-07
3.15905e-06
6.64457e-07
3.15982e-06
4.6937e-07
3.14504e-06
3.20094e-08
3.13423e-06
8.94683e-08
3.11708e-06
1.95049e-07
3.11977e-06
2.57573e-07
3.13183e-06
4.52419e-07
3.13803e-06
4.58179e-07
3.14964e-06
4.09753e-07
3.15397e-06
3.96729e-07
3.26205e-07
3.15037e-06
3.25122e-06
-3.95002e-07
3.24554e-06
-2.29418e-07
3.22758e-06
-3.79546e-08
3.29433e-06
1.44646e-06
3.2454e-06
-3.88016e-07
3.23938e-06
1.37259e-07
3.25725e-06
8.37587e-07
3.27652e-06
1.01156e-06
3.29253e-06
8.58878e-07
3.30901e-06
6.47976e-07
3.3105e-06
4.67883e-07
3.2945e-06
4.80091e-08
3.28416e-06
9.98073e-08
3.26716e-06
2.12048e-07
3.26834e-06
2.56391e-07
3.28077e-06
4.39992e-07
3.28667e-06
4.52276e-07
3.29753e-06
3.98898e-07
3.30369e-06
3.90568e-07
3.30038e-07
3.29985e-06
3.40656e-06
-3.81631e-07
3.40078e-06
-2.23638e-07
3.38419e-06
-2.13618e-08
3.45144e-06
1.37921e-06
3.40181e-06
-3.38393e-07
3.39403e-06
1.45036e-07
3.4113e-06
8.20323e-07
3.43152e-06
9.9134e-07
3.44843e-06
8.41967e-07
3.46586e-06
6.30541e-07
3.46798e-06
4.65766e-07
3.45085e-06
6.51339e-08
3.44117e-06
1.0949e-07
3.42465e-06
2.28575e-07
3.42422e-06
2.56812e-07
3.43668e-06
4.27541e-07
3.4424e-06
4.46549e-07
3.45219e-06
3.89114e-07
3.46026e-06
3.82493e-07
3.33533e-07
3.45677e-06
3.5695e-06
-3.67716e-07
3.56362e-06
-2.17764e-07
3.54826e-06
-6.00343e-09
3.61536e-06
1.31211e-06
3.56563e-06
-2.88664e-07
3.55673e-06
1.53934e-07
3.5737e-06
8.0336e-07
3.59478e-06
9.70254e-07
3.61207e-06
8.24685e-07
3.63011e-06
6.12496e-07
3.63268e-06
4.63197e-07
3.61441e-06
8.34064e-08
3.60559e-06
1.18303e-07
3.58985e-06
2.4432e-07
3.58787e-06
2.58795e-07
3.60019e-06
4.15218e-07
3.60588e-06
4.40859e-07
3.61438e-06
3.80612e-07
3.62416e-06
3.72713e-07
3.36046e-07
3.62165e-06
3.74031e-06
-3.53322e-07
3.73435e-06
-2.11799e-07
3.72023e-06
8.10921e-09
3.78661e-06
1.24574e-06
3.73728e-06
-2.3934e-07
3.72777e-06
1.63442e-07
3.74467e-06
7.86462e-07
3.7666e-06
9.48328e-07
3.78391e-06
8.07374e-07
3.80222e-06
5.94186e-07
3.80504e-06
4.60376e-07
3.78554e-06
1.02902e-07
3.77774e-06
1.26111e-07
3.76305e-06
2.59001e-07
3.75965e-06
2.622e-07
3.7718e-06
4.03065e-07
3.77764e-06
4.35026e-07
3.78478e-06
3.7347e-07
3.79578e-06
3.6171e-07
3.36907e-07
3.79492e-06
3.91935e-06
-3.38486e-07
3.91325e-06
-2.05692e-07
3.90047e-06
2.08808e-08
3.96571e-06
1.18051e-06
3.91719e-06
-1.90824e-07
3.90743e-06
1.73204e-07
3.92448e-06
7.6941e-07
3.9472e-06
9.25612e-07
3.96435e-06
7.90221e-07
3.98259e-06
5.75941e-07
3.98551e-06
4.57458e-07
3.96473e-06
1.23681e-07
3.95792e-06
1.32923e-07
3.94457e-06
2.72352e-07
3.93993e-06
2.66843e-07
3.95192e-06
3.91068e-07
3.95813e-06
4.28823e-07
3.96389e-06
3.67703e-07
3.9755e-06
3.50107e-07
3.35548e-07
3.97686e-06
4.10703e-06
-3.23264e-07
4.10066e-06
-1.99326e-07
4.08931e-06
3.22328e-08
4.15317e-06
1.11665e-06
4.1058e-06
-1.4345e-07
4.09598e-06
1.83016e-07
4.11342e-06
7.51977e-07
4.13679e-06
9.02237e-07
4.1537e-06
7.73313e-07
4.1716e-06
5.58047e-07
4.17454e-06
4.5451e-07
4.15251e-06
1.45721e-07
4.14651e-06
1.3892e-07
4.13478e-06
2.84081e-07
4.12905e-06
2.72577e-07
4.14087e-06
3.79244e-07
4.14774e-06
4.2195e-07
4.15217e-06
3.63272e-07
4.16372e-06
3.38563e-07
3.31636e-07
4.16763e-06
4.30379e-06
-3.07747e-07
4.29701e-06
-1.92556e-07
4.28706e-06
4.21887e-08
4.34945e-06
1.05425e-06
4.30355e-06
-9.75421e-08
4.29376e-06
1.92799e-07
4.31181e-06
7.33932e-07
4.33562e-06
8.78419e-07
4.35225e-06
7.56687e-07
4.36958e-06
5.40718e-07
4.37259e-06
4.51499e-07
4.34944e-06
1.68876e-07
4.34392e-06
1.44433e-07
4.33413e-06
2.93876e-07
4.3274e-06
2.79309e-07
4.33894e-06
3.67704e-07
4.3468e-06
4.14089e-07
4.35007e-06
3.60001e-07
4.36089e-06
3.27739e-07
3.25193e-07
4.36734e-06
4.51009e-06
-2.92067e-07
4.50278e-06
-1.85247e-07
4.49407e-06
5.09012e-08
4.55497e-06
9.93353e-07
4.51088e-06
-5.345e-08
4.50111e-06
2.02568e-07
4.51997e-06
7.15075e-07
4.54398e-06
8.54411e-07
4.56028e-06
7.40386e-07
4.57689e-06
5.24102e-07
4.58009e-06
4.48307e-07
4.5561e-06
1.92865e-07
4.55063e-06
1.49898e-07
4.5431e-06
3.01408e-07
4.53539e-06
2.87021e-07
4.54643e-06
3.56661e-07
4.55557e-06
4.04949e-07
4.55804e-06
3.57533e-07
4.5675e-06
3.18271e-07
3.16623e-07
4.57607e-06
4.72642e-06
-2.76369e-07
4.71849e-06
-1.77323e-07
4.71078e-06
5.86173e-08
4.77015e-06
9.33975e-07
4.72826e-06
-1.15503e-08
4.71842e-06
2.12399e-07
4.73823e-06
6.95272e-07
4.76221e-06
8.30427e-07
4.77811e-06
7.24483e-07
4.79392e-06
5.08298e-07
4.79746e-06
4.44764e-07
4.77305e-06
2.17274e-07
4.76714e-06
1.55814e-07
4.76218e-06
3.06366e-07
4.75349e-06
2.95706e-07
4.76374e-06
3.46419e-07
4.7743e-06
3.94381e-07
4.77651e-06
3.55326e-07
4.78414e-06
3.1064e-07
3.06689e-07
4.79408e-06
4.95322e-06
-2.60787e-07
4.94467e-06
-1.68778e-07
4.93768e-06
6.56038e-08
4.99546e-06
8.76194e-07
4.95612e-06
2.77968e-08
4.94613e-06
2.22391e-07
4.9669e-06
6.74503e-07
4.99074e-06
8.0658e-07
5.00616e-06
7.09062e-07
5.02108e-06
4.93378e-07
5.02516e-06
4.40684e-07
5.00085e-06
2.41593e-07
4.99398e-06
1.62682e-07
4.9918e-06
3.08547e-07
4.98239e-06
3.05116e-07
4.99133e-06
3.37473e-07
5.00328e-06
3.82434e-07
5.00581e-06
3.52797e-07
5.01147e-06
3.04982e-07
2.96316e-07
5.02184e-06
5.19095e-06
-2.45417e-07
5.18184e-06
-1.59667e-07
5.17536e-06
7.20784e-08
5.23143e-06
8.20126e-07
5.19493e-06
6.42999e-08
5.1847e-06
2.32612e-07
5.20631e-06
6.52895e-07
5.23004e-06
7.82854e-07
5.2449e-06
6.94196e-07
5.25886e-06
4.79417e-07
5.26366e-06
4.35892e-07
5.23997e-06
2.65281e-07
5.23173e-06
1.70917e-07
5.2323e-06
3.07985e-07
5.2227e-06
3.14707e-07
5.22969e-06
3.30487e-07
5.24283e-06
3.69299e-07
5.24622e-06
3.49401e-07
5.25013e-06
3.01075e-07
2.86496e-07
5.25995e-06
5.44008e-06
-2.30312e-07
5.4305e-06
-1.50084e-07
5.4244e-06
7.81823e-08
5.47863e-06
7.65895e-07
5.44514e-06
9.77881e-08
5.43472e-06
2.43036e-07
5.45688e-06
6.30729e-07
5.48059e-06
7.59143e-07
5.49487e-06
6.79916e-07
5.5078e-06
4.66493e-07
5.51343e-06
4.30255e-07
5.49089e-06
2.87829e-07
5.48104e-06
1.80768e-07
5.48403e-06
3.0499e-07
5.47501e-06
3.23724e-07
5.4794e-06
3.26101e-07
5.49337e-06
3.55327e-07
5.49808e-06
3.44698e-07
5.50072e-06
2.98431e-07
2.78049e-07
5.50917e-06
5.70114e-06
-2.15494e-07
5.6912e-06
-1.40141e-07
5.68538e-06
8.39977e-08
5.73766e-06
7.13616e-07
5.70724e-06
1.28213e-07
5.69674e-06
2.53534e-07
5.71911e-06
6.08354e-07
5.74293e-06
7.35325e-07
5.75666e-06
6.66187e-07
5.76846e-06
4.54698e-07
5.77501e-06
4.23698e-07
5.75407e-06
3.08772e-07
5.74252e-06
1.92319e-07
5.74743e-06
3.00078e-07
5.73984e-06
3.31309e-07
5.74142e-06
3.24523e-07
5.75545e-06
3.41295e-07
5.7618e-06
3.38352e-07
5.76373e-06
2.96501e-07
2.71242e-07
5.77054e-06
5.97466e-06
-2.00964e-07
5.96449e-06
-1.2997e-07
5.9589e-06
8.95872e-08
6.00917e-06
6.63345e-07
5.98173e-06
1.55655e-07
5.97136e-06
2.63905e-07
5.9936e-06
5.86117e-07
6.0176e-06
7.11317e-07
6.03088e-06
6.52909e-07
6.04147e-06
4.44111e-07
6.04895e-06
4.16221e-07
6.03002e-06
3.277e-07
6.01684e-06
2.05491e-07
6.02299e-06
2.93938e-07
6.01771e-06
3.36589e-07
6.01661e-06
3.25615e-07
6.02973e-06
3.28183e-07
6.03794e-06
3.30143e-07
6.03964e-06
2.948e-07
2.65952e-07
6.04493e-06
6.26124e-06
-1.86714e-07
6.25099e-06
-1.19721e-07
6.24555e-06
9.50248e-08
6.29381e-06
6.15091e-07
6.2692e-06
1.8026e-07
6.25917e-06
2.73936e-07
6.281e-06
5.64284e-07
6.30521e-06
6.8711e-07
6.31816e-06
6.39956e-07
6.32749e-06
4.34785e-07
6.3358e-06
4.07907e-07
6.31926e-06
3.44244e-07
6.30467e-06
2.20081e-07
6.31125e-06
2.87358e-07
6.30893e-06
3.38908e-07
6.30576e-06
3.28786e-07
6.31697e-06
3.16973e-07
6.32699e-06
3.20124e-07
6.32901e-06
2.92782e-07
2.62034e-07
6.33292e-06
6.56149e-06
-1.72729e-07
6.55134e-06
-1.09574e-07
6.54596e-06
1.00402e-07
6.59219e-06
5.68861e-07
6.5703e-06
2.02147e-07
6.56076e-06
2.83484e-07
6.58201e-06
5.43033e-07
6.60638e-06
6.62739e-07
6.61916e-06
6.27175e-07
6.6272e-06
4.26741e-07
6.63622e-06
3.98894e-07
6.62236e-06
3.58099e-07
6.60667e-06
2.35768e-07
6.61288e-06
2.81147e-07
6.61375e-06
3.38039e-07
6.60951e-06
3.33033e-07
6.61796e-06
3.08514e-07
6.62939e-06
3.08698e-07
6.63239e-06
2.89783e-07
2.59262e-07
6.63516e-06
6.87606e-06
-1.58994e-07
6.86621e-06
-9.97249e-08
6.86079e-06
1.05823e-07
6.90495e-06
5.24701e-07
6.88576e-06
2.21336e-07
6.87673e-06
2.92513e-07
6.89732e-06
5.22444e-07
6.92177e-06
6.38285e-07
6.93453e-06
6.14417e-07
6.9413e-06
4.19968e-07
6.95082e-06
3.89379e-07
6.93989e-06
3.69025e-07
6.92352e-06
2.52136e-07
6.92864e-06
2.76031e-07
6.93256e-06
3.34124e-07
6.9284e-06
3.37186e-07
6.93379e-06
3.0313e-07
6.94564e-06
2.96848e-07
6.95032e-06
2.85096e-07
2.57283e-07
6.9523e-06
7.20564e-06
-1.45494e-07
7.19629e-06
-9.03817e-08
7.19074e-06
1.11376e-07
7.23268e-06
4.82756e-07
7.21632e-06
2.37699e-07
7.20774e-06
3.01095e-07
7.22761e-06
5.02573e-07
7.25209e-06
6.13801e-07
7.26496e-06
6.01548e-07
7.27052e-06
4.14407e-07
7.2803e-06
3.79601e-07
7.27244e-06
3.7689e-07
7.25594e-06
2.68636e-07
7.25938e-06
2.72587e-07
7.26585e-06
3.27654e-07
7.26289e-06
3.40152e-07
7.2654e-06
3.00618e-07
7.27646e-06
2.85791e-07
7.28322e-06
2.78329e-07
2.55411e-07
7.28509e-06
7.55095e-06
-1.32215e-07
7.54229e-06
-8.17235e-08
7.53659e-06
1.17077e-07
7.57605e-06
4.43294e-07
7.56278e-06
2.5097e-07
7.55454e-06
3.09335e-07
7.57359e-06
4.83524e-07
7.59804e-06
5.89347e-07
7.61118e-06
5.88411e-07
7.61561e-06
4.09977e-07
7.6254e-06
3.6981e-07
7.62058e-06
3.81707e-07
7.60458e-06
2.84638e-07
7.60615e-06
2.71012e-07
7.61442e-06
3.19387e-07
7.61352e-06
3.41051e-07
7.61356e-06
3.00579e-07
7.62252e-06
2.76833e-07
7.63119e-06
2.69658e-07
2.52619e-07
7.63398e-06
7.91274e-06
-1.19146e-07
7.90492e-06
-7.39057e-08
7.89911e-06
1.22889e-07
7.93574e-06
4.06666e-07
7.92589e-06
2.60819e-07
7.91788e-06
3.17347e-07
7.93599e-06
4.65415e-07
7.96039e-06
5.6495e-07
7.97391e-06
5.74892e-07
7.97735e-06
4.06535e-07
7.98688e-06
3.60284e-07
7.98502e-06
3.83567e-07
7.97009e-06
2.99567e-07
7.96985e-06
2.7125e-07
7.97935e-06
3.09886e-07
7.98107e-06
3.39326e-07
7.97908e-06
3.02573e-07
7.9844e-06
2.71513e-07
7.99312e-06
2.6094e-07
2.47128e-07
7.99861e-06
8.29182e-06
-1.06285e-07
8.28493e-06
-6.7012e-08
8.27916e-06
1.28659e-07
8.31251e-06
3.73309e-07
8.30645e-06
2.66883e-07
8.29868e-06
3.25115e-07
8.31557e-06
4.48528e-07
8.33982e-06
5.40693e-07
8.35394e-06
5.60771e-07
8.35654e-06
4.03934e-07
8.36553e-06
3.51302e-07
8.3664e-06
3.82687e-07
8.35314e-06
3.12831e-07
8.35126e-06
2.73134e-07
8.36165e-06
2.99494e-07
8.36742e-06
3.33554e-07
8.3665e-06
3.03499e-07
8.37192e-06
2.66088e-07
8.38271e-06
2.50155e-07
2.41003e-07
8.38883e-06
8.68902e-06
-9.36438e-08
8.68307e-06
-6.10615e-08
8.67756e-06
1.34169e-07
8.70723e-06
3.43643e-07
8.70513e-06
2.68983e-07
8.69778e-06
3.32461e-07
8.7132e-06
4.33106e-07
8.73716e-06
5.16734e-07
8.75205e-06
5.45878e-07
8.75405e-06
4.01936e-07
8.76228e-06
3.43074e-07
8.76556e-06
3.79413e-07
8.75442e-06
3.23968e-07
8.75109e-06
2.76458e-07
8.76175e-06
2.88842e-07
8.77259e-06
3.22713e-07
8.77731e-06
2.9878e-07
8.78545e-06
2.57945e-07
8.79605e-06
2.39555e-07
2.37402e-07
8.79965e-06
9.10521e-06
-8.1237e-08
9.10014e-06
-5.5994e-08
9.0952e-06
1.39116e-07
9.12086e-06
3.17977e-07
9.1226e-06
2.67247e-07
9.11623e-06
3.38835e-07
9.12973e-06
4.19604e-07
9.15318e-06
4.93279e-07
9.16902e-06
5.30039e-07
9.17071e-06
4.00245e-07
9.178e-06
3.35784e-07
9.18335e-06
3.74067e-07
9.17479e-06
3.32528e-07
9.1708e-06
2.80443e-07
9.18035e-06
2.79296e-07
9.19121e-06
3.11854e-07
9.19359e-06
2.96401e-07
9.19666e-06
2.54875e-07
9.20529e-06
2.30918e-07
2.30577e-07
9.21212e-06
9.54134e-06
-6.91158e-08
9.53701e-06
-5.16623e-08
9.53297e-06
1.4315e-07
9.55446e-06
2.96487e-07
9.55955e-06
2.62165e-07
9.55481e-06
3.43574e-07
9.56623e-06
4.08177e-07
9.58885e-06
4.7066e-07
9.60564e-06
5.13255e-07
9.60745e-06
3.98434e-07
9.61368e-06
3.29548e-07
9.62072e-06
3.67032e-07
9.61491e-06
3.38334e-07
9.61037e-06
2.84987e-07
9.61749e-06
2.72181e-07
9.62744e-06
3.01901e-07
9.6286e-06
2.95239e-07
9.62627e-06
2.5721e-07
9.63038e-06
2.26806e-07
2.19786e-07
9.64117e-06
9.99836e-06
-5.73411e-08
9.99464e-06
-4.79392e-08
9.99186e-06
1.45926e-07
1.00091e-05
2.7924e-07
1.00168e-05
2.54493e-07
1.00145e-05
3.4583e-07
1.00238e-05
3.9893e-07
1.0045e-05
4.49397e-07
1.00628e-05
4.95511e-07
1.0065e-05
3.96192e-07
1.00703e-05
3.24318e-07
1.00785e-05
3.58782e-07
1.00752e-05
3.41635e-07
1.00702e-05
2.89944e-07
1.00752e-05
2.67257e-07
1.00854e-05
2.91713e-07
1.00897e-05
2.90851e-07
1.00897e-05
2.57297e-07
1.00939e-05
2.22595e-07
2.11883e-07
1.01018e-05
1.04773e-05
-4.59992e-08
1.0474e-05
-4.46613e-08
1.04728e-05
1.47154e-07
1.0486e-05
2.66057e-07
1.04952e-05
2.45279e-07
1.04961e-05
3.44906e-07
1.05035e-05
3.91579e-07
1.05229e-05
4.29999e-07
1.05414e-05
4.77006e-07
1.05443e-05
3.93226e-07
1.05485e-05
3.2013e-07
1.05574e-05
3.49913e-07
1.05564e-05
3.42641e-07
1.05517e-05
2.94662e-07
1.0555e-05
2.6391e-07
1.05651e-05
2.81584e-07
1.05711e-05
2.84886e-07
1.05711e-05
2.57311e-07
1.0573e-05
2.2066e-07
2.04786e-07
1.05801e-05
1.09792e-05
-3.51872e-08
1.09762e-05
-4.16078e-08
1.09767e-05
1.46616e-07
1.09862e-05
2.56569e-07
1.09959e-05
2.35574e-07
1.10005e-05
3.40339e-07
1.10065e-05
3.85569e-07
1.10235e-05
4.12976e-07
1.10423e-05
4.58186e-07
1.10462e-05
3.89345e-07
1.10493e-05
3.1705e-07
1.10582e-05
3.40964e-07
1.10594e-05
3.41494e-07
1.10554e-05
2.98582e-07
1.10574e-05
2.61924e-07
1.10671e-05
2.71926e-07
1.10741e-05
2.77909e-07
1.10751e-05
2.56313e-07
1.10762e-05
2.19499e-07
1.99178e-07
1.10818e-05
1.15052e-05
-2.50341e-08
1.15021e-05
-3.8514e-08
1.15045e-05
1.44261e-07
1.15109e-05
2.50136e-07
1.15201e-05
2.26347e-07
1.15282e-05
3.32237e-07
1.15339e-05
3.79925e-07
1.15482e-05
3.98625e-07
1.15668e-05
4.39572e-07
1.15717e-05
3.84469e-07
1.15738e-05
3.15017e-07
1.15824e-05
3.3227e-07
1.15855e-05
3.38395e-07
1.15827e-05
3.01379e-07
1.15837e-05
2.60941e-07
1.15926e-05
2.63031e-07
1.16007e-05
2.69844e-07
1.16032e-05
2.53823e-07
1.16044e-05
2.18319e-07
1.94746e-07
1.16088e-05
1.20565e-05
-1.5676e-08
1.2053e-05
-3.50913e-08
1.20572e-05
1.40112e-07
1.20613e-05
2.45984e-07
1.20692e-05
2.1844e-07
1.20805e-05
3.20987e-07
1.20868e-05
3.73606e-07
1.20984e-05
3.87004e-07
1.21163e-05
4.21737e-07
1.21222e-05
3.78496e-07
1.21236e-05
3.13637e-07
1.21319e-05
3.23983e-07
1.21367e-05
3.33605e-07
1.21353e-05
3.02745e-07
1.21357e-05
2.60587e-07
1.21435e-05
2.55215e-07
1.21526e-05
2.60759e-07
1.21567e-05
2.49708e-07
1.21581e-05
2.16958e-07
1.90997e-07
1.21618e-05
1.26342e-05
-7.27853e-09
1.26301e-05
-3.10288e-08
1.2636e-05
1.34237e-07
1.26387e-05
2.43284e-07
1.26447e-05
2.12447e-07
1.26583e-05
3.07354e-07
1.26662e-05
3.65692e-07
1.26755e-05
3.77734e-07
1.2692e-05
4.05287e-07
1.26991e-05
3.71406e-07
1.27004e-05
3.12322e-07
1.2708e-05
3.16359e-07
1.27141e-05
3.275e-07
1.27144e-05
3.02466e-07
1.27147e-05
2.603e-07
1.27213e-05
2.48599e-07
1.27308e-05
2.51226e-07
1.27365e-05
2.44022e-07
1.27381e-05
2.15366e-07
1.87665e-07
1.27414e-05
1.32397e-05
-7.37302e-12
1.32346e-05
-2.60018e-08
1.32421e-05
1.26753e-07
1.32442e-05
2.41224e-07
1.32479e-05
2.08678e-07
1.3263e-05
2.92288e-07
1.32732e-05
3.55522e-07
1.32808e-05
3.70105e-07
1.32954e-05
3.90697e-07
1.33033e-05
3.63468e-07
1.33051e-05
3.1056e-07
1.3312e-05
3.09445e-07
1.33191e-05
3.20456e-07
1.3321e-05
3.00521e-07
1.33216e-05
2.59724e-07
1.33271e-05
2.43047e-07
1.33364e-05
2.41948e-07
1.33436e-05
2.36838e-07
1.33459e-05
2.13014e-07
1.84826e-07
1.33488e-05
1.38742e-05
5.98976e-09
1.38679e-05
-1.97587e-08
1.38767e-05
1.17933e-07
1.3879e-05
2.38988e-07
1.38805e-05
2.07109e-07
1.38959e-05
2.76926e-07
1.39086e-05
3.42836e-07
1.39156e-05
3.63097e-07
1.39281e-05
3.78241e-07
1.39364e-05
3.5515e-07
1.39389e-05
3.0801e-07
1.39453e-05
3.03027e-07
1.3953e-05
3.12776e-07
1.39565e-05
2.97078e-07
1.39576e-05
2.58605e-07
1.39624e-05
2.38195e-07
1.39711e-05
2.33314e-07
1.39793e-05
2.28628e-07
1.39829e-05
2.09412e-07
1.82504e-07
1.39852e-05
1.4539e-05
1.0624e-08
1.45315e-05
-1.22348e-08
1.45412e-05
1.08261e-07
1.45444e-05
2.35799e-07
1.4544e-05
2.07483e-07
1.45585e-05
2.62438e-07
1.45736e-05
3.27737e-07
1.4581e-05
3.55663e-07
1.45915e-05
3.67799e-07
1.45997e-05
3.46917e-07
1.46031e-05
3.04586e-07
1.46093e-05
2.96822e-07
1.46174e-05
3.04741e-07
1.46221e-05
2.92314e-07
1.4624e-05
2.5668e-07
1.46285e-05
2.33719e-07
1.46364e-05
2.25428e-07
1.46449e-05
2.20142e-07
1.46499e-05
2.04378e-07
1.80206e-07
1.46522e-05
1.52356e-05
1.3875e-08
1.5227e-05
-3.58705e-09
1.52368e-05
9.8439e-08
1.52416e-05
2.31045e-07
1.52397e-05
2.09332e-07
1.52522e-05
2.49946e-07
1.52693e-05
3.10646e-07
1.5278e-05
3.46944e-07
1.5287e-05
3.58809e-07
1.52948e-05
3.391e-07
1.5299e-05
3.00387e-07
1.53053e-05
2.90542e-07
1.53137e-05
2.96369e-07
1.53195e-05
2.86457e-07
1.53223e-05
2.53912e-07
1.53266e-05
2.29462e-07
1.53338e-05
2.18154e-07
1.53422e-05
2.11779e-07
1.53484e-05
1.98188e-07
1.77205e-07
1.53514e-05
1.59654e-05
1.58041e-08
1.5956e-05
5.85254e-09
1.59652e-05
8.92e-08
1.59718e-05
2.24464e-07
1.59691e-05
2.12013e-07
1.59786e-05
2.40454e-07
1.59968e-05
2.924e-07
1.60075e-05
3.36249e-07
1.6016e-05
3.50296e-07
1.60234e-05
3.31751e-07
1.60282e-05
2.95553e-07
1.60348e-05
2.83961e-07
1.60435e-05
2.87708e-07
1.60502e-05
2.79726e-07
1.60538e-05
2.5034e-07
1.6058e-05
2.25232e-07
1.60648e-05
2.11344e-07
1.6073e-05
2.0362e-07
1.60797e-05
1.91442e-07
1.73145e-07
1.60838e-05
1.67299e-05
1.6549e-08
1.67201e-05
1.56544e-08
1.67281e-05
8.11646e-08
1.67364e-05
2.16185e-07
1.67337e-05
2.14689e-07
1.674e-05
2.34196e-07
1.67578e-05
2.74508e-07
1.67709e-05
3.232e-07
1.678e-05
3.41197e-07
1.67871e-05
3.24647e-07
1.67924e-05
2.90272e-07
1.67993e-05
2.77024e-07
1.68083e-05
2.78766e-07
1.68158e-05
2.7223e-07
1.68202e-05
2.45929e-07
1.68245e-05
2.20858e-07
1.68309e-05
2.05017e-07
1.68388e-05
1.95669e-07
1.68457e-05
1.84566e-07
1.68146e-07
1.68507e-05
1.75306e-05
1.63196e-08
1.75209e-05
2.53575e-08
1.75273e-05
7.47796e-08
1.75369e-05
2.06553e-07
1.75352e-05
2.16375e-07
1.75388e-05
2.30586e-07
1.75547e-05
2.58636e-07
1.757e-05
3.07944e-07
1.75804e-05
3.30787e-07
1.75876e-05
3.17422e-07
1.75931e-05
2.84739e-07
1.76004e-05
2.69793e-07
1.76096e-05
2.69497e-07
1.76178e-05
2.64056e-07
1.7623e-05
2.4069e-07
1.76278e-05
2.16133e-07
1.76336e-05
1.99158e-07
1.76413e-05
1.87993e-07
1.76483e-05
1.77587e-07
1.62642e-07
1.76538e-05
1.83693e-05
1.53734e-08
1.83602e-05
3.44626e-08
1.83646e-05
7.04112e-08
1.83752e-05
1.95942e-07
1.83752e-05
2.16293e-07
1.83773e-05
2.28546e-07
1.83902e-05
2.45762e-07
1.84067e-05
2.91382e-07
1.84188e-05
3.18698e-07
1.84266e-05
3.09678e-07
1.84323e-05
2.78995e-07
1.84397e-05
2.62434e-07
1.84493e-05
2.59877e-07
1.84581e-05
2.55209e-07
1.8464e-05
2.34776e-07
1.84693e-05
2.10873e-07
1.84749e-05
1.93551e-07
1.84821e-05
1.80816e-07
1.84893e-05
1.70399e-07
1.56959e-07
1.8495e-05
1.92478e-05
1.39853e-08
1.92397e-05
4.24979e-08
1.92419e-05
6.82524e-08
1.92531e-05
1.84758e-07
1.92553e-05
2.14044e-07
1.9257e-05
2.26863e-07
1.9267e-05
2.35804e-07
1.92833e-05
2.75038e-07
1.92972e-05
3.04866e-07
1.93058e-05
3.01029e-07
1.93118e-05
2.72956e-07
1.93192e-05
2.55122e-07
1.93289e-05
2.50084e-07
1.93386e-05
2.45583e-07
1.93451e-05
2.28257e-07
1.93508e-05