/*--------------------------------*- C++ -*----------------------------------*\
| =========                 |                                                 |
| \\      /  F ield         | OpenFOAM: The Open Source CFD Toolbox           |
|  \\    /   O peration     | Version:  v1912                                 |
|   \\  /    A nd           | Website:  www.openfoam.com                      |
|    \\/     M anipulation  |                                                 |
\*---------------------------------------------------------------------------*/
FoamFile
{
    version     2.0;
    format      ascii;
    class       surfaceScalarField;
    location    "8.3";
    object      phi;
}
// * * * * * * * * * * * * * * * * * * * * * * * * * * * * * * * * * * * * * //

dimensions      [0 3 -1 0 0 0 0];
oriented        oriented;


internalField   nonuniform List<scalar> 
19000
(
1.179e-06
-1.03369e-06
1.24237e-06
1.61507e-06
1.18134e-06
-3.02927e-07
1.17469e-06
-7.88922e-07
1.27735e-06
-3.31271e-06
1.27002e-06
-2.03194e-07
1.25253e-06
2.93831e-07
1.30181e-06
1.12135e-06
1.30299e-06
2.73544e-07
1.31743e-06
3.25066e-07
1.31982e-06
-1.24441e-06
1.36935e-06
-1.09338e-06
1.3713e-06
-1.24093e-06
1.32824e-06
-3.14931e-07
1.29677e-06
-1.16865e-07
1.26911e-06
1.15148e-07
1.26477e-06
-1.2541e-08
1.26661e-06
-1.38155e-07
1.28889e-06
-2.37646e-08
-4.31625e-07
1.24689e-06
1.23914e-06
-1.04857e-06
1.34437e-06
1.50985e-06
1.26644e-06
-2.25004e-07
1.21986e-06
-7.4234e-07
1.32925e-06
-3.42209e-06
1.34141e-06
-2.15356e-07
1.31591e-06
3.19336e-07
1.39519e-06
1.04207e-06
1.39155e-06
2.77179e-07
1.40888e-06
3.07731e-07
1.37546e-06
-1.21098e-06
1.40896e-06
-1.12688e-06
1.42466e-06
-1.25662e-06
1.40372e-06
-2.93992e-07
1.36165e-06
-7.47982e-08
1.35343e-06
1.23372e-07
1.32464e-06
1.62412e-08
1.34255e-06
-1.56057e-07
1.34192e-06
-2.31381e-08
-4.19809e-07
1.3301e-06
1.29884e-06
-1.06463e-06
1.44209e-06
1.3666e-06
1.35103e-06
-1.33935e-07
1.26359e-06
-6.54905e-07
1.36649e-06
-3.52499e-06
1.41608e-06
-2.64943e-07
1.38845e-06
3.46965e-07
1.48798e-06
9.42549e-07
1.49337e-06
2.71781e-07
1.4881e-06
3.13005e-07
1.41791e-06
-1.14079e-06
1.43355e-06
-1.14253e-06
1.45595e-06
-1.27902e-06
1.4613e-06
-2.99341e-07
1.42852e-06
-4.20206e-08
1.42032e-06
1.31575e-07
1.39581e-06
4.07466e-08
1.39698e-06
-1.57226e-07
1.40681e-06
-3.29648e-08
-4.03557e-07
1.39056e-06
1.35829e-06
-1.07881e-06
1.52377e-06
1.20111e-06
1.4284e-06
-3.85647e-08
1.31122e-06
-5.37725e-07
1.38818e-06
-3.60195e-06
1.47401e-06
-3.50778e-07
1.46588e-06
3.55095e-07
1.57523e-06
8.33203e-07
1.59484e-06
2.52171e-07
1.56667e-06
3.4117e-07
1.46957e-06
-1.04369e-06
1.45933e-06
-1.13228e-06
1.48233e-06
-1.30203e-06
1.50648e-06
-3.23487e-07
1.49167e-06
-2.72161e-08
1.48501e-06
1.38238e-07
1.46387e-06
6.18869e-08
1.4558e-06
-1.49151e-07
1.45953e-06
-3.67004e-08
-3.85014e-07
1.44099e-06
1.41863e-06
-1.08909e-06
1.58657e-06
1.03317e-06
1.49716e-06
5.08446e-08
1.36385e-06
-4.04418e-07
1.3996e-06
-3.6377e-06
1.50991e-06
-4.61087e-07
1.54363e-06
3.21372e-07
1.65974e-06
7.17095e-07
1.69161e-06
2.20306e-07
1.64485e-06
3.87922e-07
1.52926e-06
-9.2809e-07
1.49368e-06
-1.09671e-06
1.51067e-06
-1.31902e-06
1.54958e-06
-3.62395e-07
1.55134e-06
-2.89765e-08
1.55194e-06
1.37636e-07
1.53267e-06
8.11629e-08
1.51872e-06
-1.352e-07
1.51547e-06
-3.34574e-08
-3.61092e-07
1.49155e-06
1.48211e-06
-1.09552e-06
1.63503e-06
8.8025e-07
1.56014e-06
1.25735e-07
1.42375e-06
-2.68023e-07
1.41387e-06
-3.62783e-06
1.53569e-06
-5.829e-07
1.62097e-06
2.36088e-07
1.74472e-06
5.93348e-07
1.78246e-06
1.82565e-07
1.72403e-06
4.4635e-07
1.59669e-06
-8.00749e-07
1.54031e-06
-1.04033e-06
1.54541e-06
-1.32411e-06
1.59409e-06
-4.11072e-07
1.61026e-06
-4.51482e-08
1.62e-06
1.27895e-07
1.60447e-06
9.66919e-08
1.58566e-06
-1.1639e-07
1.57671e-06
-2.45055e-08
-3.30033e-07
1.54565e-06
1.55037e-06
-1.09968e-06
1.677e-06
7.53623e-07
1.62155e-06
1.81187e-07
1.49277e-06
-1.3924e-07
1.44494e-06
-3.58001e-06
1.57011e-06
-7.08062e-07
1.69989e-06
1.06307e-07
1.83021e-06
4.63029e-07
1.86727e-06
1.45499e-07
1.80225e-06
5.11376e-07
1.66799e-06
-6.66488e-07
1.597e-06
-9.69343e-07
1.58815e-06
-1.31527e-06
1.64118e-06
-4.64104e-07
1.66947e-06
-7.34363e-08
1.68844e-06
1.0892e-07
1.67845e-06
1.06682e-07
1.6564e-06
-9.43408e-08
1.64237e-06
-1.0476e-08
-2.92105e-07
1.60445e-06
1.62338e-06
-1.10292e-06
1.71975e-06
6.57254e-07
1.685e-06
2.15937e-07
1.5717e-06
-2.5946e-08
1.50023e-06
-3.50853e-06
1.62492e-06
-8.32757e-07
1.78098e-06
-4.97497e-08
1.91261e-06
3.314e-07
1.94458e-06
1.13527e-07
1.87714e-06
5.78814e-07
1.74077e-06
-5.30113e-07
1.66127e-06
-8.8984e-07
1.63934e-06
-1.29334e-06
1.69243e-06
-5.17192e-07
1.72971e-06
-1.10715e-07
1.7568e-06
8.18221e-08
1.75307e-06
1.10419e-07
1.72964e-06
-7.09155e-08
1.71139e-06
7.77812e-09
-2.48408e-07
1.66769e-06
1.69983e-06
-1.10518e-06
1.76833e-06
5.88748e-07
1.75292e-06
2.31353e-07
1.6599e-06
6.70683e-08
1.57779e-06
-3.42642e-06
1.69863e-06
-9.53603e-07
1.86083e-06
-2.11944e-07
1.98636e-06
2.05863e-07
2.0117e-06
8.81954e-08
1.94655e-06
6.43964e-07
1.81366e-06
-3.97228e-07
1.73137e-06
-8.07553e-07
1.69878e-06
-1.26075e-06
1.74911e-06
-5.67517e-07
1.79174e-06
-1.53348e-07
1.82455e-06
4.9009e-08
1.82654e-06
1.08427e-07
1.80332e-06
-4.76872e-08
1.7824e-06
2.86976e-08
-2.00742e-07
1.73473e-06
1.77871e-06
-1.10517e-06
1.82564e-06
5.41823e-07
1.82657e-06
2.30427e-07
1.75582e-06
1.37813e-07
1.67042e-06
-3.34101e-06
1.78164e-06
-1.06483e-06
1.93395e-06
-3.64247e-07
2.04699e-06
9.28216e-08
2.06641e-06
6.87694e-08
2.0092e-06
7.01178e-07
1.88626e-06
-2.74288e-07
1.80657e-06
-7.2786e-07
1.76604e-06
-1.22022e-06
1.81136e-06
-6.12831e-07
1.85549e-06
-1.97483e-07
1.8908e-06
1.3697e-08
1.89714e-06
1.02094e-07
1.87539e-06
-2.5939e-08
1.85408e-06
5.0005e-08
-1.51855e-07
1.80519e-06
1.86021e-06
-1.10163e-06
1.89271e-06
5.09323e-07
1.90591e-06
2.17231e-07
1.85726e-06
1.8646e-07
1.77114e-06
-3.2549e-06
1.86544e-06
-1.15913e-06
1.9972e-06
-4.96009e-07
2.09372e-06
-3.69608e-09
2.10899e-06
5.35027e-08
2.06535e-06
7.44816e-07
1.95875e-06
-1.6769e-07
1.8866e-06
-6.55707e-07
1.84066e-06
-1.17429e-06
1.87852e-06
-6.50687e-07
1.92024e-06
-2.39206e-07
1.95481e-06
-2.08741e-08
1.96388e-06
9.30274e-08
1.94483e-06
-6.88863e-09
1.9258e-06
6.90321e-08
-1.05191e-07
1.87914e-06
1.94533e-06
-1.09412e-06
1.96921e-06
4.85442e-07
1.98998e-06
1.96465e-07
1.9616e-06
2.14835e-07
1.87546e-06
-3.16876e-06
1.94715e-06
-1.23081e-06
2.05232e-06
-6.01178e-07
2.13044e-06
-8.18231e-08
2.14311e-06
4.08378e-08
2.11727e-06
7.70654e-07
2.03195e-06
-8.23705e-08
1.97134e-06
-5.95098e-07
1.92235e-06
-1.12529e-06
1.95036e-06
-6.78703e-07
1.98614e-06
-2.74983e-07
2.01736e-06
-5.20942e-08
2.02778e-06
8.26078e-08
2.01247e-06
8.4201e-09
1.9982e-06
8.33048e-08
-6.40089e-08
1.95702e-06
2.03508e-06
-1.08301e-06
2.05408e-06
4.6644e-07
2.07793e-06
1.72622e-07
2.06673e-06
2.26029e-07
1.98115e-06
-3.08317e-06
2.02858e-06
-1.27824e-06
2.10516e-06
-6.77765e-07
2.16478e-06
-1.41436e-07
2.17559e-06
3.00204e-08
2.16925e-06
7.76997e-07
2.1074e-06
-2.0517e-08
2.06059e-06
-5.48291e-07
2.01087e-06
-1.07558e-06
2.0278e-06
-6.95625e-07
2.05526e-06
-3.02443e-07
2.08156e-06
-7.83998e-08
2.09227e-06
7.19044e-08
2.08116e-06
1.95294e-08
2.07317e-06
9.12871e-08
-3.0393e-08
2.03956e-06
2.13002e-06
-1.06903e-06
2.14623e-06
4.50232e-07
2.16983e-06
1.49023e-07
2.17197e-06
2.23887e-07
2.08754e-06
-2.99875e-06
2.11342e-06
-1.30412e-06
2.16323e-06
-7.27569e-07
2.20581e-06
-1.84013e-07
2.21477e-06
2.10584e-08
2.22673e-06
7.65039e-07
2.18726e-06
1.89482e-08
2.15423e-06
-5.15263e-07
2.10584e-06
-1.02719e-06
2.11232e-06
-7.02101e-07
2.13092e-06
-3.2104e-07
2.1519e-06
-9.93844e-08
2.16221e-06
6.16001e-08
2.1549e-06
2.68391e-08
2.15328e-06
9.29048e-08
-4.7887e-09
2.12767e-06
2.23031e-06
-1.05285e-06
2.24486e-06
4.3568e-07
2.26652e-06
1.27365e-07
2.27811e-06
2.12296e-07
2.19509e-06
-2.91572e-06
2.20489e-06
-1.31393e-06
2.23264e-06
-7.55325e-07
2.2611e-06
-2.12467e-07
2.26787e-06
1.42861e-08
2.29464e-06
7.38265e-07
2.27378e-06
3.98165e-08
2.25244e-06
-4.93921e-07
2.20667e-06
-9.81424e-07
2.20494e-06
-7.00368e-07
2.21589e-06
-3.31991e-07
2.23213e-06
-1.15624e-07
2.2418e-06
5.19254e-08
2.23731e-06
3.13361e-08
2.24078e-06
8.94267e-08
1.37318e-08
2.22226e-06
2.33604e-06
-1.03501e-06
2.3496e-06
4.22116e-07
2.36895e-06
1.08021e-07
2.38675e-06
1.9449e-07
2.30481e-06
-2.83378e-06
2.30449e-06
-1.31361e-06
2.31627e-06
-7.67098e-07
2.33439e-06
-2.30592e-07
2.33881e-06
9.86393e-09
2.37595e-06
7.01131e-07
2.36857e-06
4.71903e-08
2.35567e-06
-4.81013e-07
2.31283e-06
-9.38594e-07
2.30559e-06
-6.93126e-07
2.31111e-06
-3.37507e-07
2.3237e-06
-1.28212e-07
2.33297e-06
4.26498e-08
2.33025e-06
3.40621e-08
2.33692e-06
8.27549e-08
2.67419e-08
2.32391e-06
2.44733e-06
-1.01595e-06
2.4603e-06
4.09143e-07
2.47763e-06
9.06923e-08
2.49942e-06
1.72698e-07
2.41781e-06
-2.75216e-06
2.41211e-06
-1.30791e-06
2.4136e-06
-7.68592e-07
2.42522e-06
-2.42211e-07
2.42758e-06
7.50375e-09
2.47102e-06
6.57686e-07
2.47228e-06
4.59318e-08
2.46448e-06
-4.73213e-07
2.42413e-06
-8.98243e-07
2.41351e-06
-6.825e-07
2.4158e-06
-3.39798e-07
2.42587e-06
-1.38279e-07
2.43519e-06
3.33281e-08
2.43356e-06
3.56898e-08
2.44162e-06
7.46915e-08
3.57405e-08
2.43262e-06
2.56435e-06
-9.96004e-07
2.57695e-06
3.9654e-07
2.59266e-06
7.49818e-08
2.61718e-06
1.48183e-07
2.53501e-06
-2.67e-06
2.52679e-06
-1.29969e-06
2.52231e-06
-7.64109e-07
2.53054e-06
-2.50451e-07
2.53152e-06
6.53152e-09
2.57841e-06
6.10788e-07
2.58468e-06
3.96664e-08
2.57934e-06
-4.67872e-07
2.54071e-06
-8.59615e-07
2.52788e-06
-6.69674e-07
2.52852e-06
-3.40433e-07
2.53691e-06
-1.4667e-07
2.54668e-06
2.35566e-08
2.54584e-06
3.65358e-08
2.55406e-06
6.64663e-08
4.18134e-08
2.54799e-06
2.68728e-06
-9.75454e-07
2.69966e-06
3.84159e-07
2.714e-06
6.0637e-08
2.74064e-06
1.21551e-07
2.65712e-06
-2.58649e-06
2.64766e-06
-1.29023e-06
2.63996e-06
-7.56405e-07
2.64696e-06
-2.57455e-07
2.64737e-06
6.13063e-09
2.69606e-06
5.62095e-07
2.70513e-06
3.05998e-08
2.70049e-06
-4.63236e-07
2.66293e-06
-8.22056e-07
2.64835e-06
-6.55093e-07
2.64814e-06
-3.40226e-07
2.65531e-06
-1.53836e-07
2.66573e-06
1.31359e-08
2.66557e-06
3.6696e-08
2.6733e-06
5.87391e-08
4.56096e-08
2.6695e-06
2.81631e-06
-9.54496e-07
2.82862e-06
3.7185e-07
2.84168e-06
4.75716e-08
2.87019e-06
9.30425e-08
2.78471e-06
-2.501e-06
2.77435e-06
-1.27987e-06
2.76505e-06
-7.47099e-07
2.77211e-06
-2.64521e-07
2.77268e-06
5.56923e-09
2.82225e-06
5.12517e-07
2.83298e-06
1.98746e-08
2.82804e-06
-4.58295e-07
2.79119e-06
-7.85206e-07
2.77498e-06
-6.3888e-07
2.77418e-06
-3.39434e-07
2.78026e-06
-1.59912e-07
2.79132e-06
2.07644e-09
2.7918e-06
3.62135e-08
2.79875e-06
5.17906e-08
4.74576e-08
2.7969e-06
2.95167e-06
-9.33271e-07
2.96407e-06
3.5945e-07
2.97582e-06
3.58235e-08
3.00616e-06
6.27021e-08
2.9183e-06
-2.41314e-06
2.90697e-06
-1.26854e-06
2.89702e-06
-7.37148e-07
2.90488e-06
-2.72379e-07
2.90614e-06
4.31104e-09
2.95597e-06
4.62686e-07
2.96779e-06
8.05298e-09
2.96203e-06
-4.52532e-07
2.92583e-06
-7.49008e-07
2.90809e-06
-6.21141e-07
2.90671e-06
-3.38051e-07
2.91163e-06
-1.64838e-07
2.92316e-06
-9.44929e-09
2.92428e-06
3.50915e-08
2.93034e-06
4.57259e-08
4.75882e-08
2.93021e-06
3.09362e-06
-9.11884e-07
3.10627e-06
3.46803e-07
3.11655e-06
2.55403e-08
3.14879e-06
3.04615e-08
3.05844e-06
-2.32279e-06
3.04594e-06
-1.25604e-06
3.03592e-06
-7.27132e-07
3.04496e-06
-2.81415e-07
3.04727e-06
2.00339e-09
3.09672e-06
4.13231e-07
3.10934e-06
-4.56161e-09
3.10254e-06
-4.45733e-07
3.06711e-06
-7.13583e-07
3.04808e-06
-6.02108e-07
3.04602e-06
-3.35994e-07
3.04968e-06
-1.68492e-07
3.06141e-06
-2.11832e-08
3.06321e-06
3.32938e-08
3.06836e-06
4.05742e-08
4.62285e-08
3.06972e-06
3.24243e-06
-8.90403e-07
3.25547e-06
3.33761e-07
3.26404e-06
1.69722e-08
3.29828e-06
-3.77715e-09
3.20565e-06
-2.23016e-06
3.1918e-06
-1.24219e-06
3.18202e-06
-7.17357e-07
3.19239e-06
-2.91777e-07
3.19598e-06
-1.59055e-09
3.24439e-06
3.64824e-07
3.25761e-06
-1.7783e-08
3.24974e-06
-4.37862e-07
3.21527e-06
-6.79118e-07
3.1953e-06
-5.82135e-07
3.19252e-06
-3.33214e-07
3.19481e-06
-1.70785e-07
3.20645e-06
-3.28245e-08
3.20902e-06
3.07318e-08
3.21326e-06
3.63257e-08
4.36239e-08
3.21587e-06
3.39836e-06
-8.68833e-07
3.41198e-06
3.20147e-07
3.41852e-06
1.04303e-08
3.45476e-06
-4.00191e-08
3.3604e-06
-2.1358e-06
3.34507e-06
-1.22687e-06
3.33558e-06
-7.0786e-07
3.34722e-06
-3.03421e-07
3.35231e-06
-6.67616e-09
3.39901e-06
3.18123e-07
3.41274e-06
-3.15161e-08
3.40388e-06
-4.29004e-07
3.37054e-06
-6.45774e-07
3.35003e-06
-5.61621e-07
3.34654e-06
-3.29729e-07
3.34746e-06
-1.71709e-07
3.35869e-06
-4.40488e-08
3.36214e-06
2.72758e-08
3.36556e-06
3.29048e-08
4.00945e-08
3.36909e-06
3.56167e-06
-8.47087e-07
3.57611e-06
3.05707e-07
3.58034e-06
6.19282e-09
3.61837e-06
-7.8045e-08
3.52309e-06
-2.04052e-06
3.50623e-06
-1.21001e-06
3.49681e-06
-6.98439e-07
3.50952e-06
-3.16132e-07
3.51632e-06
-1.34806e-08
3.56079e-06
2.73661e-07
3.575e-06
-4.57309e-08
3.56534e-06
-4.19347e-07
3.53318e-06
-6.13614e-07
3.51249e-06
-5.40926e-07
3.50837e-06
-3.2561e-07
3.50802e-06
-1.71359e-07
3.51848e-06
-5.45116e-08
3.52299e-06
2.27654e-08
3.52575e-06
3.01446e-08
3.60571e-08
3.52979e-06
3.73258e-06
-8.2496e-07
3.7482e-06
2.90083e-07
3.75001e-06
4.38274e-09
3.78929e-06
-1.17325e-07
3.69404e-06
-1.94526e-06
3.67567e-06
-1.19164e-06
3.66597e-06
-6.88738e-07
3.67939e-06
-3.29557e-07
3.68814e-06
-2.22323e-08
3.73004e-06
2.31758e-07
3.74475e-06
-6.0435e-08
3.73454e-06
-4.09144e-07
3.70353e-06
-5.82604e-07
3.68289e-06
-5.20284e-07
3.67824e-06
-3.20952e-07
3.67682e-06
-1.69946e-07
3.6862e-06
-6.38867e-08
3.69187e-06
1.70895e-08
3.69428e-06
2.77404e-08
3.20146e-08
3.69832e-06
3.91137e-06
-8.02139e-07
3.9286e-06
2.7285e-07
3.92813e-06
4.85635e-09
3.96782e-06
-1.5702e-07
3.87355e-06
-1.85099e-06
3.85375e-06
-1.17184e-06
3.84339e-06
-6.78375e-07
3.85706e-06
-3.43226e-07
3.86794e-06
-3.3115e-08
3.9072e-06
1.92494e-07
3.92237e-06
-7.56011e-08
3.91194e-06
-3.98713e-07
3.88198e-06
-5.5264e-07
3.86147e-06
-4.99777e-07
3.85638e-06
-3.15867e-07
3.85419e-06
-1.6775e-07
3.86225e-06
-7.19474e-08
3.86904e-06
1.02986e-08
3.87148e-06
2.52969e-08
2.83446e-08
3.87515e-06
4.09835e-06
-7.78242e-07
4.11761e-06
2.53596e-07
4.1153e-06
7.16445e-09
4.15436e-06
-1.96082e-07
4.06187e-06
-1.7585e-06
4.04081e-06
-1.15078e-06
4.02951e-06
-6.67074e-07
4.04288e-06
-3.56598e-07
4.05597e-06
-4.62004e-08
4.09271e-06
1.55751e-07
4.10825e-06
-9.11427e-08
4.09794e-06
-3.88405e-07
4.06893e-06
-5.23623e-07
4.04848e-06
-4.79336e-07
4.04312e-06
-3.10507e-07
4.04042e-06
-1.65048e-07
4.04703e-06
-7.85518e-08
4.05474e-06
2.58935e-09
4.05765e-06
2.23817e-08
2.52118e-08
4.06078e-06
4.29396e-06
-7.52896e-07
4.31554e-06
2.32014e-07
4.3121e-06
1.05999e-08
4.34944e-06
-2.33423e-07
4.25931e-06
-1.66837e-06
4.23714e-06
-1.1286e-06
4.22481e-06
-6.54749e-07
4.23733e-06
-3.69122e-07
4.25254e-06
-6.14109e-08
4.28701e-06
1.21285e-07
4.30275e-06
-1.06884e-07
4.29292e-06
-3.78578e-07
4.26482e-06
-4.95522e-07
4.24434e-06
-4.5885e-07
4.23881e-06
-3.04983e-07
4.23588e-06
-1.62111e-07
4.24099e-06
-8.36602e-08
4.24924e-06
-5.66842e-09
4.25298e-06
1.86421e-08
2.25283e-08
4.25567e-06
4.4987e-06
-7.25819e-07
4.52272e-06
2.07988e-07
4.519e-06
1.43254e-08
4.55364e-06
-2.6807e-07
4.4662e-06
-1.58092e-06
4.443e-06
-1.1054e-06
4.42978e-06
-6.41533e-07
4.44097e-06
-3.80311e-07
4.45808e-06
-7.85214e-08
4.49056e-06
8.88082e-08
4.50625e-06
-1.22572e-07
4.49723e-06
-3.69562e-07
4.47012e-06
-4.68411e-07
4.44949e-06
-4.38224e-07
4.44385e-06
-2.99336e-07
4.44092e-06
-1.59185e-07
4.44459e-06
-8.73297e-08
4.45298e-06
-1.40555e-08
4.45764e-06
1.39773e-08
1.99924e-08
4.46018e-06
4.71318e-06
-6.96885e-07
4.73954e-06
1.8163e-07
4.73633e-06
1.7531e-08
4.76753e-06
-2.99266e-07
4.68291e-06
-1.4963e-06
4.6587e-06
-1.08119e-06
4.64491e-06
-6.27743e-07
4.65442e-06
-3.89825e-07
4.67308e-06
-9.71853e-08
4.70385e-06
5.80392e-08
4.71918e-06
-1.37894e-07
4.71122e-06
-3.61606e-07
4.68527e-06
-4.42464e-07
4.66447e-06
-4.17426e-07
4.65862e-06
-2.93479e-07
4.65598e-06
-1.56554e-07
4.65833e-06
-8.96753e-08
4.66643e-06
-2.21578e-08
4.67193e-06
8.47526e-09
1.73175e-08
4.67461e-06
4.93806e-06
-6.66147e-07
4.96643e-06
1.53263e-07
4.96441e-06
1.95526e-08
4.9916e-06
-3.26463e-07
4.90992e-06
-1.41462e-06
4.88464e-06
-1.05592e-06
4.87066e-06
-6.13755e-07
4.87834e-06
-3.97506e-07
4.89814e-06
-1.16991e-07
4.92745e-06
2.87308e-08
4.94206e-06
-1.52505e-07
4.93529e-06
-3.54836e-07
4.91075e-06
-4.17921e-07
4.88983e-06
-3.96507e-07
4.88358e-06
-2.87231e-07
4.88149e-06
-1.54459e-07
4.88272e-06
-9.09078e-08
4.89013e-06
-2.95714e-08
4.89626e-06
2.35139e-09
1.4327e-08
4.89925e-06
5.174e-06
-6.33827e-07
5.20389e-06
1.23365e-07
5.20351e-06
1.99326e-08
5.2263e-06
-3.49244e-07
5.14772e-06
-1.33604e-06
5.12137e-06
-1.02957e-06
5.1075e-06
-5.99888e-07
5.11338e-06
-4.03376e-07
5.13391e-06
-1.37522e-07
5.16194e-06
6.97228e-10
5.17552e-06
-1.66086e-07
5.1699e-06
-3.49218e-07
5.14704e-06
-3.95057e-07
5.12613e-06
-3.756e-07
5.11938e-06
-2.80483e-07
5.11794e-06
-1.53015e-07
5.11822e-06
-9.11872e-08
5.12465e-06
-3.60005e-08
5.13101e-06
-4.01228e-09
1.08608e-08
5.13448e-06
5.42163e-06
-6.00265e-07
5.4525e-06
9.24938e-08
5.45405e-06
1.83824e-08
5.47201e-06
-3.67209e-07
5.39683e-06
-1.26086e-06
5.36946e-06
-1.00221e-06
5.35595e-06
-5.86375e-07
5.36015e-06
-4.0758e-07
5.38102e-06
-1.58385e-07
5.4079e-06
-2.6189e-08
5.42023e-06
-1.7841e-07
5.41555e-06
-3.44547e-07
5.39462e-06
-3.74127e-07
5.37387e-06
-3.54845e-07
5.36659e-06
-2.73206e-07
5.36569e-06
-1.52115e-07
5.3653e-06
-9.07927e-08
5.37055e-06
-4.12563e-08
5.37687e-06
-1.0332e-08
6.95949e-09
5.38077e-06
5.68155e-06
-5.65858e-07
5.71284e-06
6.12077e-08
5.71652e-06
1.46981e-08
5.72936e-06
-3.8005e-07
5.65778e-06
-1.18927e-06
5.62956e-06
-9.73987e-07
5.61653e-06
-5.73339e-07
5.61924e-06
-4.10297e-07
5.6401e-06
-1.79238e-07
5.6659e-06
-5.19878e-08
5.67686e-06
-1.8937e-07
5.67283e-06
-3.40521e-07
5.65402e-06
-3.55317e-07
5.63357e-06
-3.34392e-07
5.62574e-06
-2.65378e-07
5.62528e-06
-1.51658e-07
5.62449e-06
-8.99973e-08
5.62849e-06
-4.52622e-08
5.63453e-06
-1.63659e-08
2.74493e-09
5.63874e-06
5.95434e-06
-5.3101e-07
5.98553e-06
3.00201e-08
5.9916e-06
8.62799e-09
5.99918e-06
-3.87631e-07
5.93111e-06
-1.1212e-06
5.90231e-06
-9.4519e-07
5.8898e-06
-5.60827e-07
5.89121e-06
-4.1171e-07
5.91172e-06
-1.9975e-07
5.93648e-06
-7.67458e-08
5.94605e-06
-1.98942e-07
5.94237e-06
-3.36833e-07
5.92575e-06
-3.38702e-07
5.90585e-06
-3.14493e-07
5.89743e-06
-2.56957e-07
5.89737e-06
-1.51596e-07
5.89638e-06
-8.9006e-08
5.89914e-06
-4.80198e-08
5.90462e-06
-2.18504e-08
-1.67775e-09
5.90904e-06
6.24058e-06
-4.96096e-07
6.27121e-06
-6.13567e-10
6.27973e-06
1.0649e-10
6.28232e-06
-3.90225e-07
6.21743e-06
-1.0563e-06
6.1883e-06
-9.16061e-07
6.17639e-06
-5.48924e-07
6.17663e-06
-4.11948e-07
6.19648e-06
-2.19597e-07
6.22022e-06
-1.0049e-07
6.22845e-06
-2.07173e-07
6.22483e-06
-3.33209e-07
6.2104e-06
-3.24268e-07
6.19134e-06
-2.95439e-07
6.18229e-06
-2.47909e-07
6.18252e-06
-1.51825e-07
6.18164e-06
-8.81239e-08
6.18318e-06
-4.95594e-08
6.18789e-06
-2.65611e-08
-6.0741e-09
6.19229e-06
6.54083e-06
-4.61454e-07
6.57049e-06
-3.02762e-08
6.58109e-06
-1.04907e-08
6.57947e-06
-3.88613e-07
6.51741e-06
-9.94237e-07
6.48815e-06
-8.868e-07
6.47694e-06
-5.37717e-07
6.47611e-06
-4.11116e-07
6.49495e-06
-2.38441e-07
6.51771e-06
-1.23249e-07
6.52468e-06
-2.14138e-07
6.52095e-06
-3.29483e-07
6.50858e-06
-3.11894e-07
6.49065e-06
-2.77512e-07
6.48087e-06
-2.38129e-07
6.48128e-06
-1.52233e-07
6.48081e-06
-8.76514e-08
6.48133e-06
-5.00808e-08
6.4851e-06
-3.03356e-08
-1.02097e-08
6.48924e-06
6.85572e-06
-4.27379e-07
6.88399e-06
-5.85529e-08
6.89632e-06
-2.28199e-08
6.89127e-06
-3.83561e-07
6.83176e-06
-9.34727e-07
6.80248e-06
-8.57524e-07
6.79204e-06
-5.27273e-07
6.79028e-06
-4.09351e-07
6.8078e-06
-2.55968e-07
6.82958e-06
-1.45026e-07
6.83538e-06
-2.19937e-07
6.83141e-06
-3.25511e-07
6.82097e-06
-3.0146e-07
6.80447e-06
-2.61005e-07
6.7939e-06
-2.27567e-07
6.7942e-06
-1.52532e-07
6.79445e-06
-8.78978e-08
6.79425e-06
-4.9877e-08
6.79681e-06
-3.29004e-08
-1.40912e-08
6.80069e-06
7.1859e-06
-3.94145e-07
7.21237e-06
-8.50171e-08
7.22616e-06
-3.66159e-08
7.21838e-06
-3.75778e-07
7.16126e-06
-8.77603e-07
7.13188e-06
-8.28149e-07
7.12228e-06
-5.17675e-07
7.11978e-06
-4.06846e-07
7.13571e-06
-2.71899e-07
7.15649e-06
-1.6581e-07
7.16129e-06
-2.24729e-07
7.15693e-06
-3.21159e-07
7.14827e-06
-2.92799e-07
7.1335e-06
-2.46235e-07
7.12227e-06
-2.16336e-07
7.12192e-06
-1.52186e-07
7.12302e-06
-8.89921e-08
7.12258e-06
-4.94384e-08
7.12367e-06
-3.39892e-08
-1.75527e-08
7.12713e-06
7.53208e-06
-3.62002e-07
7.55628e-06
-1.09214e-07
7.57139e-06
-5.17309e-08
7.56152e-06
-3.65903e-07
7.50663e-06
-8.22712e-07
7.47711e-06
-7.98626e-07
7.46833e-06
-5.08904e-07
7.46529e-06
-4.03806e-07
7.47944e-06
-2.86049e-07
7.49913e-06
-1.85501e-07
7.50308e-06
-2.28677e-07
7.49829e-06
-3.16367e-07
7.49119e-06
-2.85697e-07
7.47857e-06
-2.33619e-07
7.46697e-06
-2.04733e-07
7.46539e-06
-1.50603e-07
7.46683e-06
-9.04373e-08
7.46607e-06
-4.86747e-08
7.46612e-06
-3.40433e-08
-2.07823e-08
7.46935e-06
7.89501e-06
-3.31204e-07
7.91643e-06
-1.30633e-07
7.93276e-06
-6.80619e-08
7.92148e-06
-3.54619e-07
7.86872e-06
-7.69956e-07
7.83895e-06
-7.68847e-07
7.83092e-06
-5.0088e-07
7.82752e-06
-4.00409e-07
7.83977e-06
-2.9829e-07
7.85828e-06
-2.0402e-07
7.86159e-06
-2.31982e-07
7.85623e-06
-3.11006e-07
7.85043e-06
-2.799e-07
7.84036e-06
-2.23546e-07
7.82906e-06
-1.9343e-07
7.82629e-06
-1.47836e-07
7.82724e-06
-9.13902e-08
7.82495e-06
-4.63809e-08
7.82282e-06
-3.19097e-08
-2.55992e-08
7.82763e-06
8.27546e-06
-3.01984e-07
8.29358e-06
-1.48751e-07
8.31111e-06
-8.55911e-08
8.29902e-06
-3.42532e-07
8.24829e-06
-7.19227e-07
8.21831e-06
-7.38862e-07
8.21087e-06
-4.93448e-07
8.20727e-06
-3.96801e-07
8.21747e-06
-3.08492e-07
8.23462e-06
-2.21176e-07
8.23762e-06
-2.34981e-07
8.23163e-06
-3.05017e-07
8.22673e-06
-2.74993e-07
8.21907e-06
-2.15889e-07
8.20962e-06
-1.83983e-07
8.2103e-06
-1.48509e-07
8.21866e-06
-9.97569e-08
8.22596e-06
-5.36777e-08
8.22757e-06
-3.35197e-08
-2.37257e-08
8.2257e-06
8.67425e-06
-2.74574e-07
8.6885e-06
-1.62997e-07
8.70719e-06
-1.04288e-07
8.69506e-06
-3.30395e-07
8.64616e-06
-6.70325e-07
8.616e-06
-7.08707e-07
8.60898e-06
-4.86423e-07
8.60528e-06
-3.93104e-07
8.61346e-06
-3.16674e-07
8.62909e-06
-2.36808e-07
8.63185e-06
-2.37735e-07
8.62545e-06
-2.98622e-07
8.62126e-06
-2.70803e-07
8.616e-06
-2.10627e-07
8.60813e-06
-1.76109e-07
8.60768e-06
-1.48059e-07
8.61375e-06
-1.05832e-07
8.61957e-06
-5.95003e-08
8.61973e-06
-3.36756e-08
-2.41048e-08
8.62011e-06
9.09221e-06
-2.49167e-07
9.10207e-06
-1.72856e-07
9.12195e-06
-1.24163e-07
9.11047e-06
-3.18919e-07
9.0631e-06
-6.2296e-07
9.03297e-06
-6.78571e-07
9.02611e-06
-4.79565e-07
9.02243e-06
-3.89426e-07
9.02854e-06
-3.22781e-07
9.04254e-06
-2.50807e-07
9.04527e-06
-2.40472e-07
9.03864e-06
-2.91987e-07
9.03473e-06
-2.66889e-07
9.03116e-06
-2.0706e-07
9.02454e-06
-1.69487e-07
9.02222e-06
-1.45741e-07
9.02754e-06
-1.11154e-07
9.03611e-06
-6.80678e-08
9.03849e-06
-3.60565e-08
-1.98718e-08
9.03426e-06
9.53023e-06
-2.25941e-07
9.53545e-06
-1.78071e-07
9.5562e-06
-1.44913e-07
9.54619e-06
-3.08907e-07
9.50019e-06
-5.76959e-07
9.47005e-06
-6.48437e-07
9.46311e-06
-4.72619e-07
9.45952e-06
-3.85841e-07
9.46369e-06
-3.26946e-07
9.47589e-06
-2.63007e-07
9.47864e-06
-2.43221e-07
9.47205e-06
-2.85399e-07
9.46848e-06
-2.63324e-07
9.46594e-06
-2.04517e-07
9.45796e-06
-1.61508e-07
9.44955e-06
-1.37327e-07
9.44493e-06
-1.06532e-07
9.44441e-06
-6.75505e-08
9.44504e-06
-3.66858e-08
-2.32727e-08
9.44844e-06
9.98919e-06
-2.05e-07
9.99006e-06
-1.78934e-07
1.0011e-05
-1.65825e-07
1.0003e-05
-3.00923e-07
9.9583e-06
-5.3227e-07
9.92817e-06
-6.18313e-07
9.92095e-06
-4.65394e-07
9.91751e-06
-3.82403e-07
9.9197e-06
-3.29137e-07
9.9302e-06
-2.735e-07
9.93291e-06
-2.45934e-07
9.92615e-06
-2.78637e-07
9.9219e-06
-2.59077e-07
9.92079e-06
-2.03407e-07
9.91792e-06
-1.58635e-07
9.91594e-06
-1.35346e-07
9.9208e-06
-1.11401e-07
9.92966e-06
-7.64063e-08
9.9321e-06
-3.91262e-08
-1.80096e-08
9.92684e-06
1.047e-05
-1.86405e-07
1.04673e-05
-1.76189e-07
1.04872e-05
-1.85774e-07
1.04816e-05
-2.95296e-07
1.04386e-05
-4.89261e-07
1.04083e-05
-5.87971e-07
1.04005e-05
-4.57655e-07
1.03973e-05
-3.79173e-07
1.03978e-05
-3.29612e-07
1.04062e-05
-2.81961e-07
1.04088e-05
-2.48455e-07
1.04025e-05
-2.72375e-07
1.03978e-05
-2.54361e-07
1.03961e-05
-2.01734e-07
1.03903e-05
-1.52794e-07
1.0383e-05
-1.28077e-07
1.03777e-05
-1.06084e-07
1.03773e-05
-7.59899e-08
1.03804e-05
-4.22584e-08
-2.09285e-08
1.03833e-05
1.09737e-05
-1.70127e-07
1.09683e-05
-1.70745e-07
1.09862e-05
-2.0367e-07
1.09828e-05
-2.91945e-07
1.09422e-05
-4.48644e-07
1.09113e-05
-5.57059e-07
1.09032e-05
-4.49532e-07
1.09e-05
-3.75993e-07
1.08986e-05
-3.28251e-07
1.0905e-05
-2.88276e-07
1.09072e-05
-2.50742e-07
1.09008e-05
-2.65902e-07
1.0895e-05
-2.48562e-07
1.0893e-05
-1.99756e-07
1.0888e-05
-1.47823e-07
1.08821e-05
-1.22131e-07
1.08778e-05
-1.01828e-07
1.08795e-05
-7.76491e-08
1.08841e-05
-4.68655e-08
-2.15861e-08
1.08848e-05
1.15013e-05
-1.56063e-07
1.14939e-05
-1.63388e-07
1.15089e-05
-2.18659e-07
1.15076e-05
-2.90631e-07
1.14702e-05
-4.11258e-07
1.14387e-05
-5.25478e-07
1.14298e-05
-4.40671e-07
1.14266e-05
-3.72803e-07
1.14236e-05
-3.25291e-07
1.14273e-05
-2.91932e-07
1.14286e-05
-2.5202e-07
1.14223e-05
-2.59609e-07
1.14157e-05
-2.41982e-07
1.14137e-05
-1.97778e-07
1.14098e-05
-1.43852e-07
1.1405e-05
-1.17365e-07
1.1402e-05
-9.88355e-08
1.1402e-05
-7.76707e-08
1.14051e-05
-4.99751e-08
-2.52305e-08
1.14088e-05
1.20538e-05
-1.44019e-07
1.20453e-05
-1.54916e-07
1.20567e-05
-2.30004e-07
1.2057e-05
-2.90975e-07
1.20237e-05
-3.78004e-07
1.19915e-05
-4.93274e-07
1.19812e-05
-4.30382e-07
1.19784e-05
-3.69929e-07
1.19739e-05
-3.20852e-07
1.19747e-05
-2.92678e-07
1.19748e-05
-2.52167e-07
1.19687e-05
-2.53522e-07
1.19614e-05
-2.34631e-07
1.19593e-05
-1.95657e-07
1.19569e-05
-1.41443e-07
1.19531e-05
-1.13586e-07
1.19498e-05
-9.55122e-08
1.1949e-05
-7.68977e-08
1.19516e-05
-5.25648e-08
-2.96805e-08
1.1956e-05
1.26323e-05
-1.33733e-07
1.26234e-05
-1.46007e-07
1.26306e-05
-2.37161e-07
1.26322e-05
-2.92657e-07
1.26037e-05
-3.49505e-07
1.25712e-05
-4.60773e-07
1.25589e-05
-4.18071e-07
1.25564e-05
-3.67421e-07
1.25511e-05
-3.15576e-07
1.2549e-05
-2.90584e-07
1.25477e-05
-2.50802e-07
1.25419e-05
-2.47731e-07
1.25343e-05
-2.27075e-07
1.25319e-05
-1.93204e-07
1.25305e-05
-1.40071e-07
1.25272e-05
-1.10243e-07
1.25239e-05
-9.22267e-08
1.25232e-05
-7.62327e-08
1.25247e-05
-5.40889e-08
-3.36087e-08
1.25287e-05
1.32381e-05
-1.24885e-07
1.32293e-05
-1.37271e-07
1.32322e-05
-2.40001e-07
1.32346e-05
-2.95048e-07
1.32111e-05
-3.2602e-07
1.3179e-05
-4.28675e-07
1.31643e-05
-4.03408e-07
1.31617e-05
-3.64827e-07
1.31566e-05
-3.10445e-07
1.3152e-05
-2.85955e-07
1.31489e-05
-2.47702e-07
1.31434e-05
-2.42283e-07
1.3136e-05
-2.19681e-07
1.31328e-05
-1.89918e-07
1.31319e-05
-1.39203e-07
1.31294e-05
-1.07708e-07
1.31263e-05
-8.91927e-08
1.31253e-05
-7.52555e-08
1.31263e-05
-5.50364e-08
-3.68543e-08
1.31295e-05
1.38724e-05
-1.17145e-07
1.38643e-05
-1.29152e-07
1.38631e-05
-2.38808e-07
1.38654e-05
-2.97384e-07
1.38468e-05
-3.07377e-07
1.3816e-05
-3.97828e-07
1.37989e-05
-3.86374e-07
1.37955e-05
-3.61435e-07
1.37911e-05
-3.06062e-07
1.37852e-05
-2.7996e-07
1.378e-05
-2.42529e-07
1.37742e-05
-2.36517e-07
1.3767e-05
-2.12514e-07
1.37633e-05
-1.86136e-07
1.37628e-05
-1.38697e-07
1.3761e-05
-1.05944e-07
1.3758e-05
-8.61881e-08
1.37566e-05
-7.39071e-08
1.37571e-05
-5.54969e-08
-3.94187e-08
1.37597e-05
1.45367e-05
-1.10168e-07
1.45295e-05
-1.21988e-07
1.45249e-05
-2.34182e-07
1.45262e-05
-2.98735e-07
1.45119e-05
-2.92982e-07
1.44832e-05
-3.692e-07
1.44642e-05
-3.6737e-07
1.44592e-05
-3.56375e-07
1.44557e-05
-3.0262e-07
1.44495e-05
-2.73734e-07
1.44422e-05
-2.3524e-07
1.44356e-05
-2.29958e-07
1.44288e-05
-2.05703e-07
1.44247e-05
-1.82009e-07
1.44241e-05
-1.38093e-07
1.4423e-05
-1.04819e-07
1.44201e-05
-8.33136e-08
1.44186e-05
-7.23945e-08
1.44187e-05
-5.55968e-08
-4.13127e-08
1.44206e-05
1.52324e-05
-1.03647e-07
1.52264e-05
-1.16044e-07
1.52189e-05
-2.26712e-07
1.52185e-05
-2.98275e-07
1.52076e-05
-2.82066e-07
1.51819e-05
-3.43573e-07
1.51616e-05
-3.46983e-07
1.51541e-05
-3.48897e-07
1.51512e-05
-2.99746e-07
1.51459e-05
-2.68424e-07
1.51372e-05
-2.26544e-07
1.51294e-05
-2.22183e-07
1.51226e-05
-1.98897e-07
1.51181e-05
-1.77468e-07
1.51172e-05
-1.3724e-07
1.51168e-05
-1.04427e-07
1.51143e-05
-8.08263e-08
1.51126e-05
-7.06379e-08
1.51124e-05
-5.53759e-08
-4.24292e-08
1.51135e-05
1.5961e-05
-9.73448e-08
1.59564e-05
-1.11444e-07
1.59468e-05
-2.17082e-07
1.59437e-05
-2.95136e-07
1.59354e-05
-2.73778e-07
1.5913e-05
-3.21249e-07
1.58921e-05
-3.26043e-07
1.5882e-05
-3.38833e-07
1.58789e-05
-2.96626e-07
1.58752e-05
-2.64703e-07
1.58662e-05
-2.17569e-07
1.5857e-05
-2.12908e-07
1.58498e-05
-1.91705e-07
1.5845e-05
-1.72692e-07
1.58438e-05
-1.36047e-07
1.58439e-05
-1.04521e-07
1.58419e-05
-7.88818e-08
1.58399e-05
-6.85825e-08
1.58395e-05
-5.4983e-08
-4.2925e-08
1.584e-05
1.67244e-05
-9.11224e-08
1.6721e-05
-1.08046e-07
1.671e-05
-2.06119e-07
1.67035e-05
-2.88574e-07
1.6697e-05
-2.67342e-07
1.66779e-05
-3.02134e-07
1.66572e-05
-3.05372e-07
1.66449e-05
-3.26501e-07
1.66403e-05
-2.92033e-07
1.66383e-05
-2.62676e-07
1.66305e-05
-2.09761e-07
1.662e-05
-2.02474e-07
1.66121e-05
-1.83753e-07
1.6607e-05
-1.67596e-07
1.66052e-05
-1.34244e-07
1.66055e-05
-1.04874e-07
1.66044e-05
-7.76902e-08
1.66022e-05
-6.64567e-08
1.66015e-05
-5.43047e-08
-4.31173e-08
1.66017e-05
1.75242e-05
-8.49218e-08
1.75216e-05
-1.05482e-07
1.75102e-05
-1.94677e-07
1.75e-05
-2.78443e-07
1.74944e-05
-2.61739e-07
1.74784e-05
-2.8614e-07
1.74587e-05
-2.8561e-07
1.74446e-05
-3.12447e-07
1.74374e-05
-2.84826e-07
1.74365e-05
-2.6177e-07
1.74309e-05
-2.04148e-07
1.74202e-05
-1.9179e-07
1.74113e-05
-1.74821e-07
1.74056e-05
-1.61976e-07
1.74032e-05
-1.318e-07
1.74035e-05
-1.05174e-07
1.74031e-05
-7.72745e-08
1.74012e-05
-6.4535e-08
1.74001e-05
-5.32791e-08
-4.31381e-08
1.74002e-05
1.83622e-05
-7.87615e-08
1.836e-05
-1.03278e-07
1.83487e-05
-1.83427e-07
1.83356e-05
-2.65319e-07
1.83293e-05
-2.55459e-07
1.83165e-05