/*--------------------------------*- C++ -*----------------------------------*\
| =========                 |                                                 |
| \\      /  F ield         | OpenFOAM: The Open Source CFD Toolbox           |
|  \\    /   O peration     | Version:  v1912                                 |
|   \\  /    A nd           | Website:  www.openfoam.com                      |
|    \\/     M anipulation  |                                                 |
\*---------------------------------------------------------------------------*/
FoamFile
{
    version     2.0;
    format      ascii;
    class       surfaceScalarField;
    location    "7.8";
    object      phi;
}
// * * * * * * * * * * * * * * * * * * * * * * * * * * * * * * * * * * * * * //

dimensions      [0 3 -1 0 0 0 0];
oriented        oriented;


internalField   nonuniform List<scalar> 
19000
(
1.15008e-06
-7.43742e-07
1.17673e-06
2.26009e-07
1.17807e-06
-1.25075e-06
1.22376e-06
7.94788e-07
1.21577e-06
1.42288e-06
1.18959e-06
1.1295e-06
1.15529e-06
1.14447e-07
1.09819e-06
-1.78433e-06
1.09412e-06
-1.44935e-06
1.12938e-06
-1.3506e-06
1.17685e-06
-7.6594e-07
1.15718e-06
-1.41467e-06
1.2334e-06
7.71265e-07
1.22191e-06
-4.57453e-08
1.27717e-06
1.02278e-06
1.23411e-06
3.76443e-07
1.27175e-06
1.0227e-06
1.22894e-06
4.40452e-07
1.24149e-06
6.31506e-07
2.97013e-07
1.2035e-06
1.20859e-06
-7.28071e-07
1.23611e-06
1.9849e-07
1.24242e-06
-1.25706e-06
1.28581e-06
7.51391e-07
1.27476e-06
1.43394e-06
1.25479e-06
1.14947e-06
1.21687e-06
1.52364e-07
1.15933e-06
-1.72678e-06
1.14693e-06
-1.43695e-06
1.17531e-06
-1.37899e-06
1.22237e-06
-8.12996e-07
1.21149e-06
-1.4038e-06
1.28032e-06
7.0244e-07
1.28694e-06
-5.23668e-08
1.31877e-06
9.90953e-07
1.30642e-06
3.88797e-07
1.31011e-06
1.01901e-06
1.30358e-06
4.46982e-07
1.27917e-06
6.55912e-07
2.8142e-07
1.29477e-06
1.26755e-06
-7.1284e-07
1.29532e-06
1.7072e-07
1.30762e-06
-1.26937e-06
1.35114e-06
7.07872e-07
1.34322e-06
1.44185e-06
1.32429e-06
1.1684e-06
1.28544e-06
1.91221e-07
1.22881e-06
-1.67016e-06
1.20801e-06
-1.41614e-06
1.22862e-06
-1.3996e-06
1.27176e-06
-8.56137e-07
1.26994e-06
-1.40197e-06
1.33405e-06
6.38323e-07
1.35256e-06
-7.08697e-08
1.37757e-06
9.65935e-07
1.37653e-06
3.89845e-07
1.37829e-06
1.01724e-06
1.37696e-06
4.48317e-07
1.3695e-06
6.63366e-07
2.85871e-07
1.36505e-06
1.32734e-06
-6.96074e-07
1.35063e-06
1.47429e-07
1.37056e-06
-1.28929e-06
1.41784e-06
6.60587e-07
1.41755e-06
1.44215e-06
1.39831e-06
1.18764e-06
1.35619e-06
2.33337e-07
1.29793e-06
-1.6119e-06
1.27318e-06
-1.39139e-06
1.28689e-06
-1.41332e-06
1.32442e-06
-8.93666e-07
1.333e-06
-1.41054e-06
1.39374e-06
5.77578e-07
1.41984e-06
-9.69717e-08
1.44711e-06
9.38671e-07
1.44956e-06
3.87389e-07
1.46035e-06
1.00646e-06
1.45623e-06
4.5244e-07
1.46144e-06
6.58157e-07
3.02522e-07
1.44479e-06
1.38961e-06
-6.77326e-07
1.40418e-06
1.32852e-07
1.43116e-06
-1.31627e-06
1.48453e-06
6.07219e-07
1.49273e-06
1.43395e-06
1.47395e-06
1.20642e-06
1.42988e-06
2.77409e-07
1.36975e-06
-1.55177e-06
1.34367e-06
-1.36531e-06
1.35121e-06
-1.42086e-06
1.38236e-06
-9.2481e-07
1.39755e-06
-1.42574e-06
1.45764e-06
5.17489e-07
1.48639e-06
-1.25727e-07
1.51976e-06
9.05304e-07
1.52422e-06
3.82934e-07
1.5444e-06
9.86274e-07
1.53885e-06
4.57986e-07
1.54786e-06
6.49152e-07
3.25791e-07
1.52459e-06
1.45627e-06
-6.57921e-07
1.46074e-06
1.28386e-07
1.49104e-06
-1.34658e-06
1.55012e-06
5.48147e-07
1.56536e-06
1.41871e-06
1.54975e-06
1.22203e-06
1.50512e-06
3.22041e-07
1.44316e-06
-1.48982e-06
1.41779e-06
-1.33993e-06
1.42101e-06
-1.42409e-06
1.44668e-06
-9.50475e-07
1.4636e-06
-1.44266e-06
1.52436e-06
4.56727e-07
1.55338e-06
-1.54746e-07
1.59247e-06
8.66211e-07
1.5998e-06
3.75613e-07
1.62785e-06
9.58215e-07
1.62218e-06
4.63656e-07
1.63253e-06
6.38811e-07
3.5421e-07
1.60411e-06
1.52806e-06
-6.39768e-07
1.52405e-06
1.32403e-07
1.55174e-06
-1.37427e-06
1.61313e-06
4.86752e-07
1.63403e-06
1.39781e-06
1.62525e-06
1.23081e-06
1.5829e-06
3.64383e-07
1.52007e-06
-1.42698e-06
1.49563e-06
-1.3155e-06
1.49528e-06
-1.42373e-06
1.51704e-06
-9.72239e-07
1.53297e-06
-1.45858e-06
1.59453e-06
3.95166e-07
1.623e-06
-1.83224e-07
1.6668e-06
8.22421e-07
1.67714e-06
3.65267e-07
1.71193e-06
9.2343e-07
1.70629e-06
4.69288e-07
1.7176e-06
6.27503e-07
3.86786e-07
1.68502e-06
1.6045e-06
-6.24138e-07
1.59526e-06
1.41643e-07
1.61445e-06
-1.39346e-06
1.67297e-06
4.28237e-07
1.69921e-06
1.37157e-06
1.7012e-06
1.22882e-06
1.66388e-06
4.01705e-07
1.60108e-06
-1.36418e-06
1.57709e-06
-1.29151e-06
1.57261e-06
-1.41926e-06
1.59149e-06
-9.91126e-07
1.60629e-06
-1.47338e-06
1.66946e-06
3.32e-07
1.6973e-06
-2.11062e-07
1.74505e-06
7.74664e-07
1.75771e-06
3.52607e-07
1.79798e-06
8.83158e-07
1.79198e-06
4.75294e-07
1.80372e-06
6.1576e-07
4.22571e-07
1.76794e-06
1.68477e-06
-6.11334e-07
1.67354e-06
1.52871e-07
1.6805e-06
-1.40042e-06
1.73154e-06
3.77199e-07
1.76339e-06
1.33972e-06
1.77893e-06
1.21328e-06
1.74854e-06
4.32094e-07
1.6867e-06
-1.30234e-06
1.66236e-06
-1.26717e-06
1.6524e-06
-1.4093e-06
1.66761e-06
-1.00633e-06
1.68235e-06
-1.48812e-06
1.74968e-06
2.6467e-07
1.77764e-06
-2.39021e-07
1.82919e-06
7.2312e-07
1.84311e-06
3.38689e-07
1.88722e-06
8.39046e-07
1.87993e-06
4.82582e-07
1.89096e-06
6.04727e-07
4.60819e-07
1.85271e-06
1.76845e-06
-6.01066e-07
1.75747e-06
1.63859e-07
1.75152e-06
-1.39448e-06
1.79324e-06
3.35475e-07
1.83053e-06
1.30244e-06
1.85961e-06
1.1842e-06
1.83653e-06
4.55172e-07
1.77664e-06
-1.24246e-06
1.75154e-06
-1.24207e-06
1.73505e-06
-1.3928e-06
1.74385e-06
-1.01513e-06
1.75917e-06
-1.50345e-06
1.83403e-06
1.89811e-07
1.86377e-06
-2.68757e-07
1.9199e-06
6.66985e-07
1.93416e-06
3.24434e-07
1.98013e-06
7.93074e-07
1.97018e-06
4.9253e-07
1.97882e-06
5.96093e-07
5.00978e-07
1.93866e-06
1.85555e-06
-5.92868e-07
1.84591e-06
1.73495e-07
1.82913e-06
-1.37769e-06
1.86285e-06
3.01756e-07
1.90425e-06
1.26103e-06
1.94359e-06
1.14486e-06
1.92689e-06
4.71875e-07
1.87005e-06
-1.18562e-06
1.84442e-06
-1.21644e-06
1.82159e-06
-1.36997e-06
1.82069e-06
-1.01423e-06
1.83553e-06
-1.51829e-06
1.91966e-06
1.05685e-07
1.95286e-06
-3.01957e-07
2.01523e-06
6.04611e-07
2.02939e-06
3.10277e-07
2.07539e-06
7.47074e-07
2.06141e-06
5.06512e-07
2.06585e-06
5.91648e-07
5.42358e-07
2.02447e-06
1.94621e-06
-5.86238e-07
1.93835e-06
1.81359e-07
1.91423e-06
-1.35357e-06
1.9429e-06
2.73089e-07
1.98605e-06
1.21788e-06
2.03036e-06
1.10055e-06
2.01867e-06
4.8357e-07
1.96594e-06
-1.1329e-06
1.94046e-06
-1.19096e-06
1.91294e-06
-1.34245e-06
1.90067e-06
-1.00197e-06
1.91204e-06
-1.52966e-06
2.00331e-06
1.44143e-08
2.04013e-06
-3.38776e-07
2.11004e-06
5.347e-07
2.12418e-06
2.96135e-07
2.16904e-06
7.02211e-07
2.15054e-06
5.25017e-07
2.14968e-06
5.92508e-07
5.83642e-07
2.10839e-06
2.04057e-06
-5.80616e-07
2.03467e-06
1.87256e-07
2.00664e-06
-1.32554e-06
2.03275e-06
2.46977e-07
2.07502e-06
1.1756e-06
2.11922e-06
1.05636e-06
2.11161e-06
4.91176e-07
2.06379e-06
-1.08508e-06
2.03903e-06
-1.1662e-06
2.00922e-06
-1.31263e-06
1.98716e-06
-9.7991e-07
1.99102e-06
-1.53351e-06
2.08317e-06
-7.77406e-08
2.12102e-06
-3.76619e-07
2.1977e-06
4.58017e-07
2.21198e-06
2.81856e-07
2.25532e-06
6.58874e-07
2.23343e-06
5.46904e-07
2.22753e-06
5.98403e-07
6.22452e-07
2.18872e-06
2.13878e-06
-5.7539e-07
2.13505e-06
1.90979e-07
2.1053e-06
-1.29579e-06
2.12968e-06
2.22601e-07
2.1691e-06
1.13618e-06
2.21014e-06
1.01533e-06
2.20642e-06
4.94898e-07
2.16383e-06
-1.04249e-06
2.13995e-06
-1.14232e-06
2.10985e-06
-1.28254e-06
2.08248e-06
-9.5254e-07
2.07529e-06
-1.52633e-06
2.16017e-06
-1.62611e-07
2.19396e-06
-4.10414e-07
2.27362e-06
3.78363e-07
2.28757e-06
2.67897e-07
2.32938e-06
6.17071e-07
2.30688e-06
5.69397e-07
2.29776e-06
6.07525e-07
6.55375e-07
2.26484e-06
2.24109e-06
-5.69991e-07
2.23975e-06
1.92321e-07
2.20901e-06
-1.26505e-06
2.231e-06
2.00609e-07
2.26678e-06
1.1004e-06
2.30418e-06
9.7792e-07
2.30448e-06
4.94601e-07
2.26684e-06
-1.00486e-06
2.24368e-06
-1.11916e-06
2.21418e-06
-1.25303e-06
2.18676e-06
-9.25119e-07
2.16681e-06
-1.50637e-06
2.23775e-06
-2.33551e-07
2.26181e-06
-4.34477e-07
2.33844e-06
3.0174e-07
2.35072e-06
2.5561e-07
2.39078e-06
5.77016e-07
2.3712e-06
5.88974e-07
2.36151e-06
6.17218e-07
6.78671e-07
2.33821e-06
2.34787e-06
-5.63989e-07
2.34902e-06
1.91171e-07
2.31706e-06
-1.23309e-06
2.33562e-06
1.82055e-07
2.36799e-06
1.06803e-06
2.40306e-06
9.42851e-07
2.40733e-06
4.90332e-07
2.37384e-06
-9.71361e-07
2.35117e-06
-1.09649e-06
2.32207e-06
-1.22394e-06
2.29838e-06
-9.01421e-07
2.26619e-06
-1.47419e-06
2.32046e-06
-2.87816e-07
2.33085e-06
-4.44867e-07
2.39854e-06
2.34047e-07
2.40737e-06
2.46776e-07
2.44499e-06
5.394e-07
2.43132e-06
6.02642e-07
2.42396e-06
6.24584e-07
6.90021e-07
2.41261e-06
2.45954e-06
-5.57131e-07
2.46315e-06
1.87563e-07
2.42945e-06
-1.1994e-06
2.44406e-06
1.67444e-07
2.47384e-06
1.03825e-06
2.50839e-06
9.08303e-07
2.51615e-06
4.82569e-07
2.48565e-06
-9.4086e-07
2.46338e-06
-1.07421e-06
2.43396e-06
-1.19453e-06
2.41529e-06
-8.82751e-07
2.37318e-06
-1.43208e-06
2.41202e-06
-3.26661e-07
2.40795e-06
-4.40794e-07
2.46318e-06
1.78812e-07
2.46727e-06
2.42693e-07
2.50149e-06
5.0518e-07
2.49526e-06
6.08863e-07
2.49243e-06
6.27418e-07
6.89517e-07
2.49293e-06
2.57646e-06
-5.49298e-07
2.58239e-06
1.8163e-07
2.54665e-06
-1.16366e-06
2.55763e-06
1.56465e-07
2.58564e-06
1.01024e-06
2.62107e-06
8.72869e-07
2.63154e-06
4.72098e-07
2.60284e-06
-9.12158e-07
2.58104e-06
-1.05241e-06
2.55057e-06
-1.16406e-06
2.53624e-06
-8.68424e-07
2.48721e-06
-1.38304e-06
2.51417e-06
-3.53624e-07
2.4978e-06
-4.24421e-07
2.54024e-06
1.36375e-07
2.53947e-06
2.43457e-07
2.56949e-06
4.75159e-07
2.5707e-06
6.07652e-07
2.57283e-06
6.2529e-07
6.78962e-07
2.58339e-06
2.69896e-06
-5.4043e-07
2.70707e-06
1.73518e-07
2.6693e-06
-1.12588e-06
2.67747e-06
1.48295e-07
2.70425e-06
9.83458e-07
2.74127e-06
8.35847e-07
2.75366e-06
4.59711e-07
2.72572e-06
-8.8422e-07
2.70458e-06
-1.03127e-06
2.67262e-06
-1.1321e-06
2.66109e-06
-8.56891e-07
2.60783e-06
-1.32978e-06
2.62673e-06
-3.72523e-07
2.60178e-06
-3.99478e-07
2.63343e-06
1.04727e-07
2.62899e-06
2.47903e-07
2.65446e-06
4.49689e-07
2.66213e-06
5.99982e-07
2.66837e-06
6.19046e-07
6.61193e-07
2.68614e-06
2.82731e-06
-5.30474e-07
2.83751e-06
1.63317e-07
2.79792e-06
-1.08628e-06
2.80418e-06
1.42036e-07
2.82996e-06
9.57675e-07
2.86871e-06
7.97102e-07
2.88245e-06
4.45965e-07
2.85451e-06
-8.56279e-07
2.83418e-06
-1.01094e-06
2.80063e-06
-1.09855e-06
2.7904e-06
-8.46665e-07
2.73482e-06
-1.2742e-06
2.74854e-06
-3.86238e-07
2.71884e-06
-3.69775e-07
2.74248e-06
8.10822e-08
2.73622e-06
2.54167e-07
2.75726e-06
4.28643e-07
2.77011e-06
5.87139e-07
2.77925e-06
6.09901e-07
6.39186e-07
2.80126e-06
2.96178e-06
-5.1936e-07
2.97404e-06
1.51056e-07
2.93293e-06
-1.04517e-06
2.93798e-06
1.3698e-07
2.96276e-06
9.32899e-07
3.00303e-06
7.56824e-07
3.01789e-06
4.3111e-07
2.98944e-06
-8.27833e-07
2.96998e-06
-9.91481e-07
2.93494e-06
-1.0635e-06
2.92501e-06
-8.36736e-07
2.86823e-06
-1.21742e-06
2.87842e-06
-3.96433e-07
2.84703e-06
-3.38381e-07
2.86502e-06
6.30969e-08
2.85878e-06
2.60405e-07
2.87595e-06
4.11475e-07
2.89266e-06
5.70425e-07
2.90373e-06
5.98828e-07
6.15354e-07
2.92757e-06
3.10266e-06
-5.0701e-07
3.11698e-06
1.36734e-07
3.07463e-06
-1.00282e-06
3.07897e-06
1.32645e-07
3.10259e-06
9.09274e-07
3.14404e-06
7.15383e-07
3.16e-06
4.15147e-07
3.13078e-06
-7.98614e-07
3.11212e-06
-9.72821e-07
3.07578e-06
-1.02716e-06
3.06561e-06
-8.26566e-07
3.00824e-06
-1.16006e-06
3.01564e-06
-4.03825e-07
2.98471e-06
-3.07459e-07
2.99853e-06
4.92846e-08
2.99369e-06
2.65245e-07
3.00771e-06
3.97448e-07
3.02709e-06
5.51045e-07
3.03961e-06
5.86309e-07
5.91329e-07
3.06364e-06
3.25026e-06
-4.93362e-07
3.26662e-06
1.20374e-07
3.22332e-06
-9.59514e-07
3.22728e-06
1.2868e-07
3.24957e-06
8.86983e-07
3.29168e-06
6.73278e-07
3.3089e-06
3.97928e-07
3.27881e-06
-7.68533e-07
3.26078e-06
-9.54789e-07
3.22339e-06
-9.89771e-07
3.21274e-06
-8.15915e-07
3.15516e-06
-1.10248e-06
3.15989e-06
-4.08553e-07
3.13088e-06
-2.78449e-07
3.1413e-06
3.88636e-08
3.13865e-06
2.6789e-07
3.15026e-06
3.85842e-07
3.17132e-06
5.29986e-07
3.18513e-06
5.72502e-07
5.68018e-07
3.20844e-06
3.40496e-06
-4.78389e-07
3.42326e-06
1.02068e-07
3.37922e-06
-9.15465e-07
3.38312e-06
1.24772e-07
3.40395e-06
8.66154e-07
3.44611e-06
6.31119e-07
3.46477e-06
3.79265e-07
3.43387e-06
-7.37629e-07
3.41621e-06
-9.37125e-07
3.37806e-06
-9.51627e-07
3.36679e-06
-8.04638e-07
3.30933e-06
-1.04502e-06
3.31124e-06
-4.10466e-07
3.28502e-06
-2.52231e-07
3.29248e-06
3.14065e-08
3.29233e-06
2.68034e-07
3.3022e-06
3.75975e-07
3.32416e-06
5.08029e-07
3.33924e-06
5.57425e-07
5.45795e-07
3.36146e-06
3.56714e-06
-4.62115e-07
3.58719e-06
8.20117e-08
3.54257e-06
-8.70837e-07
3.54675e-06
1.20584e-07
3.56613e-06
8.46779e-07
3.60766e-06
5.89587e-07
3.62791e-06
3.59012e-07
3.5963e-06
-7.06017e-07
3.57867e-06
-9.19495e-07
3.5401e-06
-9.13057e-07
3.52804e-06
-7.92577e-07
3.47113e-06
-9.88104e-07
3.46999e-06
-4.09329e-07
3.44696e-06
-2.29205e-07
3.45181e-06
2.65601e-08
3.45411e-06
2.65735e-07
3.46287e-06
3.67211e-07
3.48514e-06
4.85766e-07
3.5015e-06
5.41059e-07
5.24727e-07
3.52257e-06
3.73722e-06
-4.44627e-07
3.75871e-06
6.05168e-08
3.71359e-06
-8.25714e-07
3.71843e-06
1.15743e-07
3.73658e-06
8.28629e-07
3.77681e-06
5.4936e-07
3.7987e-06
3.37116e-07
3.7665e-06
-6.73817e-07
3.74851e-06
-9.01502e-07
3.70987e-06
-8.74415e-07
3.69678e-06
-7.79492e-07
3.64097e-06
-9.32289e-07
3.63659e-06
-4.04955e-07
3.61676e-06
-2.09376e-07
3.61939e-06
2.39293e-08
3.62388e-06
2.61254e-07
3.63207e-06
3.59017e-07
3.65425e-06
4.63586e-07
3.67187e-06
5.23443e-07
5.04678e-07
3.69192e-06
3.91563e-06
-4.26068e-07
3.93815e-06
3.79939e-08
3.89253e-06
-7.80091e-07
3.8984e-06
1.09875e-07
3.91581e-06
8.11214e-07
3.95412e-06
5.11056e-07
3.97761e-06
3.13621e-07
3.94491e-06
-6.41115e-07
3.92613e-06
-8.82722e-07
3.88777e-06
-8.36058e-07
3.87331e-06
-7.65029e-07
3.81923e-06
-8.78214e-07
3.81164e-06
-3.97363e-07
3.79465e-06
-1.92386e-07
3.79555e-06
2.30367e-08
3.80182e-06
2.54982e-07
3.80988e-06
3.50959e-07
3.83172e-06
4.41745e-07
3.85055e-06
5.04609e-07
4.8549e-07
3.86974e-06
4.10281e-06
-4.06625e-07
4.12589e-06
1.49146e-08
4.07968e-06
-7.33883e-07
4.0869e-06
1.02655e-07
4.10431e-06
7.938e-07
4.14019e-06
4.75177e-07
4.16516e-06
2.88652e-07
4.132e-06
-6.07957e-07
4.11201e-06
-8.62727e-07
4.07427e-06
-7.98323e-07
4.05799e-06
-7.48753e-07
4.00625e-06
-8.26474e-07
3.99574e-06
-3.86845e-07
3.98103e-06
-1.77677e-07
3.98069e-06
2.33768e-08
3.98832e-06
2.47345e-07
3.99658e-06
3.42707e-07
4.01789e-06
4.2043e-07
4.0379e-06
4.84598e-07
4.67015e-07
4.05638e-06
4.29918e-06
-3.86503e-07
4.32234e-06
-8.24615e-09
4.27542e-06
-6.86964e-07
4.28419e-06
9.38854e-08
4.30249e-06
7.75501e-07
4.33556e-06
4.42105e-07
4.36182e-06
2.62395e-07
4.32827e-06
-5.7441e-07
4.30666e-06
-8.41111e-07
4.26986e-06
-7.61526e-07
4.25129e-06
-7.30185e-07
4.20233e-06
-7.77515e-07
4.18939e-06
-3.73901e-07
4.17638e-06
-1.64668e-07
4.17526e-06
2.44978e-08
4.18389e-06
2.38712e-07
4.19253e-06
3.34069e-07
4.21323e-06
3.99727e-07
4.23429e-06
4.63535e-07
4.49081e-07
4.25223e-06
4.50517e-06
-3.65902e-07
4.528e-06
-3.10727e-08
4.48026e-06
-6.39221e-07
4.49059e-06
8.35556e-08
4.51068e-06
7.55408e-07
4.54066e-06
4.12123e-07
4.56801e-06
2.3505e-07
4.53422e-06
-5.40625e-07
4.51063e-06
-8.17516e-07
4.47505e-06
-7.25944e-07
4.45377e-06
-7.08906e-07
4.40775e-06
-7.315e-07
4.39304e-06
-3.59185e-07
4.3812e-06
-1.52834e-07
4.37969e-06
2.60135e-08
4.38902e-06
2.29382e-07
4.39816e-06
3.24929e-07
4.41816e-06
3.79722e-07
4.44012e-06
4.41572e-07
4.31479e-07
4.45773e-06
4.72121e-06
-3.44993e-07
4.74339e-06
-5.32563e-08
4.69479e-06
-5.90619e-07
4.70646e-06
7.18839e-08
4.72913e-06
7.32738e-07
4.75592e-06
3.85335e-07
4.78407e-06
2.06904e-07
4.75031e-06
-5.06865e-07
4.72448e-06
-7.91688e-07
4.69032e-06
-6.91785e-07
4.6661e-06
-6.84685e-07
4.62288e-06
-6.88285e-07
4.60705e-06
-3.4336e-07
4.59602e-06
-1.41804e-07
4.59436e-06
2.76749e-08
4.60416e-06
2.19589e-07
4.61388e-06
3.15206e-07
4.63306e-06
3.6054e-07
4.65576e-06
4.18876e-07
4.13984e-07
4.67325e-06
4.94771e-06
-3.23906e-07
4.96907e-06
-7.46162e-08
4.91971e-06
-5.41262e-07
4.93229e-06
5.93066e-08
4.95809e-06
7.06941e-07
4.98188e-06
3.61541e-07
5.01031e-06
1.78478e-07
4.97696e-06
-4.73517e-07
4.94875e-06
-7.63478e-07
4.9161e-06
-6.59136e-07
4.88904e-06
-6.57625e-07
4.84818e-06
-6.47429e-07
4.83178e-06
-3.26956e-07
4.82135e-06
-1.31372e-07
4.81966e-06
2.93622e-08
4.82973e-06
2.09525e-07
4.8401e-06
3.04834e-07
4.85835e-06
3.42292e-07
4.88148e-06
3.95741e-07
3.96208e-07
4.89926e-06
5.18513e-06
-3.02719e-07
5.20561e-06
-9.50925e-08
5.15577e-06
-4.91428e-07
5.16864e-06
4.64394e-08
5.19783e-06
6.77751e-07
5.21905e-06
3.4032e-07
5.24704e-06
1.50492e-07
5.21456e-06
-4.4104e-07
5.18398e-06
-7.32905e-07
5.15274e-06
-6.27895e-07
5.12331e-06
-6.28196e-07
5.08423e-06
-6.08346e-07
5.06764e-06
-3.10364e-07
5.05768e-06
-1.21409e-07
5.05602e-06
3.10168e-08
5.06616e-06
1.99387e-07
5.07723e-06
2.93762e-07
5.09449e-06
3.25028e-07
5.11766e-06
3.72578e-07
3.77784e-07
5.13608e-06
5.43395e-06
-2.81477e-07
5.45356e-06
-1.14702e-07
5.40372e-06
-4.41594e-07
5.41615e-06
3.40152e-08
5.44869e-06
6.45203e-07
5.46772e-06
3.21299e-07
5.49459e-06
1.23614e-07
5.4635e-06
-4.0995e-07
5.43073e-06
-7.00128e-07
5.40066e-06
-5.97826e-07
5.36952e-06
-5.97055e-07
5.33167e-06
-5.705e-07
5.31513e-06
-2.93823e-07
5.30554e-06
-1.11815e-07
5.30396e-06
3.25987e-08
5.31403e-06
1.89313e-07
5.32573e-06
2.82063e-07
5.34208e-06
3.08683e-07
5.36472e-06
3.4993e-07
3.58419e-07
5.38409e-06
5.69467e-06
-2.6019e-07
5.71346e-06
-1.33488e-07
5.66431e-06
-3.92442e-07
5.67549e-06
2.28327e-08
5.7111e-06
6.09589e-07
5.72826e-06
3.0414e-07
5.75343e-06
9.84464e-08
5.72418e-06
-3.80702e-07
5.68955e-06
-6.65494e-07
5.66035e-06
-5.68633e-07
5.62816e-06
-5.64868e-07
5.59126e-06
-5.33596e-07
5.5748e-06
-2.77361e-07
5.56556e-06
-1.02579e-07
5.56407e-06
3.40864e-08
5.57397e-06
1.79417e-07
5.58613e-06
2.69903e-07
5.60172e-06
2.93097e-07
5.62345e-06
3.28194e-07
3.38157e-07
5.64371e-06
5.96787e-06
-2.38868e-07
5.98584e-06
-1.51452e-07
5.93824e-06
-3.4485e-07
5.94736e-06
1.37126e-08
5.98555e-06
5.71405e-07
6.00118e-06
2.88509e-07
6.02411e-06
7.55163e-08
5.99705e-06
-3.5364e-07
5.96101e-06
-6.29455e-07
5.93241e-06
-5.4003e-07
5.89974e-06
-5.32198e-07
5.86371e-06
-4.97568e-07
5.84728e-06
-2.60934e-07
5.8384e-06
-9.37028e-08
5.83701e-06
3.54816e-08
5.84662e-06
1.69804e-07
5.85903e-06
2.57495e-07
5.87407e-06
2.78062e-07
5.89455e-06
3.0771e-07
3.17257e-07
5.91545e-06
6.25416e-06
-2.17543e-07
6.27124e-06
-1.68525e-07
6.22625e-06
-2.99863e-07
6.23248e-06
7.47969e-09
6.27254e-06
5.31342e-07
6.28709e-06
2.73964e-07
6.30732e-06
5.52865e-08
6.28263e-06
-3.2895e-07
6.24571e-06
-5.92535e-07
6.21747e-06
-5.11792e-07
6.18473e-06
-4.99459e-07
6.14964e-06
-4.62472e-07
6.13327e-06
-2.4457e-07
6.12471e-06
-8.51387e-08
6.12342e-06
3.6772e-08
6.1327e-06
1.60521e-07
6.14515e-06
2.45043e-07
6.15972e-06
2.63495e-07
6.17884e-06
2.88596e-07
2.96259e-07
6.19983e-06
6.55421e-06
-1.96284e-07
6.57022e-06
-1.84534e-07
6.52902e-06
-2.58666e-07
6.53157e-06
4.92852e-09
6.5727e-06
4.90218e-07
6.58664e-06
2.6002e-07
6.60388e-06
3.80479e-08
6.58154e-06
-3.0661e-07
6.54427e-06
-5.55264e-07
6.51622e-06
-4.83747e-07
6.4837e-06
-4.66939e-07
6.44969e-06
-4.2846e-07
6.43345e-06
-2.2833e-07
6.42514e-06
-7.68246e-08
6.42389e-06
3.80194e-08
6.43294e-06
1.51468e-07
6.44527e-06
2.32716e-07
6.45937e-06
2.49397e-07
6.47721e-06
2.70748e-07
2.75871e-07
6.4976e-06
6.86873e-06
-1.75219e-07
6.88341e-06
-1.99222e-07
6.847e-06
-2.22251e-07
6.84541e-06
6.51207e-09
6.88673e-06
4.489e-07
6.90053e-06
2.46219e-07
6.91467e-06
2.39157e-08
6.89442e-06
-2.86359e-07
6.85735e-06
-5.18203e-07
6.82937e-06
-4.55766e-07
6.79726e-06
-4.34828e-07
6.76441e-06
-3.9561e-07
6.74852e-06
-2.12436e-07
6.74043e-06
-6.8734e-08
6.73916e-06
3.92895e-08
6.74792e-06
1.42709e-07
6.76007e-06
2.20567e-07
6.77368e-06
2.35784e-07
6.79047e-06
2.53954e-07
2.5667e-07
6.80968e-06
7.19843e-06
-1.54514e-07
7.21148e-06
-2.12269e-07
7.18004e-06
-1.90815e-07
7.17476e-06
1.1792e-08
7.21541e-06
4.08252e-07
7.22946e-06
2.3217e-07
7.24058e-06
1.27948e-08
7.22195e-06
-2.67733e-07
7.18562e-06
-4.81871e-07
7.15769e-06
-4.27833e-07
7.12613e-06
-4.03266e-07
7.09444e-06
-3.63926e-07
7.07907e-06
-1.97061e-07
7.07133e-06
-6.10019e-08
7.06994e-06
4.06816e-08
7.07826e-06
1.34393e-07
7.09022e-06
2.08608e-07
7.10303e-06
2.22973e-07
7.11928e-06
2.37706e-07
2.38715e-07
7.13723e-06
7.54409e-06
-1.34381e-07
7.55512e-06
-2.23295e-07
7.52826e-06
-1.63951e-07
7.52038e-06
1.96717e-08
7.55956e-06
3.69069e-07
7.57413e-06
2.17603e-07
7.58243e-06
4.49289e-09
7.56494e-06
-2.50245e-07
7.52975e-06
-4.46684e-07
7.50192e-06
-4e-07
7.47103e-06
-3.72373e-07
7.44048e-06
-3.33374e-07
7.42574e-06
-1.82323e-07
7.41874e-06
-5.40001e-08
7.4173e-06
4.21197e-08
7.42476e-06
1.26933e-07
7.43605e-06
1.97315e-07
7.44779e-06
2.11236e-07
7.46304e-06
2.22451e-07
2.21287e-07
7.48047e-06
7.90646e-06
-1.15035e-07
7.91509e-06
-2.31918e-07
7.8924e-06
-1.41261e-07
7.88299e-06
2.90848e-08
7.92002e-06
3.32036e-07
7.93522e-06
2.02404e-07
7.94103e-06
-1.32451e-09
7.92424e-06
-2.33454e-07
7.8904e-06
-4.12844e-07
7.8629e-06
-3.72497e-07
7.83269e-06
-3.42166e-07
7.80324e-06
-3.03916e-07
7.7892e-06
-1.6829e-07
7.78318e-06
-4.79812e-08
7.78246e-06
4.28411e-08
7.78928e-06
1.20119e-07
7.79876e-06
1.87836e-07
7.808e-06
2.01996e-07
7.82137e-06
2.09075e-07
2.02824e-07
7.83983e-06
8.28636e-06
-9.67171e-08
8.29212e-06
-2.37678e-07
8.27333e-06
-1.22471e-07
8.26342e-06
3.89971e-08
8.29769e-06
2.9777e-07
8.31349e-06
1.86601e-07
8.31717e-06
-5.0051e-09
8.3007e-06
-2.1698e-07
8.26834e-06
-3.80486e-07
8.24142e-06
-3.4558e-07
8.21203e-06
-3.12774e-07
8.18354e-06
-2.75431e-07
8.17005e-06
-1.54792e-07
8.16505e-06
-4.29828e-08
8.16608e-06
4.18137e-08
8.1772e-06
1.08995e-07
8.19459e-06
1.7045e-07
8.21163e-06
1.84957e-07
8.22728e-06
1.93417e-07
1.90729e-07
8.23938e-06
8.68458e-06
-7.96349e-08
8.68702e-06
-2.40114e-07
8.67197e-06
-1.07423e-07
8.66251e-06
4.84536e-08
8.69346e-06
2.66817e-07
8.70965e-06
1.7041e-07
8.71169e-06
-7.04303e-09
8.69532e-06
-2.00606e-07
8.66433e-06
-3.49494e-07
8.6381e-06
-3.19355e-07
8.60997e-06
-2.84644e-07
8.58238e-06
-2.47836e-07
8.56943e-06
-1.41841e-07
8.56585e-06
-3.94081e-08
8.56804e-06
3.96212e-08
8.57881e-06
9.82264e-08
8.59396e-06
1.55304e-07
8.60805e-06
1.70863e-07
8.62235e-06
1.7912e-07
1.77564e-07
8.63551e-06
9.10198e-06
-6.39998e-08
9.10047e-06
-2.38601e-07
9.08915e-06
-9.6105e-08
9.08111e-06
5.64961e-08
9.10833e-06
2.39598e-07
9.12461e-06
1.54135e-07
9.12535e-06
-7.78413e-09
9.10891e-06
-1.84168e-07
9.07929e-06
-3.19873e-07
9.05404e-06
-2.94108e-07
9.02714e-06
-2.57744e-07
9.00066e-06
-2.21355e-07
8.98825e-06
-1.29436e-07
8.98544e-06
-3.6598e-08
8.98768e-06
3.7382e-08
8.99747e-06
8.84383e-08
9.01295e-06
1.39829e-07
9.02862e-06
1.55192e-07
9.04261e-06
1.65123e-07
1.67078e-07
9.0531e-06
9.53942e-06
-4.99574e-08
9.53323e-06
-2.32415e-07
9.52582e-06
-8.86939e-08
9.51999e-06
6.23291e-08
9.54328e-06
2.16306e-07
9.55913e-06
1.38287e-07
9.55908e-06
-7.73485e-09
9.54268e-06
-1.67767e-07
9.51401e-06
-2.91211e-07
9.4898e-06
-2.69891e-07
9.46453e-06
-2.32475e-07
9.43967e-06
-1.96494e-07
9.42762e-06
-1.17388e-07
9.42454e-06
-3.3519e-08
9.42411e-06
3.7814e-08
9.42677e-06
8.57785e-08
9.43274e-06
1.33856e-07
9.43957e-06
1.48365e-07
9.45102e-06
1.53669e-07
1.50257e-07
9.46784e-06
9.99779e-06
-3.76079e-08
9.98669e-06
-2.2132e-07
9.98289e-06
-8.48894e-08
9.97986e-06
6.53593e-08
9.99928e-06
1.96887e-07
1.00143e-05
1.23282e-07
1.00137e-05
-7.19007e-09
9.99727e-06
-1.513e-07
9.96981e-06
-2.63757e-07
9.94664e-06
-2.46716e-07
9.92268e-06
-2.08516e-07
9.89882e-06
-1.72632e-07
9.88655e-06
-1.05118e-07
9.88489e-06
-3.18599e-08
9.88984e-06
3.28682e-08
9.90029e-06
7.53226e-08
9.91597e-06
1.18173e-07
9.93192e-06
1.32422e-07
9.94401e-06
1.41572e-07
1.44492e-07
9.94978e-06
1.0478e-05
-2.69743e-08
1.04636e-05
-2.06898e-07
1.04614e-05
-8.27486e-08
1.04614e-05
6.53756e-08
1.04774e-05
1.80919e-07
1.04911e-05
1.09619e-07
1.04903e-05
-6.39618e-09
1.04741e-05
-1.35122e-07
1.04473e-05
-2.36952e-07
1.0425e-05
-2.24423e-07
1.04031e-05
-1.86602e-07
1.03808e-05
-1.50357e-07
1.03677e-05
-9.20444e-08
1.03645e-05
-2.86244e-08
1.0365e-05
3.2404e-08
1.03677e-05
7.25956e-08
1.03742e-05
1.11648e-07
1.03819e-05
1.24748e-07
1.03929e-05
1.30546e-07
1.30619e-07
1.04068e-05
1.0981e-05
-1.79843e-08
1.09646e-05
-1.90473e-07
1.09626e-05
-8.07674e-08
1.09654e-05
6.2585e-08
1.09789e-05
1.6742e-07
1.09907e-05
9.78596e-08
1.09896e-05
-5.3143e-09
1.09737e-05
-1.19226e-07
1.09478e-05
-2.11106e-07
1.09265e-05
-2.03068e-07
1.09055e-05
-1.65617e-07
1.08842e-05
-1.29042e-07
1.08708e-05
-7.86718e-08
1.0867e-05
-2.47946e-08
1.08676e-05
3.17994e-08
1.08712e-05
6.89773e-08
1.08793e-05
1.03533e-07
1.08887e-05
1.15327e-07
1.09006e-05
1.18667e-07
1.19386e-07
1.09119e-05
1.15079e-05
-1.04874e-08
1.14905e-05
-1.73115e-07
1.14874e-05
-7.77071e-08
1.14928e-05
5.72678e-08
1.15049e-05
1.55281e-07
1.15142e-05
8.85878e-08
1.15129e-05
-4.00202e-09
1.14977e-05
-1.04068e-07
1.14724e-05
-1.85807e-07
1.14513e-05
-1.81963e-07
1.14315e-05
-1.45813e-07
1.1412e-05
-1.09552e-07
1.13987e-05
-6.53387e-08
1.13941e-05
-2.01744e-08
1.13954e-05
3.04629e-08
1.13998e-05
6.4609e-08
1.14081e-05
9.51672e-08
1.14171e-05
1.06344e-07
1.14277e-05
1.081e-07
1.0836e-07
1.14387e-05
1.20596e-05
-4.27704e-09
1.20421e-05
-1.55621e-07
1.20372e-05
-7.2782e-08
1.20446e-05
4.98374e-08
1.20562e-05
1.43701e-07
1.20632e-05
8.15539e-08
1.20612e-05
-1.9283e-09
1.20465e-05
-8.94522e-08
1.20223e-05
-1.61528e-07
1.20017e-05
-1.61404e-07
1.19829e-05
-1.27019e-07
1.19647e-05
-9.13534e-08
1.19522e-05
-5.27788e-08
1.19474e-05
-1.54589e-08
1.19492e-05
2.87383e-08
1.19535e-05
6.02374e-08
1.19616e-05
8.71455e-08
1.19701e-05
9.77726e-08
1.19794e-05
9.88405e-08
9.72811e-08
1.19905e-05
1.26374e-05
9.09563e-10
1.26205e-05
-1.38706e-07
1.26131e-05
-6.54327e-08
1.26221e-05
4.08866e-08
1.26339e-05
1.31884e-07
1.26389e-05
7.66001e-08
1.26356e-05
1.28924e-09
1.26219e-05
-7.5707e-08
1.25989e-05
-1.38487e-07
1.25785e-05
-1.41046e-07
1.25606e-05
-1.09164e-07
1.25442e-05
-7.48961e-08
1.25327e-05
-4.12742e-08
1.25277e-05
-1.04738e-08
1.25293e-05
2.71517e-08
1.2534e-05
5.55118e-08
1.25416e-05
7.95059e-08
1.255e-05
8.93882e-08
1.25583e-05
9.05964e-08
8.69742e-08
1.25686e-05
1.32425e-05
5.31954e-09
1.32267e-05
-1.22865e-07
1.32173e-05
-5.60074e-08
1.32266e-05
3.15388e-08
1.32389e-05
1.1961e-07
1.32426e-05
7.29184e-08
1.32379e-05
5.95547e-09
1.32247e-05
-6.24682e-08
1.3203e-05
-1.16841e-07
1.31834e-05
-1.21389e-07
1.31667e-05
-9.24855e-08
1.31517e-05
-5.99017e-08
1.3141e-05
-3.05788e-08
1.31361e-05
-5.5413e-09
1.31378e-05
2.54539e-08
1.31424e-05
5.08852e-08
1.31495e-05
7.24152e-08
1.31579e-05
8.09727e-08
1.31655e-05
8.30054e-08
7.78632e-08
1.31746e-05
1.38763e-05
9.17772e-09
1.38619e-05
-1.08453e-07
1.38511e-05
-4.52183e-08
1.38595e-05
2.31725e-08
1.38722e-05
1.06859e-07
1.38754e-05
6.96956e-08
1.38693e-05
1.21288e-08
1.38563e-05
-4.95003e-08
1.38363e-05
-9.68447e-08
1.38177e-05
-1.02795e-07
1.3802e-05
-7.68202e-08
1.37884e-05
-4.62734e-08
1.37788e-05
-2.09164e-08
1.37741e-05
-8.80549e-10
1.37752e-05
2.43198e-08
1.378e-05
4.61633e-08
1.37869e-05
6.55086e-08
1.3795e-05
7.28534e-08
1.38022e-05
7.57697e-08
7.02245e-08
1.38099e-05
1.45402e-05
1.26467e-08
1.45273e-05
-9.55809e-08
1.45159e-05
-3.37789e-08
1.45221e-05
1.69364e-08
1.45352e-05
9.37334e-08
1.45387e-05
6.62914e-08
1.45314e-05
1.93664e-08
1.45183e-05
-3.64282e-08
1.44998e-05
-7.83172e-08
1.44826e-05
-8.55967e-08
1.44684e-05
-6.25886e-08
1.44561e-05
-3.40167e-08
1.44472e-05
-1.19787e-08
1.44428e-05
3.49892e-09
1.44436e-05
2.35696e-08
1.44483e-05
4.14321e-08
1.44548e-05
5.90052e-08
1.44623e-05
6.5356e-08
1.44697e-05
6.83471e-08
6.36084e-08
1.44763e-05
1.52357e-05
1.58328e-08
1.52243e-05
-8.41916e-08
1.52129e-05
-2.23495e-08
1.52165e-05
1.32756e-08
1.52293e-05
8.10071e-08
1.52332e-05
6.2311e-08
1.52256e-05
2.70301e-08
1.52124e-05
-2.32953e-08
1.51952e-05
-6.10412e-08
1.51795e-05
-6.98924e-08
1.51668e-05
-4.99344e-08
1.51559e-05
-2.31276e-08
1.51478e-05
-3.82958e-09
1.51436e-05
7.63799e-09
1.51441e-05
2.30589e-08
1.51484e-05
3.71317e-08
1.51548e-05
5.26332e-08
1.51619e-05
5.83199e-08
1.51693e-05
6.09502e-08
5.76742e-08
1.51752e-05
1.59644e-05
1.87645e-08
1.59543e-05
-7.40779e-08
1.59434e-05
-1.15112e-08
1.59445e-05
1.22305e-08
1.59558e-05
6.96939e-08
1.59605e-05
5.76275e-08
1.59532e-05
3.43521e-08
1.59402e-05
-1.0287e-08
1.59239e-05
-4.47996e-08
1.59094e-05
-5.54084e-08
1.58985e-05
-3.89746e-08
1.58894e-05
-1.4055e-08
1.58821e-05
3.51829e-09
1.58781e-05
1.15609e-08
1.58783e-05
2.28513e-08
1.58822e-05
3.32966e-08
1.58884e-05
4.64442e-08
1.58949e-05
5.18042e-08
1.59019e-05
5.39406e-08
5.18446e-08
1.59077e-05
1.6728e-05
2.14112e-08
1.67188e-05
-6.48845e-08
1.6709e-05
-1.7475e-09
1.67077e-05
1.3491e-08
1.67164e-05
6.10413e-08
1.67216e-05
5.23866e-08
1.67155e-05
4.0469e-08
1.6703e-05
2.20535e-09
1.66878e-05
-2.95831e-08
1.66743e-05
-4.18916e-08
1.66648e-05
-2.95108e-08
1.66577e-05
-6.92485e-09
1.66515e-05
9.70329e-09
1.66478e-05
1.52701e-08
1.66477e-05
2.29231e-08
1.6651e-05
3.00334e-08
1.66568e-05
4.06296e-08
1.6663e-05
4.56331e-08
1.66696e-05
4.73255e-08
4.59215e-08
1.66755e-05
1.7528e-05
2.37278e-08
1.75194e-05
-5.62473e-08
1.75109e-05
6.79284e-09
1.7508e-05
1.63939e-08
1.75132e-05
5.57999e-08
1.75185e-05
4.70775e-08
1.75143e-05
4.472e-08
1.75029e-05
1.36072e-08
1.74886e-05
-1.53569e-08
1.74759e-05
-2.91384e-08
1.74675e-05
-2.11073e-08
1.74623e-05
-1.70928e-09
1.74576e-05
1.43822e-08
1.74543e-05
1.85435e-08
1.7454e-05
2.32565e-08
1.74567e-05
2.73549e-08
1.7462e-05
3.53277e-08
1.74679e-05
3.9698e-08
1.7474e-05
4.1217e-08
4.01139e-08
1.74798e-05
1.83664e-05
2.56737e-08
1.83581e-05
-4.79172e-08
1.83506e-05
1.42651e-08
1.8347e-05
1.99779e-08
1.83489e-05
5.38675e-08
1.83535e-05
4.24957e-08
1.83513e-05
4.69551e-08
1.83414e-05
2.34734e-08
1.83282e-05
-2.15852e-09
1.83163e-05
-1.72038e-08
1.83085e-05
-1.33035e-08
1.83048e-05
2.02165e-09
1.83017e-05
1.73994e-08
1.82992e-05
2.10753e-08
1.82988e-05
2.36497e-08
1.83009e-05
2.52773e-08
1.83056e-05
3.06467e-08
1.83111e-05
3.41282e-08
1.83168e-05
3.55589e-08
3.45956e-08
1.83223e-05