/*--------------------------------*- C++ -*----------------------------------*\
| =========                 |                                                 |
| \\      /  F ield         | OpenFOAM: The Open Source CFD Toolbox           |
|  \\    /   O peration     | Version:  v1912                                 |
|   \\  /    A nd           | Website:  www.openfoam.com                      |
|    \\/     M anipulation  |                                                 |
\*---------------------------------------------------------------------------*/
FoamFile
{
    version     2.0;
    format      ascii;
    class       volVectorField;
    location    "7.8";
    object      U;
}
// * * * * * * * * * * * * * * * * * * * * * * * * * * * * * * * * * * * * * //

dimensions      [0 1 -1 0 0 0 0];


internalField   nonuniform List<vector> 
9600
(
(0.9007 -0.00760599 0)
(1.06519 0.0026849 0)
(0.949653 -0.0148476 0)
(1.06319 0.0106429 0)
(1.03475 0.020078 0)
(1.04394 0.0170734 0)
(0.995421 0.00142773 0)
(0.981542 -0.0333247 0)
(0.903193 -0.0287886 0)
(0.965036 -0.0284767 0)
(0.970887 -0.0170525 0)
(1.03583 -0.0363523 0)
(0.958358 0.0226471 0)
(1.13553 -0.00160476 0)
(0.977465 0.0347625 0)
(1.18196 0.0125874 0)
(0.954325 0.0407825 0)
(1.20094 0.0177293 0)
(0.914903 0.0291754 0)
(1.19661 0.0142744 0)
(0.914198 -0.00740446 0)
(1.05719 0.00234103 0)
(0.9634 -0.014921 0)
(1.06235 0.0101313 0)
(1.04002 0.0200725 0)
(1.04161 0.0174273 0)
(1.01032 0.00222064 0)
(0.977597 -0.0317761 0)
(0.920632 -0.0285264 0)
(0.949794 -0.0294846 0)
(0.971734 -0.0186073 0)
(1.0189 -0.035947 0)
(0.966766 0.0208517 0)
(1.11402 -0.00127396 0)
(0.998953 0.0333683 0)
(1.14306 0.0136366 0)
(1.00187 0.0398838 0)
(1.12767 0.0185336 0)
(1.0094 0.0302416 0)
(1.07509 0.0136494 0)
(0.934009 -0.00724283 0)
(1.041 0.00201141 0)
(0.978205 -0.0150157 0)
(1.05753 0.00945976 0)
(1.05022 0.0202633 0)
(1.04352 0.0178208 0)
(1.02277 0.00288959 0)
(0.981667 -0.0309044 0)
(0.93807 -0.0282654 0)
(0.943008 -0.0299912 0)
(0.973765 -0.0195919 0)
(1.00321 -0.0356926 0)
(0.982429 0.0185973 0)
(1.08797 -0.00178547 0)
(1.02959 0.0319084 0)
(1.10784 0.0140765 0)
(1.04648 0.0393063 0)
(1.09402 0.0192638 0)
(1.05895 0.0301949 0)
(1.0709 0.0142985 0)
(0.955361 -0.00707977 0)
(1.02047 0.00172256 0)
(0.987359 -0.0152173 0)
(1.04982 0.00884324 0)
(1.06029 0.0203846 0)
(1.04875 0.0181234 0)
(1.03319 0.00355272 0)
(0.98534 -0.0298207 0)
(0.949653 -0.0277699 0)
(0.942829 -0.0303537 0)
(0.973392 -0.0205297 0)
(0.991632 -0.0358945 0)
(0.996917 0.0167694 0)
(1.06831 -0.00259842 0)
(1.05201 0.0312952 0)
(1.09178 0.0138073 0)
(1.07233 0.039579 0)
(1.09256 0.0190475 0)
(1.08099 0.0304841 0)
(1.08712 0.0148403 0)
(0.973886 -0.00689435 0)
(1.00209 0.00150613 0)
(0.988978 -0.0155186 0)
(1.04175 0.00819069 0)
(1.06617 0.020321 0)
(1.0535 0.0184066 0)
(1.04073 0.00429098 0)
(0.990451 -0.0287384 0)
(0.958415 -0.0272655 0)
(0.947763 -0.0305532 0)
(0.972806 -0.0213498 0)
(0.984514 -0.0362024 0)
(1.00508 0.0151536 0)
(1.05653 -0.00337574 0)
(1.06166 0.030456 0)
(1.08689 0.0138046 0)
(1.08494 0.0391026 0)
(1.09953 0.0192724 0)
(1.09375 0.0303519 0)
(1.09693 0.0158548 0)
(0.987013 -0.00669717 0)
(0.990581 0.00139961 0)
(0.985525 -0.0158827 0)
(1.03395 0.00745053 0)
(1.06627 0.0201351 0)
(1.05516 0.0186779 0)
(1.04606 0.0050397 0)
(0.994488 -0.027629 0)
(0.965173 -0.0267561 0)
(0.954259 -0.030649 0)
(0.973756 -0.0219989 0)
(0.98103 -0.0365985 0)
(1.0078 0.0135379 0)
(1.04961 -0.00424226 0)
(1.06337 0.0292252 0)
(1.08464 0.0136558 0)
(1.09132 0.0379789 0)
(1.10542 0.019579 0)
(1.1023 0.0297501 0)
(1.10222 0.0170775 0)
(0.994619 -0.00650679 0)
(0.986542 0.00140359 0)
(0.980865 -0.0162411 0)
(1.02523 0.00666775 0)
(1.06042 0.0198729 0)
(1.05302 0.0188714 0)
(1.04967 0.00576732 0)
(0.998394 -0.0264963 0)
(0.971557 -0.0262663 0)
(0.960745 -0.0306742 0)
(0.975815 -0.0225424 0)
(0.98032 -0.0370023 0)
(1.0082 0.0118418 0)
(1.0453 -0.00513059 0)
(1.06224 0.0278484 0)
(1.08273 0.0132792 0)
(1.09488 0.0366938 0)
(1.1093 0.0198273 0)
(1.10786 0.029139 0)
(1.10541 0.0186425 0)
(0.998124 -0.006338 0)
(0.987577 0.00148564 0)
(0.977685 -0.0165151 0)
(1.01473 0.00590259 0)
(1.04947 0.019539 0)
(1.04792 0.0189279 0)
(1.05219 0.00643228 0)
(1.00236 -0.0253653 0)
(0.977934 -0.0257943 0)
(0.966532 -0.0306412 0)
(0.977582 -0.0230269 0)
(0.980675 -0.0373833 0)
(1.00842 0.0100989 0)
(1.04299 -0.00597763 0)
(1.0611 0.0263326 0)
(1.08142 0.0128415 0)
(1.09719 0.035253 0)
(1.11175 0.0200619 0)
(1.11117 0.0286111 0)
(1.10704 0.0204079 0)
(0.999221 -0.00619763 0)
(0.990843 0.00160598 0)
(0.976694 -0.0166529 0)
(1.00323 0.00520911 0)
(1.03566 0.0191318 0)
(1.04151 0.0187934 0)
(1.05388 0.00699942 0)
(1.0066 -0.0242357 0)
(0.98445 -0.0253232 0)
(0.971574 -0.0305081 0)
(0.978326 -0.0234566 0)
(0.979733 -0.0377736 0)
(1.00894 0.00829996 0)
(1.04241 -0.00680279 0)
(1.06134 0.0246772 0)
(1.08141 0.0123859 0)
(1.09926 0.0335798 0)
(1.11332 0.0203245 0)
(1.1127 0.0280756 0)
(1.10706 0.0222889 0)
(0.999198 -0.00608473 0)
(0.994489 0.00173374 0)
(0.977298 -0.0166422 0)
(0.992819 0.00462117 0)
(1.02229 0.0186494 0)
(1.03549 0.0184454 0)
(1.05458 0.0074427 0)
(1.01072 -0.0231295 0)
(0.99084 -0.0248426 0)
(0.97603 -0.030234 0)
(0.97833 -0.0237731 0)
(0.975699 -0.0381992 0)
(1.00922 0.00633951 0)
(1.04236 -0.00766914 0)
(1.06317 0.0228892 0)
(1.08278 0.0118933 0)
(1.10154 0.0317668 0)
(1.11412 0.0206825 0)
(1.11246 0.0275891 0)
(1.10516 0.0242728 0)
(0.998862 -0.00599441 0)
(0.997656 0.00184951 0)
(0.978682 -0.0164984 0)
(0.985451 0.00414136 0)
(1.01223 0.0180954 0)
(1.03076 0.0179056 0)
(1.05373 0.00777055 0)
(1.01415 -0.0220657 0)
(0.996545 -0.024341 0)
(0.980074 -0.0298125 0)
(0.978477 -0.0238838 0)
(0.968581 -0.0386325 0)
(1.00824 0.00413154 0)
(1.04064 -0.00862444 0)
(1.06521 0.0209103 0)
(1.08422 0.011388 0)
(1.10324 0.0299307 0)
(1.1134 0.0211912 0)
(1.10984 0.0272562 0)
(1.10077 0.0263335 0)
(0.99868 -0.00592232 0)
(0.999962 0.00194667 0)
(0.98041 -0.0162543 0)
(0.981787 0.00373902 0)
(1.00651 0.0174913 0)
(1.02718 0.0172417 0)
(1.05086 0.00800426 0)
(1.01648 -0.0210634 0)
(1.00091 -0.0238306 0)
(0.983665 -0.0292611 0)
(0.979521 -0.0237273 0)
(0.960443 -0.0390036 0)
(1.00509 0.00166477 0)
(1.03511 -0.00970792 0)
(1.06468 0.0186932 0)
(1.08304 0.0108792 0)
(1.1021 0.0281262 0)
(1.10948 0.0218887 0)
(1.10368 0.0271549 0)
(1.0931 0.0284087 0)
(0.998865 -0.00586302 0)
(1.00124 0.00202361 0)
(0.982412 -0.0159467 0)
(0.981021 0.00337536 0)
(1.00412 0.0168753 0)
(1.024 0.016541 0)
(1.04596 0.008166 0)
(1.01766 -0.0201401 0)
(1.00356 -0.0233282 0)
(0.986561 -0.0286141 0)
(0.981523 -0.0233023 0)
(0.954286 -0.0392092 0)
(0.999454 -0.000933 0)
(1.025 -0.0108809 0)
(1.05858 0.0162426 0)
(1.07627 0.0103517 0)
(1.09519 0.0263883 0)
(1.10025 0.0227529 0)
(1.09272 0.0273244 0)
(1.0815 0.0304108 0)
(0.999408 -0.00580952 0)
(1.00153 0.00207681 0)
(0.98468 -0.0156048 0)
(0.981617 0.00303399 0)
(1.00309 0.0162867 0)
(1.02058 0.0158746 0)
(1.03969 0.00826226 0)
(1.01794 -0.0193072 0)
(1.00463 -0.0228427 0)
(0.988569 -0.0279321 0)
(0.983885 -0.0226685 0)
(0.952222 -0.0391483 0)
(0.991869 -0.00345209 0)
(1.0115 -0.0120021 0)
(1.0456 0.0136293 0)
(1.06231 0.00982132 0)
(1.08058 0.0247216 0)
(1.08444 0.0237074 0)
(1.07647 0.0277134 0)
(1.06602 0.0322059 0)
(1.00014 -0.00575656 0)
(1.00111 0.00210423 0)
(0.987073 -0.0152447 0)
(0.982271 0.00272279 0)
(1.00182 0.0157498 0)
(1.01682 0.0152714 0)
(1.03313 0.00829047 0)
(1.01765 -0.0185729 0)
(1.00462 -0.022369 0)
(0.989735 -0.0272702 0)
(0.985868 -0.021967 0)
(0.954315 -0.0387519 0)
(0.983535 -0.00565247 0)
(0.997126 -0.0128773 0)
(1.02711 0.0110355 0)
(1.04219 0.00933597 0)
(1.05898 0.0231326 0)
(1.06279 0.0246269 0)
(1.05599 0.028204 0)
(1.04782 0.033618 0)
(1.00083 -0.0056994 0)
(1.00036 0.00210453 0)
(0.989334 -0.0148696 0)
(0.982419 0.00245676 0)
(0.999773 0.0152695 0)
(1.01307 0.0147208 0)
(1.02731 0.00825102 0)
(1.01704 -0.0179317 0)
(1.00412 -0.021906 0)
(0.990324 -0.0266346 0)
(0.987061 -0.0213422 0)
(0.95893 -0.0380253 0)
(0.975898 -0.00738289 0)
(0.98443 -0.0133654 0)
(1.00669 0.00867148 0)
(1.01933 0.00896214 0)
(1.03381 0.0216484 0)
(1.03827 0.0253446 0)
(1.03395 0.0286571 0)
(1.02912 0.0344997 0)
(1.00134 -0.00563499 0)
(0.999615 0.00207829 0)
(0.991232 -0.0144767 0)
(0.982153 0.00224428 0)
(0.997283 0.0148357 0)
(1.00981 0.0141943 0)
(1.0228 0.00814545 0)
(1.01631 -0.0173572 0)
(1.00356 -0.0214592 0)
(0.990655 -0.0260082 0)
(0.987488 -0.0208452 0)
(0.964022 -0.0370412 0)
(0.970064 -0.00865042 0)
(0.974952 -0.0134296 0)
(0.988328 0.00667288 0)
(0.9979 0.00874827 0)
(1.00972 0.0202829 0)
(1.01488 0.0257564 0)
(1.01355 0.0289443 0)
(1.01236 0.0347685 0)
(1.00159 -0.00556143 0)
(0.999049 0.00202634 0)
(0.992673 -0.014063 0)
(0.981825 0.00208279 0)
(0.994934 0.0144332 0)
(1.00733 0.0136625 0)
(1.01967 0.00798823 0)
(1.01553 -0.0168277 0)
(1.00311 -0.0210249 0)
(0.990964 -0.0253734 0)
(0.987427 -0.0204727 0)
(0.968227 -0.0358658 0)
(0.966406 -0.00953222 0)
(0.968927 -0.0130912 0)
(0.97461 0.00508309 0)
(0.981008 0.00871236 0)
(0.990355 0.0190489 0)
(0.995918 0.0258408 0)
(0.997292 0.0289924 0)
(0.999269 0.0344568 0)
(1.00162 -0.00547755 0)
(0.998692 0.00194861 0)
(0.993698 -0.0136259 0)
(0.981711 0.0019625 0)
(0.99311 0.0140512 0)
(1.0056 0.0131081 0)
(1.01763 0.00779401 0)
(1.01477 -0.0163238 0)
(1.00278 -0.0205989 0)
(0.991344 -0.0247146 0)
(0.987181 -0.0201884 0)
(0.971138 -0.0345584 0)
(0.964612 -0.0101472 0)
(0.965688 -0.0124391 0)
(0.966029 0.00387538 0)
(0.969708 0.00882151 0)
(0.977169 0.0179691 0)
(0.982781 0.0256255 0)
(0.986086 0.0288132 0)
(0.990354 0.0337007 0)
(1.00147 -0.0053832 0)
(0.998493 0.00184779 0)
(0.994423 -0.0131654 0)
(0.981906 0.00187161 0)
(0.991881 0.0136824 0)
(1.00443 0.0125279 0)
(1.01627 0.00757369 0)
(1.01404 -0.0158245 0)
(1.0025 -0.0201863 0)
(0.991779 -0.0240203 0)
(0.986948 -0.0199494 0)
(0.972977 -0.0331769 0)
(0.964059 -0.0105826 0)
(0.964305 -0.0116029 0)
(0.961593 0.00298024 0)
(0.963317 0.00900968 0)
(0.969564 0.0170641 0)
(0.975022 0.0251655 0)
(0.979435 0.0284587 0)
(0.985058 0.0326675 0)
(1.00123 -0.00527744 0)
(0.998382 0.00172476 0)
(0.994961 -0.0126848 0)
(0.982372 0.00179979 0)
(0.991136 0.0133265 0)
(1.00358 0.0119214 0)
(1.01528 0.00733363 0)
(1.01336 -0.0153173 0)
(1.00222 -0.0197916 0)
(0.9922 -0.023286 0)
(0.98681 -0.0197298 0)
(0.974156 -0.0317499 0)
(0.964159 -0.0109106 0)
(0.964009 -0.0106723 0)
(0.959858 0.00231131 0)
(0.960377 0.00922126 0)
(0.96596 0.0163277 0)
(0.971199 0.0245218 0)
(0.976098 0.0279839 0)
(0.982326 0.0315074 0)
(1.00094 -0.00515974 0)
(0.998306 0.00157926 0)
(0.995388 -0.0121876 0)
(0.983032 0.00173936 0)
(0.990736 0.012986 0)
(1.00288 0.0112912 0)
(1.01442 0.00707518 0)
(1.01273 -0.014797 0)
(1.00192 -0.0194163 0)
(0.992533 -0.022517 0)
(0.986779 -0.0195088 0)
(0.975011 -0.0302959 0)
(0.964527 -0.0111554 0)
(0.964306 -0.00971745 0)
(0.959632 0.00180508 0)
(0.95949 0.00941182 0)
(0.964783 0.0157309 0)
(0.969791 0.0237415 0)
(0.974806 0.0274293 0)
(0.981135 0.0303148 0)
(1.00064 -0.00502926 0)
(0.998236 0.00141106 0)
(0.995738 -0.0116766 0)
(0.983809 0.00168572 0)
(0.990586 0.0126624 0)
(1.00223 0.0106449 0)
(1.01356 0.00679896 0)
(1.01213 -0.0142606 0)
(1.00161 -0.0190573 0)
(0.992723 -0.0217159 0)
(0.986838 -0.0192759 0)
(0.975732 -0.0288299 0)
(0.964972 -0.0113172 0)
(0.964912 -0.00881491 0)
(0.960166 0.00142319 0)
(0.959675 0.00953621 0)
(0.964909 0.0152452 0)
(0.969676 0.0228789 0)
(0.974629 0.0268071 0)
(0.980755 0.0291354 0)
(1.00037 -0.00488521 0)
(0.998162 0.00122058 0)
(0.996011 -0.0111558 0)
(0.984644 0.00163496 0)
(0.990638 0.0123575 0)
(1.00161 0.00999677 0)
(1.01265 0.00650158 0)
(1.01154 -0.0137046 0)
(1.0013 -0.0187103 0)
(0.992742 -0.0208917 0)
(0.986962 -0.0190245 0)
(0.976396 -0.0273585 0)
(0.965441 -0.0114082 0)
(0.965665 -0.00798582 0)
(0.961059 0.00114161 0)
(0.960362 0.00958046 0)
(0.965676 0.0148346 0)
(0.970184 0.0219662 0)
(0.975003 0.026128 0)
(0.980761 0.0280033 0)
(1.00016 -0.00472773 0)
(0.998087 0.00100914 0)
(0.996191 -0.0106272 0)
(0.985485 0.0015818 0)
(0.990863 0.0120757 0)
(1.00102 0.00935142 0)
(1.01167 0.00617643 0)
(1.01095 -0.0131311 0)
(1.00101 -0.0183716 0)
(0.992596 -0.0200601 0)
(0.987119 -0.0187483 0)
(0.977017 -0.0258996 0)
(0.965959 -0.0114157 0)
(0.966472 -0.00725532 0)
(0.962112 0.000948317 0)
(0.961261 0.00953618 0)
(0.966718 0.0144744 0)
(0.970975 0.0210256 0)
(0.975631 0.0253941 0)
(0.980942 0.0269235 0)
(1.00001 -0.00455763 0)
(0.998023 0.000780307 0)
(0.996254 -0.0100931 0)
(0.986285 0.001523 0)
(0.991234 0.0118148 0)
(1.00054 0.00871688 0)
(1.01067 0.00582203 0)
(1.01036 -0.0125477 0)
(1.00074 -0.0180281 0)
(0.992314 -0.0192251 0)
(0.987284 -0.0184543 0)
(0.977582 -0.0244633 0)
(0.966576 -0.0113275 0)
(0.967282 -0.00661924 0)
(0.963239 0.000834085 0)
(0.962244 0.00941371 0)
(0.96785 0.0141445 0)
(0.971889 0.0200887 0)
(0.976361 0.024601 0)
(0.981207 0.0258871 0)
(0.99993 -0.00437618 0)
(0.997985 0.000537991 0)
(0.996184 -0.00955306 0)
(0.987001 0.0014541 0)
(0.991716 0.011567 0)
(1.00021 0.00811163 0)
(1.0097 0.0054394 0)
(1.00977 -0.0119504 0)
(1.00049 -0.017672 0)
(0.991949 -0.0183895 0)
(0.987434 -0.0181353 0)
(0.97808 -0.0230639 0)
(0.967337 -0.0111482 0)
(0.968079 -0.00606381 0)
(0.964412 0.000778074 0)
(0.963269 0.00922229 0)
(0.96898 0.0138258 0)
(0.972867 0.0191678 0)
(0.977129 0.023754 0)
(0.981526 0.0248947 0)
(0.999915 -0.00418408 0)
(0.997985 0.000285726 0)
(0.995984 -0.00900428 0)
(0.987606 0.0013683 0)
(0.992263 0.0113247 0)
(1.00008 0.00754108 0)
(1.00882 0.0050302 0)
(1.0092 -0.011343 0)
(1.00028 -0.0172917 0)
(0.99156 -0.0175686 0)
(0.987557 -0.0177727 0)
(0.978506 -0.0217255 0)
(0.968255 -0.0108883 0)
(0.968869 -0.00558942 0)
(0.965633 0.000762636 0)
(0.96434 0.00897398 0)
(0.970081 0.0135118 0)
(0.973892 0.0182638 0)
(0.977909 0.0228572 0)
(0.981895 0.0239409 0)
(0.999952 -0.00398411 0)
(0.998027 3.07104e-05 0)
(0.995675 -0.00844996 0)
(0.988086 0.00126348 0)
(0.992828 0.0110777 0)
(1.00016 0.00701318 0)
(1.00807 0.00459974 0)
(1.00867 -0.0107308 0)
(1.00011 -0.0168818 0)
(0.991206 -0.0167653 0)
(0.98765 -0.0173596 0)
(0.978869 -0.0204541 0)
(0.969309 -0.0105583 0)
(0.969668 -0.00517553 0)
(0.966904 0.000777961 0)
(0.965472 0.00867852 0)
(0.971151 0.0131807 0)
(0.974961 0.0173756 0)
(0.978705 0.0219111 0)
(0.982307 0.0230223 0)
(1.00002 -0.003779 0)
(0.998107 -0.00022227 0)
(0.9953 -0.00788726 0)
(0.988451 0.00114004 0)
(0.993365 0.0108125 0)
(1.0004 0.00653023 0)
(1.00746 0.00415041 0)
(1.00817 -0.010109 0)
(0.99998 -0.016439 0)
(0.990929 -0.0159865 0)
(0.987723 -0.0168855 0)
(0.979193 -0.0192491 0)
(0.970454 -0.0101694 0)
(0.970488 -0.00479769 0)
(0.968216 0.000818722 0)
(0.966667 0.00835418 0)
(0.9722 0.012829 0)
(0.976063 0.0165129 0)
(0.979522 0.0209224 0)
(0.982756 0.0221389 0)
(1.00011 -0.00357015 0)
(0.998219 -0.000469378 0)
(0.994911 -0.00731191 0)
(0.98873 0.000995698 0)
(0.99384 0.0105149 0)
(1.00072 0.00609684 0)
(1.00699 0.00367891 0)
(1.0077 -0.00949006 0)
(0.999887 -0.0159503 0)
(0.990752 -0.0152453 0)
(0.987789 -0.016338 0)
(0.979508 -0.0181139 0)
(0.971641 -0.00974073 0)
(0.971336 -0.00445011 0)
(0.969544 0.000871926 0)
(0.967915 0.00801653 0)
(0.973224 0.0124672 0)
(0.977172 0.0156784 0)
(0.980361 0.0198944 0)
(0.983228 0.0212798 0)
(1.0002 -0.00335812 0)
(0.998351 -0.000707709 0)
(0.994558 -0.00673038 0)
(0.988966 0.000837596 0)
(0.994235 0.010171 0)
(1.00105 0.00571712 0)
(1.00661 0.00320195 0)
(1.00724 -0.00888012 0)
(0.999827 -0.0154126 0)
(0.990679 -0.0145354 0)
(0.987866 -0.0157257 0)
(0.979845 -0.0170411 0)
(0.972828 -0.00929704 0)
(0.972211 -0.00412153 0)
(0.970857 0.000930777 0)
(0.969195 0.00766451 0)
(0.974221 0.0120813 0)
(0.978257 0.0148768 0)
(0.981217 0.0188269 0)
(0.983712 0.0204143 0)
(1.00026 -0.00314553 0)
(0.998492 -0.000937219 0)
(0.994282 -0.00613706 0)
(0.989203 0.000671875 0)
(0.994552 0.00977486 0)
(1.00132 0.00538012 0)
(1.00627 0.00272848 0)
(1.00677 -0.00828259 0)
(0.999785 -0.0148224 0)
(0.990702 -0.0138573 0)
(0.987965 -0.0150561 0)
(0.980231 -0.0160217 0)
(0.973995 -0.00884662 0)
(0.973112 -0.00381179 0)
(0.972134 0.000999929 0)
(0.970482 0.00730867 0)
(0.97518 0.0116631 0)
(0.979291 0.0141227 0)
(0.982079 0.0177436 0)
(0.984204 0.0195195 0)
(1.00031 -0.002932 0)
(0.998629 -0.00115831 0)
(0.994103 -0.00553786 0)
(0.989476 0.000504957 0)
(0.99481 0.00933427 0)
(1.00147 0.00507239 0)
(1.00594 0.00227017 0)
(1.00626 -0.00771066 0)
(0.999746 -0.0141855 0)
(0.990801 -0.0132058 0)
(0.988094 -0.014347 0)
(0.980684 -0.0150393 0)
(0.975138 -0.00839079 0)
(0.974044 -0.00352452 0)
(0.973369 0.00105109 0)
(0.971759 0.00694749 0)
(0.976107 0.011216 0)
(0.980256 0.0134094 0)
(0.982934 0.0166624 0)
(0.984711 0.0185819 0)
(1.00032 -0.00271754 0)
(0.998754 -0.00136777 0)
(0.994027 -0.00495049 0)
(0.989812 0.000350266 0)
(0.995032 0.00884667 0)
(1.00151 0.00479953 0)
(1.00559 0.00183928 0)
(1.00573 -0.00716872 0)
(0.999698 -0.0135081 0)
(0.990955 -0.0125742 0)
(0.988255 -0.0136046 0)
(0.981211 -0.0140832 0)
(0.976265 -0.00793004 0)
(0.975009 -0.00323773 0)
(0.974567 0.00109778 0)
(0.973024 0.00659595 0)
(0.97701 0.0107539 0)
(0.981151 0.012733 0)
(0.983776 0.0156045 0)
(0.98525 0.0175698 0)
(1.00031 -0.00250367 0)
(0.99886 -0.00157049 0)
(0.994043 -0.00436967 0)
(0.990215 0.0002214 0)
(0.995244 0.00831802 0)
(1.00145 0.0045512 0)
(1.0052 0.00143489 0)
(1.00516 -0.00665988 0)
(0.99963 -0.0128012 0)
(0.991149 -0.0119556 0)
(0.988448 -0.0128426 0)
(0.981807 -0.0131426 0)
(0.977386 -0.00747676 0)
(0.97601 -0.00296709 0)
(0.975743 0.00114903 0)
(0.974278 0.0062561 0)
(0.977902 0.0102871 0)
(0.981982 0.0121079 0)
(0.984591 0.0146125 0)
(0.985828 0.0164853 0)
(1.00028 -0.00228845 0)
(0.998948 -0.00176344 0)
(0.994132 -0.0038159 0)
(0.990677 0.00012439 0)
(0.995463 0.00776448 0)
(1.00131 0.00431817 0)
(1.00478 0.00107112 0)
(1.00458 -0.00620202 0)
(0.999542 -0.0120707 0)
(0.99137 -0.0113382 0)
(0.988669 -0.0120882 0)
(0.982458 -0.0122295 0)
(0.978503 -0.00701232 0)
(0.977047 -0.0027065 0)
(0.976911 0.00117836 0)
(0.975527 0.00591731 0)
(0.978801 0.00980637 0)
(0.982765 0.0114954 0)
(0.98537 0.0137104 0)
(0.98644 0.015391 0)
(1.00024 -0.00207474 0)
(0.999023 -0.00194554 0)
(0.994274 -0.00329796 0)
(0.991182 6.82332e-05 0)
(0.995698 0.0071824 0)
(1.00112 0.00409949 0)
(1.00435 0.000762044 0)
(1.00401 -0.0057803 0)
(0.999442 -0.0113395 0)
(0.991607 -0.0107228 0)
(0.988912 -0.011326 0)
(0.983154 -0.0113583 0)
(0.979621 -0.00655472 0)
(0.978106 -0.00244648 0)
(0.978073 0.00122334 0)
(0.976774 0.00559139 0)
(0.97971 0.00932364 0)
(0.983523 0.0108813 0)
(0.98612 0.0128835 0)
(0.987072 0.0143383 0)
(1.00019 -0.00185971 0)
(0.999092 -0.00211781 0)
(0.994453 -0.0028393 0)
(0.991706 7.54503e-05 0)
(0.995947 0.00659869 0)
(1.00092 0.00388313 0)
(1.00392 0.000494541 0)
(1.00345 -0.00539085 0)
(0.999336 -0.0106001 0)
(0.991863 -0.0101248 0)
(0.989175 -0.0105626 0)
(0.983868 -0.0105032 0)
(0.980737 -0.00611803 0)
(0.979187 -0.00219899 0)
(0.979232 0.00126805 0)
(0.978013 0.00527166 0)
(0.980629 0.00884686 0)
(0.984263 0.0102838 0)
(0.986846 0.012083 0)
(0.987707 0.0133312 0)
(1.00015 -0.00165094 0)
(0.999162 -0.00226525 0)
(0.994659 -0.00243388 0)
(0.992233 0.000111902 0)
(0.996205 0.00601952 0)
(1.00071 0.00367669 0)
(1.0035 0.000285387 0)
(1.00293 -0.00505117 0)
(0.999232 -0.00987065 0)
(0.992132 -0.00951462 0)
(0.989462 -0.00982658 0)
(0.984592 -0.00967904 0)
(0.981844 -0.00568103 0)
(0.980272 -0.00195594 0)
(0.980378 0.0013071 0)
(0.979245 0.00497658 0)
(0.981561 0.0083919 0)
(0.984987 0.00972955 0)
(0.987546 0.0112946 0)
(0.988348 0.012339 0)
(1.0001 -0.00144429 0)
(0.999241 -0.00239949 0)
(0.994884 -0.00209492 0)
(0.992745 0.000212835 0)
(0.996468 0.00544876 0)
(1.00051 0.00345353 0)
(1.00308 0.000134294 0)
(1.00245 -0.00473134 0)
(0.999141 -0.00916772 0)
(0.992416 -0.00890125 0)
(0.989768 -0.00908942 0)
(0.985319 -0.00889641 0)
(0.982941 -0.00526854 0)
(0.981362 -0.00173002 0)
(0.981512 0.00135243 0)
(0.980467 0.00467403 0)
(0.982502 0.00795422 0)
(0.985687 0.00926638 0)
(0.988201 0.0106269 0)
(0.988945 0.0114657 0)
(1.00005 -0.00124493 0)
(0.999327 -0.00250449 0)
(0.995133 -0.00180582 0)
(0.993241 0.000318216 0)
(0.996725 0.00492775 0)
(1.00032 0.00321989 0)
(1.00269 1.58933e-05 0)
(1.00201 -0.00440771 0)
(0.999065 -0.00850106 0)
(0.992715 -0.00831261 0)
(0.990099 -0.00835412 0)
(0.986036 -0.00812644 0)
(0.984023 -0.00486937 0)
(0.98245 -0.00154086 0)
(0.98262 0.00137716 0)
(0.981674 0.00440198 0)
(0.983476 0.00749861 0)
(0.986397 0.00878962 0)
(0.988826 0.0100541 0)
(0.989508 0.0107191 0)
(1.00001 -0.00105494 0)
(0.999424 -0.00258291 0)
(0.995396 -0.00155976 0)
(0.993713 0.000452089 0)
(0.996978 0.00441011 0)
(1.00014 0.00299463 0)
(1.00232 -5.51103e-05 0)
(1.0016 -0.00412399 0)
(0.999005 -0.00783462 0)
(0.993033 -0.00771538 0)
(0.990454 -0.00767857 0)
(0.986746 -0.00738333 0)
(0.985082 -0.00447837 0)
(0.983535 -0.00136948 0)
(0.983721 0.0013737 0)
(0.982857 0.0040591 0)
(0.984437 0.0069547 0)
(0.987106 0.00822657 0)
(0.989422 0.00940874 0)
(0.990002 0.0100337 0)
(0.999968 -0.000877046 0)
(0.999525 -0.00262806 0)
(0.995684 -0.00136433 0)
(0.994163 0.000584682 0)
(0.997215 0.00396543 0)
(0.999989 0.00272761 0)
(1.00196 -8.57132e-05 0)
(1.00124 -0.00381085 0)
(0.998967 -0.00723492 0)
(0.993354 -0.00715278 0)
(0.990829 -0.00696617 0)
(0.987448 -0.0066699 0)
(0.986118 -0.00413938 0)
(0.984611 -0.00123325 0)
(0.984772 0.00135382 0)
(0.983998 0.00369981 0)
(0.985427 0.00635129 0)
(0.98784 0.00753833 0)
(0.990054 0.00856588 0)
(0.990582 0.00922136 0)
(0.999928 -0.000711555 0)
(0.999631 -0.00263241 0)
(0.995981 -0.00120269 0)
(0.994597 0.000691624 0)
(0.997442 0.00355348 0)
(0.999853 0.00249076 0)
(1.00165 -0.000124964 0)
(1.0009 -0.00350339 0)
(0.998934 -0.00662967 0)
(0.993711 -0.00659315 0)
(0.991229 -0.00635581 0)
(0.988116 -0.00597359 0)
(0.987122 -0.00375288 0)
(0.985691 -0.00114453 0)
(0.985819 0.00129837 0)
(0.985092 0.00338766 0)
(0.98636 0.00573736 0)
(0.988526 0.0069035 0)
(0.990668 0.00782332 0)
(0.991215 0.00841842 0)
(0.999891 -0.000560587 0)
(0.999733 -0.00259211 0)
(0.996297 -0.00109855 0)
(0.995012 0.000796889 0)
(0.997655 0.0032018 0)
(0.999737 0.00222467 0)
(1.00134 -0.000114672 0)
(1.00061 -0.0031968 0)
(0.998929 -0.00606412 0)
(0.994045 -0.00607481 0)
(0.991647 -0.00572711 0)
(0.988806 -0.00531023 0)
(0.988081 -0.00342979 0)
(0.986732 -0.00105993 0)
(0.986834 0.00124466 0)
(0.98614 0.00310233 0)
(0.987324 0.00532426 0)
(0.989279 0.00642119 0)
(0.991294 0.00737105 0)
(0.991877 0.00801295 0)
(0.999857 -0.000431558 0)
(0.99983 -0.00248728 0)
(0.996616 -0.00102908 0)
(0.995415 0.000843569 0)
(0.997846 0.00290153 0)
(0.99964 0.00199442 0)
(1.00109 -0.000113501 0)
(1.00032 -0.00289758 0)
(0.998922 -0.00549314 0)
(0.994433 -0.00557421 0)
(0.992095 -0.00515048 0)
(0.989434 -0.00468682 0)
(0.989003 -0.00308516 0)
(0.987788 -0.000979927 0)
(0.987845 0.00115496 0)
(0.987199 0.00286681 0)
(0.988254 0.00489334 0)
(0.989997 0.00592818 0)
(0.991975 0.00682622 0)
(0.992502 0.00743584 0)
(0.999825 -0.000316647 0)
(0.999918 -0.00234063 0)
(0.996937 -0.001001 0)
(0.995803 0.000860379 0)
(0.998032 0.00265999 0)
(0.999555 0.00178348 0)
(1.00084 -0.000125233 0)
(1.00009 -0.00256801 0)
(0.99894 -0.00494541 0)
(0.994775 -0.00509445 0)
(0.992558 -0.00462641 0)
(0.990104 -0.0040776 0)
(0.989873 -0.00273081 0)
(0.988772 -0.000928596 0)
(0.988833 0.00107943 0)
(0.988206 0.00264943 0)
(0.989197 0.00444769 0)
(0.990763 0.00544187 0)
(0.992609 0.00619162 0)
(0.993129 0.00677265 0)
(0.999796 -0.000222125 0)
(0.999992 -0.00216431 0)
(0.997249 -0.000980856 0)
(0.996191 0.00083343 0)
(0.998195 0.00246544 0)
(0.999478 0.00156441 0)
(1.00064 -8.12552e-05 0)
(0.999862 -0.00228437 0)
(0.998938 -0.00444373 0)
(0.995171 -0.00459573 0)
(0.993057 -0.00410973 0)
(0.990712 -0.00355673 0)
(0.990687 -0.00237309 0)
(0.989769 -0.00080619 0)
(0.989827 0.00104724 0)
(0.989202 0.00250678 0)
(0.990089 0.00418203 0)
(0.991456 0.0050468 0)
(0.993277 0.00573469 0)
(0.993803 0.00634568 0)
(0.999769 -0.000140272 0)
(1.00005 -0.00197577 0)
(0.997553 -0.000948973 0)
(0.996561 0.000774859 0)
(0.998349 0.00226898 0)
(0.999414 0.00143089 0)
(1.00044 -9.20045e-05 0)
(0.999685 -0.00202987 0)
(0.998984 -0.00387273 0)
(0.995518 -0.00414725 0)
(0.993537 -0.00368074 0)
(0.99137 -0.00302194 0)
(0.991488 -0.00196798 0)
(0.990688 -0.000681243 0)
(0.990784 0.000995262 0)
(0.990188 0.00239248 0)
(0.990988 0.00388541 0)
(0.992179 0.00471284 0)
(0.993924 0.00528105 0)
(0.994377 0.00577395 0)
(0.999744 -7.26455e-05 0)
(1.0001 -0.0017814 0)
(0.997833 -0.00090603 0)
(0.996928 0.000684098 0)
(0.998498 0.00212246 0)
(0.999346 0.00129456 0)
(1.00029 -6.59789e-05 0)
(0.999537 -0.00172958 0)
(0.998996 -0.0034208 0)
(0.995883 -0.00370516 0)
(0.994074 -0.0031762 0)
(0.991993 -0.00254924 0)
(0.992211 -0.00165288 0)
(0.991589 -0.000548096 0)
(0.991754 0.000979698 0)
(0.991149 0.00224203 0)
(0.99184 0.00356774 0)
(0.992834 0.00435225 0)
(0.994507 0.00475504 0)
(0.994964 0.00515271 0)
(0.99972 -1.47257e-05 0)
(1.00014 -0.00159402 0)
(0.998097 -0.00082892 0)
(0.997279 0.000583321 0)
(0.998638 0.00193977 0)
(0.99929 0.00121072 0)
(1.00015 -8.30662e-06 0)
(0.99941 -0.00151427 0)
(0.999052 -0.00294605 0)
(0.996244 -0.00321561 0)
(0.99457 -0.0027798 0)
(0.992614 -0.00213636 0)
(0.992938 -0.00128654 0)
(0.992441 -0.000378596 0)
(0.992656 0.000908186 0)
(0.992067 0.00206163 0)
(0.992698 0.00325639 0)
(0.993487 0.00398863 0)
(0.995044 0.00434639 0)
(0.995566 0.00461538 0)
(0.999698 3.31611e-05 0)
(1.00017 -0.00141412 0)
(0.998332 -0.000724435 0)
(0.997613 0.000453375 0)
(0.998784 0.00177529 0)
(0.999242 0.00115258 0)
(1.00002 4.86173e-05 0)
(0.999319 -0.00126974 0)
(0.999103 -0.00250514 0)
(0.996583 -0.0028168 0)
(0.995098 -0.00235599 0)
(0.993245 -0.00169626 0)
(0.993603 -0.000986224 0)
(0.993219 -0.000250221 0)
(0.993538 0.000852335 0)
(0.992976 0.00191679 0)
(0.993512 0.00295879 0)
(0.994123 0.00361394 0)
(0.995549 0.00401636 0)
(0.996152 0.004128 0)
(0.999677 7.40062e-05 0)
(1.00019 -0.00125138 0)
(0.998543 -0.000601796 0)
(0.997928 0.000344106 0)
(0.998931 0.001592 0)
(0.999205 0.00109504 0)
(0.999907 0.000148557 0)
(0.999244 -0.00102871 0)
(0.99917 -0.0021165 0)
(0.996935 -0.00239089 0)
(0.995614 -0.00195302 0)
(0.993837 -0.00135419 0)
(0.99424 -0.000717623 0)
(0.993967 -9.12183e-05 0)
(0.994367 0.00082464 0)
(0.993828 0.00172993 0)
(0.9943 0.00267517 0)
(0.994792 0.00327404 0)
(0.996032 0.00369403 0)
(0.996652 0.00369682 0)
(0.999656 0.000109874 0)
(1.00021 -0.00110348 0)
(0.998728 -0.000464697 0)
(0.998214 0.00024542 0)
(0.999083 0.0014013 0)
(0.999192 0.00104875 0)
(0.999815 0.000265851 0)
(0.999187 -0.000787357 0)
(0.999243 -0.00174081 0)
(0.997268 -0.00201873 0)
(0.996121 -0.00162015 0)
(0.994437 -0.00100877 0)
(0.994854 -0.000441248 0)
(0.99465 4.52632e-05 0)
(0.995132 0.000779127 0)
(0.994657 0.00155289 0)
(0.995073 0.00242592 0)
(0.995434 0.00293541 0)
(0.996489 0.0033392 0)
(0.997097 0.00335122 0)
(0.999638 0.00014311 0)
(1.00023 -0.000973134 0)
(0.99889 -0.000329081 0)
(0.998473 0.000183733 0)
(0.999238 0.0012198 0)
(0.999201 0.000990191 0)
(0.999741 0.000389487 0)
(0.999144 -0.000544885 0)
(0.999321 -0.00138611 0)
(0.997599 -0.00167813 0)
(0.996634 -0.00129625 0)
(0.995018 -0.000701491 0)
(0.995421 -0.000211157 0)
(0.995281 0.000167583 0)
(0.995848 0.000762804 0)
(0.995442 0.00140188 0)
(0.995803 0.00216622 0)
(0.996067 0.00261203 0)
(0.99698 0.00300204 0)
(0.997496 0.0030652 0)
(0.99962 0.000173728 0)
(1.00025 -0.000858464 0)
(0.999035 -0.000195444 0)
(0.9987 0.000157136 0)
(0.999389 0.00104468 0)
(0.99924 0.000918032 0)
(0.999697 0.000519549 0)
(0.999116 -0.000295378 0)
(0.999397 -0.00104639 0)
(0.997913 -0.00135633 0)
(0.997134 -0.00103537 0)
(0.995588 -0.000457106 0)
(0.995968 6.18187e-06 0)
(0.995869 0.00029779 0)
(0.996503 0.000754066 0)
(0.996175 0.00125496 0)
(0.996505 0.00192164 0)
(0.996682 0.00232119 0)
(0.997474 0.00265751 0)
(0.997856 0.00277176 0)
(0.999604 0.000202066 0)
(1.00027 -0.000755818 0)
(0.999165 -7.35629e-05 0)
(0.998898 0.000162783 0)
(0.999535 0.000903728 0)
(0.999308 0.000838681 0)
(0.999683 0.000632907 0)
(0.999101 -6.37552e-05 0)
(0.999473 -0.000731797 0)
(0.998208 -0.00105283 0)
(0.997626 -0.000805158 0)
(0.996159 -0.000250407 0)
(0.996491 0.000199013 0)
(0.996404 0.000416712 0)
(0.997095 0.00075207 0)
(0.996856 0.00112212 0)
(0.997174 0.00168811 0)
(0.997267 0.00205196 0)
(0.997975 0.00232584 0)
(0.998232 0.002477 0)
(0.999589 0.000227218 0)
(1.00029 -0.000660972 0)
(0.999286 3.59342e-05 0)
(0.99907 0.000195332 0)
(0.999668 0.000805795 0)
(0.999402 0.000753526 0)
(0.999705 0.000720556 0)
(0.999105 0.000153227 0)
(0.999549 -0.000432407 0)
(0.998483 -0.000765295 0)
(0.998095 -0.000597213 0)
(0.996723 -0.000100075 0)
(0.997001 0.000347753 0)
(0.996901 0.000524241 0)
(0.997628 0.000766275 0)
(0.997476 0.00101812 0)
(0.997813 0.00146773 0)
(0.99783 0.00180503 0)
(0.998461 0.00202884 0)
(0.99863 0.00216719 0)
(0.999576 0.000248631 0)
(1.0003 -0.000569157 0)
(0.9994 0.000129564 0)
(0.99922 0.000238939 0)
(0.999787 0.000762064 0)
(0.999512 0.000676217 0)
(0.999762 0.000771686 0)
(0.999131 0.000347962 0)
(0.999626 -0.000157969 0)
(0.998733 -0.000495993 0)
(0.998537 -0.000407273 0)
(0.997279 1.056e-05 0)
(0.997507 0.000452755 0)
(0.997369 0.000611172 0)
(0.998108 0.000782031 0)
(0.998029 0.000942051 0)
(0.998408 0.00126885 0)
(0.998371 0.00155656 0)
(0.99892 0.00176237 0)
(0.999035 0.00186275 0)
(0.999565 0.000266454 0)
(1.00032 -0.000479594 0)
(0.999508 0.000210503 0)
(0.999358 0.0002857 0)
(0.999889 0.000759584 0)
(0.999628 0.000616737 0)
(0.999856 0.000788729 0)
(0.999185 0.000510214 0)
(0.999707 8.84366e-05 0)
(0.998962 -0.000242237 0)
(0.998944 -0.000225192 0)
(0.997815 9.05904e-05 0)
(0.998009 0.000509357 0)
(0.997817 0.000672797 0)
(0.998547 0.000791403 0)
(0.998521 0.000882879 0)
(0.998943 0.0011091 0)
(0.998895 0.00132125 0)
(0.999364 0.00151577 0)
(0.999428 0.00159415 0)
(0.999556 0.000280249 0)
(1.00034 -0.000392389 0)
(0.99961 0.000285572 0)
(0.999485 0.00032615 0)
(0.999979 0.000782221 0)
(0.999742 0.00059029 0)
(0.999978 0.000785498 0)
(0.999271 0.000635432 0)