/*--------------------------------*- C++ -*----------------------------------*\
| =========                 |                                                 |
| \\      /  F ield         | OpenFOAM: The Open Source CFD Toolbox           |
|  \\    /   O peration     | Version:  v1912                                 |
|   \\  /    A nd           | Website:  www.openfoam.com                      |
|    \\/     M anipulation  |                                                 |
\*---------------------------------------------------------------------------*/
FoamFile
{
    version     2.0;
    format      ascii;
    class       volScalarField;
    location    "5.65";
    object      p;
}
// * * * * * * * * * * * * * * * * * * * * * * * * * * * * * * * * * * * * * //

dimensions      [0 2 -2 0 0 0 0];


internalField   nonuniform List<scalar> 
9600
(
-1.00654e-10
0.000430257
0.00160773
0.000302153
-0.00070453
-0.000791253
0.00145623
0.000987742
0.00170545
0.00208375
0.000700017
-0.00287055
-0.00627699
-0.00444362
-0.00712922
-0.00611412
-0.00705419
-0.00589495
-0.00738417
-0.0068
-2.1632e-06
0.000427873
0.00161161
0.000294943
-0.000688926
-0.000780184
0.00143573
0.000980148
0.00171686
0.00204088
0.000716293
-0.00290408
-0.00624449
-0.00443292
-0.00710711
-0.00609387
-0.0070339
-0.00590558
-0.00734733
-0.00683697
-4.94445e-06
0.000424902
0.00161537
0.000286199
-0.000668098
-0.000768587
0.00140768
0.000975186
0.00171536
0.0019773
0.000718172
-0.0029354
-0.0062034
-0.00442643
-0.00706035
-0.00608721
-0.00699504
-0.00593059
-0.00732906
-0.00687321
-7.81204e-06
0.000421216
0.00161664
0.000275274
-0.000646489
-0.000759148
0.00137922
0.000969142
0.00170139
0.00188751
0.000704522
-0.00296023
-0.00615439
-0.00442366
-0.00699339
-0.00609863
-0.00694868
-0.00597611
-0.00731487
-0.00692515
-1.08703e-05
0.000416512
0.00161534
0.000261577
-0.000623298
-0.000750503
0.00134988
0.000960635
0.00167973
0.00177888
0.000684517
-0.00297484
-0.00609758
-0.00442494
-0.00691776
-0.0061228
-0.00690559
-0.00602937
-0.0073043
-0.0070004
-1.42045e-05
0.000410864
0.00161157
0.000245414
-0.000597601
-0.000742646
0.00131929
0.000949763
0.00165325
0.00165925
0.000662437
-0.00298108
-0.00603578
-0.00443014
-0.00683894
-0.00615218
-0.00686878
-0.00607911
-0.00730446
-0.00709271
-1.78272e-05
0.000404326
0.00160555
0.000227684
-0.000569594
-0.000735384
0.00128807
0.000936222
0.00162395
0.00153483
0.000641275
-0.00298136
-0.00596973
-0.0044372
-0.00675827
-0.00618177
-0.00683575
-0.00612419
-0.00731953
-0.0071945
-2.17421e-05
0.000396854
0.00159777
0.000209223
-0.000539773
-0.000727898
0.00125664
0.000919804
0.00159273
0.00140888
0.000622579
-0.00297669
-0.00589896
-0.00444434
-0.00667658
-0.00620818
-0.00680588
-0.00616675
-0.00734501
-0.00730044
-2.59668e-05
0.00038837
0.00158881
0.000190577
-0.000508568
-0.000719306
0.00122528
0.000900496
0.00155981
0.00128289
0.000606671
-0.00296654
-0.00582315
-0.00445004
-0.00659468
-0.0062293
-0.00678126
-0.00620542
-0.00737418
-0.00741402
-3.05326e-05
0.000378833
0.00157924
0.000172038
-0.000476404
-0.00070912
0.00119403
0.000878257
0.00152544
0.00115757
0.00059304
-0.00295031
-0.0057429
-0.0044528
-0.00651388
-0.00624426
-0.00676113
-0.00623626
-0.0074059
-0.00754026
-3.54731e-05
0.000368305
0.00156958
0.000153657
-0.000443797
-0.000697402
0.00116248
0.000852967
0.00149016
0.00103345
0.000580344
-0.00292827
-0.00565928
-0.00445142
-0.00643627
-0.00625223
-0.00674279
-0.00622357
-0.00744198
-0.00767843
-4.08199e-05
0.000356988
0.00156037
0.000135295
-0.000411331
-0.000684552
0.00112993
0.000824656
0.00145474
0.000910597
0.00056653
-0.00290153
-0.00557381
-0.00444521
-0.0063637
-0.00625243
-0.0067256
-0.00624543
-0.00748034
-0.0078233
-4.65933e-05
0.000345194
0.00155204
0.000116721
-0.000379533
-0.000671004
0.0010957
0.000793843
0.0014199
0.000788378
0.000549512
-0.00287143
-0.00548828
-0.00443376
-0.00629731
-0.00624528
-0.00670959
-0.00626638
-0.00750443
-0.00797111
-5.27966e-05
0.000333262
0.00154489
9.76956e-05
-0.000348745
-0.000656995
0.00105934
0.000761542
0.00138595
0.000665788
0.000527604
-0.00283926
-0.00540417
-0.00441639
-0.00623811
-0.00623182
-0.00669378
-0.00628861
-0.00751589
-0.00811998
-5.94159e-05
0.000321467
0.00153895
7.80204e-05
-0.000319094
-0.000642554
0.00102065
0.000728902
0.00135268
0.00054189
0.00049974
-0.00280582
-0.00532272
-0.00439233
-0.00618667
-0.00621298
-0.00667633
-0.00631559
-0.00751404
-0.00826677
-6.64248e-05
0.000309936
0.00153402
5.75773e-05
-0.000290556
-0.000627577
0.00097959
0.000696836
0.00131935
0.00041639
0.000465274
-0.00277123
-0.00524491
-0.00436096
-0.00614269
-0.00619026
-0.00665481
-0.00635104
-0.00749887
-0.00840555
-7.37915e-05
0.00029864
0.00152979
3.63439e-05
-0.000263096
-0.000611902
0.000936183
0.000665776
0.00128474
0.000289905
0.0004237
-0.00273527
-0.00517127
-0.00432183
-0.00610524
-0.00616618
-0.00662652
-0.00639734
-0.00747196
-0.00853108
-8.14811e-05
0.000287438
0.00152587
1.43758e-05
-0.000236661
-0.000595396
0.000890426
0.000635694
0.00124751
0.000163752
0.000374672
-0.00269749
-0.00510224
-0.00427521
-0.00607271
-0.00614368
-0.00658851
-0.00645473
-0.00743693
-0.0086323
-8.9456e-05
0.000276139
0.00152195
-8.23226e-06
-0.000211242
-0.000577959
0.000842237
0.000606359
0.00120632
3.95339e-05
0.000318054
-0.00265749
-0.00503826
-0.00422181
-0.00604266
-0.00612631
-0.00653789
-0.00652144
-0.00740015
-0.00870486
-9.76748e-05
0.000264551
0.00151775
-3.13549e-05
-0.00018696
-0.000559512
0.000791423
0.000577553
0.00116009
-8.13283e-05
0.000253896
-0.00261509
-0.00497957
-0.00416265
-0.00601225
-0.00611807
-0.00647312
-0.00659405
-0.00736874
-0.00874629
-0.000106084
0.000252502
0.00151308
-5.48578e-05
-0.000164011
-0.000539989
0.000737738
0.000549173
0.00110799
-0.000197742
0.000182035
-0.0025702
-0.004926
-0.00409958
-0.00597819
-0.00612241
-0.00639466
-0.00666698
-0.0073491
-0.00875396
-0.000114615
0.000239833
0.00150777
-7.86072e-05
-0.000142627
-0.00051931
0.000680933
0.000521243
0.00104943
-0.000308933
0.000101052
-0.00252313
-0.00487692
-0.00403475
-0.00593663
-0.00614177
-0.00630517
-0.00673339
-0.00734708
-0.00872806
-0.000123189
0.000226387
0.00150168
-0.000102418
-0.000123089
-0.000497402
0.000620765
0.000493887
0.000983994
-0.000414622
1.37155e-05
-0.00247461
-0.00483156
-0.00397057
-0.00588403
-0.00617713
-0.00620962
-0.00678503
-0.00736602
-0.00867318
-0.000131714
0.000212013
0.00149466
-0.000126085
-0.000105683
-0.000474151
0.000556975
0.000467239
0.00091145
-0.000514959
-7.98347e-05
-0.00242564
-0.00478886
-0.00390977
-0.00581798
-0.00622778
-0.00611427
-0.00681332
-0.00740626
-0.0085308
-0.000140087
0.000196539
0.0014866
-0.000149373
-9.07148e-05
-0.000449362
0.000489302
0.000441334
0.00083181
-0.000610375
-0.000178588
-0.00237726
-0.00474747
-0.00385494
-0.00573722
-0.00629111
-0.00602655
-0.00681166
-0.00746669
-0.00843437
-0.000148187
0.000179754
0.00147737
-0.000171908
-7.85322e-05
-0.000422912
0.00041759
0.000415969
0.000745328
-0.000701483
-0.000280706
-0.0023307
-0.00470671
-0.00380823
-0.00564087
-0.00636293
-0.0059545
-0.00677566
-0.00753963
-0.00834386
-0.00015587
0.000161456
0.00146678
-0.000193272
-6.95241e-05
-0.000394651
0.000341832
0.000390653
0.000652805
-0.000789259
-0.000384027
-0.00228693
-0.00466629
-0.00377146
-0.00552886
-0.0064378
-0.005905
-0.00670424
-0.00761404
-0.00827409
-0.000162992
0.000141449
0.00145468
-0.000213078
-6.40619e-05
-0.000364254
0.000262043
0.000364818
0.000555647
-0.000875384
-0.000486889
-0.00224633
-0.00462553
-0.00374603
-0.00540265
-0.00650951
-0.00588325
-0.00660112
-0.00767733
-0.00823486
-0.000169409
0.00011952
0.00144083
-0.000230851
-6.24918e-05
-0.000331581
0.000178442
0.00033771
0.000455508
-0.000961564
-0.000588064
-0.00220877
-0.00458407
-0.00373258
-0.0052646
-0.00657203
-0.00589226
-0.00647373
-0.00771477
-0.00823252
-0.00017494
9.54681e-05
0.00142492
-0.000246082
-6.52546e-05
-0.000296584
9.16003e-05
0.000308058
0.000354479
-0.00104917
-0.000686433
-0.0021738
-0.00454231
-0.00373139
-0.00511738
-0.00661911
-0.00593234
-0.00633312
-0.00771215
-0.00826419
-0.000179424
6.91256e-05
0.00140668
-0.000258329
-7.27584e-05
-0.000259211
2.33457e-06
0.000274137
0.000255114
-0.00113932
-0.000781882
-0.00214014
-0.00450073
-0.00374315
-0.00496393
-0.00664424
-0.00600101
-0.00619296
-0.00765874
-0.00831723
-0.000182673
4.03583e-05
0.00138572
-0.000267067
-8.55733e-05
-0.000219728
-8.81034e-05
0.000233972
0.000159807
-0.00123217
-0.0008758
-0.00210587
-0.00445877
-0.00376863
-0.00480795
-0.00664201
-0.00609308
-0.0060666
-0.00754968
-0.0083707
-0.000184483
9.06987e-06
0.00136156
-0.000271633
-0.00010453
-0.000178701
-0.000178133
0.00018569
7.03565e-05
-0.00132741
-0.000970235
-0.0020696
-0.00441515
-0.00380851
-0.00465392
-0.00660827
-0.00620102
-0.00596592
-0.00738892
-0.00840578
-0.000184696
-2.47236e-05
0.00133352
-0.000271503
-0.000129684
-0.000136947
-0.000265964
0.000127608
-1.22803e-05
-0.0014242
-0.00106758
-0.00203053
-0.00436818
-0.00386315
-0.00450641
-0.0065392
-0.00631598
-0.00590059
-0.00718896
-0.00839873
-0.000183136
-6.09032e-05
0.00130073
-0.000266425
-0.000161505
-9.54486e-05
-0.000349475
5.81049e-05
-8.81815e-05
-0.00152021
-0.00117077
-0.00198899
-0.00431503
-0.0039323
-0.00437088
-0.00643235
-0.00642689
-0.00587644
-0.00696911
-0.00832109
-0.000179661
-9.92241e-05
0.00126219
-0.000256288
-0.000201246
-5.54195e-05
-0.000426346
-2.3857e-05
-0.00015816
-0.00161281
-0.00128214
-0.00194624
-0.00425177
-0.00401445
-0.00425451
-0.00628868
-0.0065219
-0.00589192
-0.00675091
-0.00816076
-0.000174161
-0.000139158
0.0012167
-0.000241225
-0.000289062
-1.85901e-05
-0.000494289
-0.000118277
-0.000223891
-0.00169917
-0.00140343
-0.0019048
-0.00417474
-0.00410671
-0.00416352
-0.00611206
-0.00659079
-0.00594003
-0.00654391
-0.00792912
-0.00016685
-0.000180011
0.001163
-0.000221144
-0.000335517
1.32333e-05
-0.000551325
-0.000224312
-0.000288256
-0.00177551
-0.00153427
-0.0018693
-0.00408174
-0.00420476
-0.00410258
-0.00590913
-0.00662458
-0.00601063
-0.0063704
-0.00764964
-0.000157713
-0.00022101
0.00109986
-0.000196663
-0.000383108
3.80037e-05
-0.00059594
-0.000340366
-0.00035434
-0.0018396
-0.00167346
-0.00184469
-0.00397106
-0.0043018
-0.00407636
-0.00568992
-0.00661556
-0.00609036
-0.0062431
-0.00735031
-0.000146882
-0.000261348
0.00102652
-0.000168869
-0.000430888
5.37074e-05
-0.000627066
-0.000463938
-0.000425753
-0.00188877
-0.00181846
-0.00183731
-0.00384388
-0.00438968
-0.00408838
-0.00546656
-0.0065567
-0.00616372
-0.0061557
-0.00706206
-0.000134575
-0.000300494
0.000942577
-0.000139114
-0.000476927
5.87551e-05
-0.00064457
-0.000591404
-0.000506101
-0.00192299
-0.00196446
-0.00185141
-0.00370395
-0.00446031
-0.00413812
-0.00525648
-0.00644523
-0.00621467
-0.00609017
-0.00679839
-0.000120979
-0.000337907
0.000848204
-0.000108969
-0.000519573
5.18683e-05
-0.000649281
-0.000718683
-0.000597609
-0.00194418
-0.00210618
-0.00188986
-0.00355865
-0.00450668
-0.00421719
-0.00507501
-0.00630222
-0.00623272
-0.00600657
-0.0065375
-0.00010686
-0.000372592
0.00074408
-8.0498e-05
-0.000557087
3.21922e-05
-0.000642782
-0.000840996
-0.000702026
-0.0019389
-0.00223706
-0.00195233
-0.00341504
-0.00452651
-0.00432075
-0.00492645
-0.00613086
-0.00623809
-0.00593264
-0.00624264
-9.29067e-05
-0.000403633
0.000632297
-5.70041e-05
-0.000588931
1.6965e-07
-0.000627662
-0.000953252
-0.000818983
-0.0019439
-0.00235288
-0.00203704
-0.00327721
-0.00450969
-0.00444497
-0.00482051
-0.00589274
-0.00615041
-0.00584856
-0.00605098
-8.04589e-05
-0.000429599
0.000514965
-4.08933e-05
-0.000615072
-4.3766e-05
-0.000607017
-0.00105163
-0.000946447
-0.00194857
-0.00245057
-0.00214143
-0.00315502
-0.00444028
-0.00452577
-0.00474037
-0.00567724
-0.00609747
-0.00588485
-0.00595931
-7.0805e-05
-0.000449455
0.000394953
-3.51304e-05
-0.000635918
-9.81679e-05
-0.000584697
-0.00113256
-0.00108085
-0.00195866
-0.00252785
-0.00225402
-0.00305081
-0.00432793
-0.00456977
-0.00468398
-0.00547033
-0.005987
-0.0059133
-0.00598176
-6.44266e-05
-0.000462961
0.000275427
-4.21982e-05
-0.000653056
-0.000161277
-0.000563975
-0.00119407
-0.00121685
-0.00197813
-0.00258501
-0.00236598
-0.00296414
-0.00420159
-0.00463778
-0.00472011
-0.00532753
-0.0058774
-0.00589772
-0.00583763
-6.20294e-05
-0.000469973
0.000157998
-6.15016e-05
-0.000668142
-0.000231806
-0.000547817
-0.0012351
-0.0013488
-0.00200859
-0.00262501
-0.00247411
-0.00290912
-0.00404893
-0.00461389
-0.00471917
-0.0051859
-0.00573305
-0.00591174
-0.00590587
-6.34811e-05
-0.000472111
4.61384e-05
-9.41211e-05
-0.000675757
-0.000307945
-0.000539364
-0.00125567
-0.00147086
-0.00205008
-0.00265341
-0.00257417
-0.00288323
-0.00390621
-0.00457685
-0.00475431
-0.00511811
-0.00566558
-0.00590543
-0.00591227
-6.87944e-05
-0.000470668
-5.8372e-05
-0.000137833
-0.000692647
-0.000389706
-0.000540434
-0.00125848
-0.00157838
-0.0021011
-0.00267498
-0.00266551
-0.00288742
-0.00378581
-0.00452061
-0.00477031
-0.00504984
-0.00551493
-0.00580894
-0.00586673
-7.78511e-05
-0.000467346
-0.000153902
-0.000190074
-0.000714417
-0.000476232
-0.000553102
-0.00124744
-0.00166706
-0.00215965
-0.00269653
-0.00274722
-0.00291623
-0.0036843
-0.00443661
-0.00476054
-0.0050186
-0.00540357
-0.00569252
-0.00579088
-9.00952e-05
-0.000463768
-0.000239623
-0.000249129
-0.00074003
-0.000566551
-0.000579623
-0.0012267
-0.00173484
-0.00222266
-0.00271803
-0.0028182
-0.00295049
-0.00359806
-0.00434193
-0.00473693
-0.00497943
-0.00530062
-0.00557306
-0.00567953
-0.000105292
-0.000460979
-0.00031668
-0.000310392
-0.000769934
-0.000661352
-0.000621553
-0.00120232
-0.00178124
-0.00228466
-0.0027479
-0.00287791
-0.00298951
-0.00353132
-0.00424177
-0.00468973
-0.0049384
-0.00520518
-0.00545941
-0.00555469
-0.000122851
-0.000460154
-0.000384828
-0.000372486
-0.000803674
-0.000758922
-0.000680258
-0.00118012
-0.00180562
-0.00234063
-0.0027811
-0.00292717
-0.0030249
-0.00347859
-0.00413928
-0.00462474
-0.00489657
-0.00511616
-0.0053438
-0.00543883
-0.000142358
-0.000461407
-0.000447297
-0.000434086
-0.000837598
-0.000857462
-0.000757185
-0.00116653
-0.00181016
-0.00238509
-0.00281554
-0.0029688
-0.00305556
-0.00343607
-0.00404162
-0.00454228
-0.00484664
-0.0050383
-0.0052265
-0.00533194
-0.000163585
-0.000465004
-0.000504366
-0.00049405
-0.000870842
-0.000955117
-0.000852273
-0.00116792
-0.00179805
-0.00241141
-0.00284826
-0.00300873
-0.00308392
-0.00339918
-0.00394585
-0.00444498
-0.00478357
-0.00497501
-0.00511208
-0.00521457
-0.00018635
-0.000470756
-0.000557147
-0.000553473
-0.000901626
-0.00104741
-0.000964184
-0.00119034
-0.00177626
-0.00241641
-0.0028735
-0.00304695
-0.00311026
-0.00336431
-0.00385222
-0.0043406
-0.00470302
-0.0049134
-0.00500873
-0.00508343
-0.000210599
-0.000478516
-0.000606307
-0.000613184
-0.000929419
-0.00113011
-0.00108997
-0.0012389
-0.00175318
-0.00239919
-0.00288347
-0.00308022
-0.00313933
-0.00333794
-0.00376394
-0.00422949
-0.00459847
-0.00483958
-0.00492517
-0.00495451
-0.000236564
-0.000488178
-0.000651976
-0.000674734
-0.000955703
-0.00119964
-0.00121894
-0.00131448
-0.00173817
-0.00236189
-0.00287592
-0.00310634
-0.00317065
-0.00332207
-0.00367904
-0.00411106
-0.00447721
-0.00474553
-0.00485346
-0.00484311
-0.000264104
-0.000500075
-0.000694439
-0.000738121
-0.000985352
-0.00125569
-0.00134067
-0.00141107
-0.00173884
-0.00231184
-0.00284859
-0.00312152
-0.00320157
-0.00331732
-0.00360591
-0.00399446
-0.00435028
-0.00462568
-0.00476771
-0.00474756
-0.000293259
-0.0005148
-0.000734128
-0.000802433
-0.00102118
-0.00129989
-0.00144682
-0.00151813
-0.00176057
-0.00226073
-0.00280159
-0.00312046
-0.00322828
-0.00332248
-0.00355053
-0.00388388
-0.00422051
-0.00448999
-0.00465312
-0.00465753
-0.000324219
-0.000532654
-0.000771459
-0.000866454
-0.00106289
-0.00133595
-0.00153343
-0.00162637
-0.00180402
-0.0022195
-0.00273958
-0.00309782
-0.00324373
-0.00333153
-0.00351165
-0.00378517
-0.00409289
-0.00435401
-0.00451882
-0.00455189
-0.000357053
-0.00055398
-0.000806709
-0.000928395
-0.00110961
-0.00136923
-0.001602
-0.00172595
-0.00186603
-0.00219563
-0.00267046
-0.00305412
-0.00324187
-0.00333742
-0.00348686
-0.00370409
-0.00397008
-0.00422403
-0.00437904
-0.00442022
-0.000391695
-0.000578878
-0.000840284
-0.000987097
-0.00116021
-0.0014031
-0.00165522
-0.00181049
-0.00193785
-0.00219346
-0.00260337
-0.00299241
-0.00322116
-0.00333321
-0.00346727
-0.00364291
-0.00385778
-0.00409625
-0.00424641
-0.00427702
-0.00042782
-0.000607266
-0.000873019
-0.00104184
-0.00121324
-0.00143911
-0.00169773
-0.00187812
-0.00200849
-0.00221111
-0.00254896
-0.00291842
-0.00318135
-0.00331657
-0.00344401
-0.00359515
-0.00376153
-0.00397
-0.00412202
-0.00413932
-0.000465204
-0.000638886
-0.000905762
-0.00109213
-0.00126707
-0.00147807
-0.00173457
-0.00193074
-0.0020697
-0.0022423
-0.00251416
-0.00284206
-0.00312297
-0.0032865
-0.00341325
-0.00355123
-0.00368356
-0.00385071
-0.00399881
-0.00401276
-0.000503557
-0.000673338
-0.000939411
-0.00113832
-0.0013197
-0.00151965
-0.00176873
-0.00197093
-0.00211952
-0.00227694
-0.00249605
-0.00277449
-0.00305188
-0.00324072
-0.00337375
-0.00350432
-0.00361869
-0.00374557
-0.00387565
-0.00389323
-0.000542723
-0.000709944
-0.000974627
-0.001181
-0.00136958
-0.00156332
-0.00180256
-0.00200183
-0.00215758
-0.00230972
-0.00249029
-0.00272057
-0.00297715
-0.00317932
-0.00332382
-0.00345112
-0.00355805
-0.00365557
-0.00375732
-0.0037763
-0.00058245
-0.000748059
-0.00101142
-0.00122122
-0.0014161
-0.00160788
-0.00183769
-0.00202801
-0.00218485
-0.00233606
-0.00249099
-0.00267913
-0.00290763
-0.00310821
-0.00326216
-0.00338958
-0.00349421
-0.00357601
-0.00364894
-0.00366073
-0.000622773
-0.000787046
-0.00104961
-0.00126033
-0.00145957
-0.00165156
-0.00187364
-0.00205397
-0.00220503
-0.00235351
-0.00249313
-0.00264661
-0.00284443
-0.00303423
-0.00318977
-0.00331876
-0.00342311
-0.00349949
-0.00355125
-0.00354871
-0.000663312
-0.000826404
-0.00108851
-0.00129918
-0.00150103
-0.00169426
-0.00190965
-0.00208057
-0.00222271
-0.00236378
-0.00249336
-0.0026204
-0.00278697
-0.00296071
-0.00310939
-0.00323821
-0.00334244
-0.0034173
-0.00345648
-0.00343761
-0.000704021
-0.000866204
-0.00112776
-0.00133808
-0.00154106
-0.00173653
-0.00194681
-0.0021085
-0.00224036
-0.00236994
-0.00248872
-0.00259488
-0.00273293
-0.00288876
-0.00302587
-0.00315188
-0.00325868
-0.0033336
-0.00336413
-0.00332706
-0.000743831
-0.000905933
-0.00116683
-0.00137753
-0.00158131
-0.0017779
-0.00198503
-0.00213995
-0.00226065
-0.00237742
-0.00248257
-0.00256652
-0.00267579
-0.00280868
-0.00293217
-0.0030534
-0.00316799
-0.00325634
-0.00329302
-0.00324776
-0.000782526
-0.000944219
-0.00120472
-0.00141643
-0.00162375
-0.00182137
-0.00202435
-0.00217679
-0.00228584
-0.00238784
-0.00248387
-0.00254418
-0.00261834
-0.00271584
-0.00280522
-0.00290202
-0.0030086
-0.00311163
-0.00318497
-0.00318871
-0.00081974
-0.000985516
-0.00124297
-0.00145299
-0.00166521
-0.00186688
-0.0020675
-0.00221993
-0.00232074
-0.00240052
-0.00248962
-0.00254114
-0.00259429
-0.00267346
-0.0027324
-0.00278347
-0.00283547
-0.00286873
-0.00286405
-0.00280715
-0.000852587
-0.00101706
-0.00127982
-0.00149427
-0.0017103
-0.00191306
-0.00211413
-0.0022718
-0.00236911
-0.002414
-0.00244654
-0.00244361
-0.0024359
-0.0024759
-0.00254834
-0.00266073
-0.00282616
-0.00300788
-0.00314212
-0.00317913
-0.00088264
-0.00106421
-0.00132539
-0.00154049
-0.00176333
-0.00196928
-0.002175
-0.00235748
-0.00250343
-0.00260148
-0.00265166
-0.0025992
-0.00247428
-0.00234732
-0.00223077
-0.00210807
-0.00197563
-0.0018432
-0.00171089
-0.00160767
-0.000892325
-0.00105715
-0.00133237
-0.00155841
-0.00178978
-0.00201111
-0.00222048
-0.00238494
-0.00246764
-0.00246138
-0.00243372
-0.0023704
-0.0023134
-0.0023101
-0.00235054
-0.00245364
-0.00261308
-0.00279909
-0.00295736
-0.00303237
-0.000966071
-0.00115033
-0.00140136
-0.00159696
-0.00181897
-0.00204023
-0.00224864
-0.00241689
-0.0025033
-0.00247787
-0.00245854
-0.00244133
-0.00235614
-0.00225952
-0.00215445
-0.00200027
-0.00181077
-0.00163375
-0.00151637
-0.00147715
-0.000865663
-0.00104096
-0.00136124
-0.00165039
-0.00193753
-0.0022027
-0.00243065
-0.0025932
-0.00265351
-0.00256364
-0.00243696
-0.00233481
-0.00220757
-0.00209298
-0.00204488
-0.00204007
-0.0020508
-0.00204909
-0.00204616
-0.00207077
-0.00583068
-0.00807899
-0.0121862
-0.0168394
-0.0182303
-0.0171111
-0.0154745
-0.0136506
-0.0117668
-0.0101361
-0.00888288
-0.00799891
-0.00745187
-0.00703976
-0.00645027
-0.00559515
-0.00479255
-0.00427086
-0.00379263
-0.00316552
-0.0025033
-0.00193457
-0.00164975
-0.00202431
-0.00303378
-0.0038133
-0.00360029
-0.00248758
-0.00108826
-3.29636e-06
0.000612489
0.00098443
0.00126187
0.00145543
0.0016487
0.00193839
0.00231131
0.00273303
0.00311182
0.0034313
0.00380392
0.00421271
0.00464457
0.00516099
0.00570807
0.00615349
0.00655485
0.00698175
0.00744164
0.00796407
0.00852188
0.00903309
0.00951969
0.0100233
0.0105418
0.0110442
0.0115403
0.0120847
0.0126373
0.0131931
0.013774
0.0143958
0.015019
0.0156431
0.0162893
0.0169583
0.0176082
0.0182328
0.0188682
0.0195573
0.0202779
0.021032
0.0218527
0.0225958
0.0232387
0.0239222
0.0246891
0.0255579
0.0263925
0.0272166
0.0280402
0.0288935
0.0297493
0.0306279
0.0315439
0.0324565
0.0334026
0.0342991
0.0352497
0.0362449
0.0373054
0.0383203
0.0393656
0.0404044
0.0415117
0.042653
0.0437883
0.0450652
0.0459462
0.0469294
-0.00597466
-0.00814548
-0.0120885
-0.0166613
-0.0181218
-0.0170625
-0.0154497
-0.0136371
-0.0117584
-0.01013
-0.00887704
-0.00799256
-0.00744564
-0.00703456
-0.00644598
-0.00559077
-0.00478773
-0.00426639
-0.00378889
-0.00316216
-0.00250008
-0.00193118
-0.00164564
-0.0020199
-0.0030307
-0.00381196
-0.00359956
-0.00248644
-0.00108642
-1.13948e-06
0.000614388
0.000986032
0.00126339
0.00145683
0.00164988
0.00193942
0.00231226
0.00273397
0.00311278
0.00343212
0.00380464
0.0042134
0.00464518
0.00516154
0.00570868
0.00615411
0.00655539
0.00698225
0.00744209
0.00796449
0.00852233
0.00903353
0.00952009
0.0100237
0.0105422
0.0110446
0.0115407
0.012085
0.0126377
0.0131934
0.0137743
0.0143961
0.0150193
0.0156434
0.0162896
0.0169585
0.0176085
0.018233
0.0188684
0.0195575
0.0202781
0.0210322
0.0218529
0.022596
0.0232389
0.0239224
0.0246893
0.0255581
0.0263927
0.0272167
0.0280403
0.0288936
0.0297494
0.030628
0.031544
0.0324566
0.0334027
0.0342992
0.0352498
0.036245
0.0373055
0.0383204
0.0393657
0.0404045
0.0415118
0.0426531
0.0437884
0.0450653
0.0459463
0.0469294
-0.00621092
-0.00834302
-0.011982
-0.0163665
-0.0179461
-0.016999
-0.0154118
-0.0136082
-0.0117388
-0.0101185
-0.00887071
-0.00798815
-0.00744115
-0.00702998
-0.00644203
-0.00558744
-0.00478443
-0.00426297
-0.00378547
-0.00315886
-0.00249701
-0.00192795
-0.0016416
-0.00201575
-0.00302859
-0.00381209
-0.00359999
-0.00248569
-0.00108439
1.30769e-06
0.000616362
0.000987521
0.00126474
0.001458
0.0016508
0.00194025
0.00231304
0.0027348
0.00311363
0.00343278
0.0038052
0.00421396
0.00464564
0.005162
0.00570926
0.00615467
0.00655583
0.00698265
0.00744243
0.00796482
0.00852273
0.00903393
0.00952042
0.010024
0.0105425
0.0110449
0.011541
0.0120853
0.0126379
0.0131937
0.0137746
0.0143963
0.0150196
0.0156436
0.0162898
0.0169588
0.0176087
0.0182332
0.0188686
0.0195577
0.0202783
0.0210323
0.0218531
0.0225963
0.0232391
0.0239225
0.0246894
0.0255582
0.0263928
0.0272168
0.0280404
0.0288937
0.0297496
0.0306281
0.0315441
0.0324567
0.0334028
0.0342993
0.0352499
0.036245
0.0373056
0.0383205
0.0393658
0.0404046
0.0415119
0.0426532
0.0437884
0.0450655
0.0459465
0.0469295
-0.00647185
-0.00854849
-0.011852
-0.01599
-0.0176955
-0.0168926
-0.0153397
-0.0135506
-0.0116997
-0.0100962
-0.00886037
-0.00798318
-0.00743586
-0.00702289
-0.00643593
-0.00558453
-0.00478315
-0.0042608
-0.00378205
-0.00315535
-0.0024938
-0.00192433
-0.00163684
-0.00201098
-0.00302638
-0.00381252
-0.00360068
-0.00248484
-0.00108186
4.40494e-06
0.000618822
0.000989255
0.00126623
0.00145931
0.00165188
0.00194125
0.00231397
0.00273577
0.00311465
0.00343355
0.00380584
0.00421457
0.00464614
0.00516252
0.00570993
0.00615529
0.00655629
0.00698306
0.00744276
0.00796517
0.00852319
0.00903436
0.00952078
0.0100244
0.0105429
0.0110453
0.0115412
0.0120856
0.0126382
0.0131939
0.0137748
0.0143966
0.0150198
0.0156438
0.01629
0.016959
0.017609
0.0182334
0.0188688
0.0195579
0.0202785
0.0210325
0.0218533
0.0225965
0.0232393
0.0239226
0.0246895
0.0255583
0.026393
0.027217
0.0280406
0.0288939
0.0297497
0.0306282
0.0315442
0.0324568
0.0334029
0.0342994
0.0352499
0.0362451
0.0373057
0.0383206
0.0393659
0.0404046
0.0415119
0.0426532
0.0437885
0.0450656
0.0459467
0.0469295
-0.00672316
-0.00873061
-0.0116974
-0.0155842
-0.0174089
-0.016761
-0.0152455
-0.0134704
-0.0116426
-0.0100628
-0.0088445
-0.00797606
-0.00742855
-0.00701173
-0.00642565
-0.00558092
-0.00478416
-0.00426034
-0.00377892
-0.00315236
-0.00249164
-0.00192141
-0.00163197
-0.00200541
-0.00302322
-0.00381212
-0.00360084
-0.0024836
-0.00107885
8.1826e-06
0.000621951
0.000991358
0.00126787
0.00146084
0.00165335
0.00194268
0.00231526
0.00273707
0.00311597
0.00343458
0.00380667
0.00421534
0.0046468
0.00516318
0.00571072
0.00615601
0.00655685
0.00698354
0.00744314
0.00796557
0.00852372
0.00903487
0.00952119
0.0100248
0.0105432
0.0110457
0.0115416
0.0120859
0.0126385
0.0131942
0.0137751
0.0143969
0.0150201
0.0156441
0.0162903
0.0169593
0.0176093
0.0182337
0.0188689
0.0195581
0.0202787
0.0210326
0.0218535
0.0225969
0.0232394
0.0239227
0.0246896
0.0255585
0.0263932
0.0272171
0.0280407
0.028894
0.0297498
0.0306283
0.0315443
0.032457
0.0334031
0.0342995
0.03525
0.0362452
0.0373058
0.0383207
0.039366
0.0404047
0.041512
0.0426533
0.0437885
0.0450658
0.0459471
0.0469296
-0.00695051
-0.00888638
-0.0115476
-0.0151796
-0.0171058
-0.016618
-0.0151433
-0.0133797
-0.0115753
-0.0100224
-0.00882457
-0.00796658
-0.00741847
-0.00699607
-0.0064107
-0.00557563
-0.00478668
-0.00426157
-0.00377647
-0.00315037
-0.00249146
-0.00192084
-0.00162877
-0.00200005
-0.00301881
-0.00380978
-0.00359944
-0.00248157
-0.00107545
1.25372e-05
0.000625883
0.000993997
0.0012697
0.00146259
0.00165527
0.00194461
0.00231698
0.0027388
0.00311778
0.00343607
0.00380783
0.00421636
0.00464772
0.00516408
0.00571167
0.00615687
0.00655755
0.00698413
0.00744358
0.00796604
0.00852436
0.00903548
0.00952168
0.0100252
0.0105437
0.0110461
0.0115419
0.0120862
0.0126388
0.0131945
0.0137753
0.0143971
0.0150203
0.0156443
0.0162905
0.0169595
0.0176095
0.0182339
0.0188691
0.0195583
0.0202789
0.0210327
0.0218538
0.0225972
0.0232396
0.0239228
0.0246897
0.0255587
0.0263934
0.0272173
0.0280409
0.0288941
0.0297499
0.0306284
0.0315444
0.0324571
0.0334032
0.0342996
0.0352501
0.0362453
0.0373059
0.0383208
0.0393661
0.0404048
0.0415121
0.0426534
0.0437886
0.045066
0.0459476
0.0469299
-0.00715031
-0.00903036
-0.0114229
-0.014785
-0.0167863
-0.0164635
-0.015037
-0.0132838
-0.0115021
-0.00997771
-0.00880228
-0.00795529
-0.00740609
-0.00697714
-0.0063922
-0.00556835
-0.00478951
-0.004264
-0.003775
-0.00314954
-0.00249324
-0.00192326
-0.00162886
-0.00199674
-0.0030143
-0.00380549
-0.00359569
-0.00247797
-0.00107132
1.75e-05
0.000630623
0.000997267
0.00127187
0.00146472
0.00165772
0.001947
0.00231898
0.00274089
0.00312019
0.00343824
0.00380951
0.0042178
0.00464905
0.00516528
0.0057128
0.00615791
0.00655847
0.00698491
0.00744416
0.00796661
0.00852511
0.00903622
0.00952231
0.0100257
0.0105442
0.0110467
0.0115424
0.0120866
0.0126392
0.0131949
0.0137757
0.0143974
0.0150207
0.0156446
0.0162908
0.0169598
0.0176098
0.0182342
0.0188693
0.0195585
0.0202791
0.0210329
0.0218541
0.0225977
0.0232399
0.023923
0.0246898
0.0255589
0.0263936
0.0272175
0.028041
0.0288943
0.0297501
0.0306285
0.0315446
0.0324572
0.0334034
0.0342997
0.0352502
0.0362454
0.037306
0.0383209
0.0393662
0.0404049
0.0415121
0.0426535
0.0437886
0.0450662
0.0459482
0.0469302
-0.00733066
-0.00917357
-0.0113267
-0.0143964
-0.0164446
-0.0162944
-0.0149281
-0.0131855
-0.011425
-0.00992995
-0.00877823
-0.00794276
-0.00739231
-0.00695641
-0.00637157
-0.00555936
-0.00479201
-0.00426734
-0.00377479
-0.00315005
-0.00249667
-0.00192836
-0.00163267
-0.001997
-0.00301187
-0.00380089
-0.00358996
-0.00247218
-0.00106568
2.35077e-05
0.000636198
0.00100107
0.00127443
0.00146744
0.00166093
0.00194986
0.002321
0.00274296
0.00312298
0.00344113
0.00381188
0.00421986
0.00465096
0.00516686
0.00571412
0.00615916
0.00655966
0.00698595
0.00744493
0.00796735
0.00852601
0.00903712
0.00952311
0.0100264
0.0105449
0.0110474
0.0115431
0.0120872
0.0126396
0.0131953
0.0137761
0.0143978
0.015021
0.015645
0.0162912
0.0169601
0.0176101
0.0182344
0.0188695
0.0195588
0.0202794
0.021033
0.0218545
0.0225981
0.0232401
0.0239231
0.0246899
0.0255592
0.0263939
0.0272177
0.0280412
0.0288945
0.0297503
0.0306287
0.0315448
0.0324574
0.0334035
0.0342999
0.0352503
0.0362455
0.0373061
0.0383211
0.0393663
0.040405
0.0415122
0.0426537
0.0437887
0.0450665
0.045949
0.0469307
-0.00749982
-0.00931227
-0.0112493
-0.0140092
-0.0160799
-0.0161111
-0.0148186
-0.0130873
-0.011345
-0.00987897
-0.00875217
-0.00792922
-0.00737774
-0.00693464
-0.00634946
-0.0055489
-0.00479404
-0.00427155
-0.00377594
-0.00315194
-0.00250185
-0.00193606
-0.00164005
-0.00200118
-0.00301322
-0.00379854
-0.00358402
-0.00246453
-0.00105786
3.12735e-05
0.000642857
0.0010053
0.00127726
0.00147079
0.00166508
0.00195332
0.00232292
0.00274458
0.00312562
0.00344437
0.00381483
0.00422264
0.00465366
0.00516894
0.00571561
0.00616057
0.00656111
0.00698727
0.00744597
0.00796831
0.00852711
0.00903821
0.00952408
0.0100273
0.0105457
0.0110484
0.011544
0.0120879
0.0126402
0.0131958
0.0137766
0.0143982
0.0150214
0.0156454
0.0162916
0.0169605
0.0176104
0.0182347
0.0188698
0.0195591
0.0202796
0.0210331
0.0218548
0.0225987
0.0232404
0.0239232
0.02469
0.0255594
0.0263942
0.027218
0.0280415
0.0288947
0.0297505
0.0306289
0.031545
0.0324576
0.0334038
0.0343001
0.0352504
0.0362456
0.0373062
0.0383212
0.0393664
0.0404051
0.0415123
0.0426538
0.0437887
0.0450666
0.04595
0.0469314
-0.00765752
-0.00943406
-0.0111841
-0.0136299
-0.0156975
-0.0159136
-0.0147086
-0.0129897
-0.0112623
-0.00982446
-0.00872386
-0.00791471
-0.00736262
-0.00691201
-0.00632597
-0.00553703
-0.00479554
-0.00427649
-0.00377828
-0.00315515