/*--------------------------------*- C++ -*----------------------------------*\
| =========                 |                                                 |
| \\      /  F ield         | OpenFOAM: The Open Source CFD Toolbox           |
|  \\    /   O peration     | Version:  v1912                                 |
|   \\  /    A nd           | Website:  www.openfoam.com                      |
|    \\/     M anipulation  |                                                 |
\*---------------------------------------------------------------------------*/
FoamFile
{
    version     2.0;
    format      ascii;
    class       surfaceScalarField;
    location    "5.65";
    object      phi;
}
// * * * * * * * * * * * * * * * * * * * * * * * * * * * * * * * * * * * * * //

dimensions      [0 3 -1 0 0 0 0];
oriented        oriented;


internalField   nonuniform List<scalar> 
19000
(
1.15313e-06
-3.05175e-07
1.14731e-06
-1.78125e-07
1.17029e-06
7.62187e-07
1.13742e-06
-1.29533e-06
1.18715e-06
3.9844e-07
1.20524e-06
5.47256e-07
1.15152e-06
4.92506e-07
1.15552e-06
5.13183e-07
1.18866e-06
1.07387e-06
1.08107e-06
-1.24428e-06
1.11966e-06
1.94159e-07
1.05888e-06
-6.4709e-07
1.13256e-06
-5.66851e-07
1.14086e-06
-4.29524e-07
1.16977e-06
-4.99915e-07
1.18902e-06
-2.38225e-09
1.19022e-06
-1.80208e-07
1.20489e-06
2.04967e-07
1.20367e-06
6.90193e-08
3.25684e-07
1.22254e-06
1.21024e-06
-2.91151e-07
1.20369e-06
-1.71581e-07
1.22466e-06
7.41218e-07
1.19282e-06
-1.26349e-06
1.24025e-06
3.51018e-07
1.26439e-06
5.23115e-07
1.20802e-06
5.4887e-07
1.21195e-06
5.09253e-07
1.23861e-06
1.04721e-06
1.14171e-06
-1.14738e-06
1.1644e-06
1.71464e-07
1.11551e-06
-5.98196e-07
1.17631e-06
-6.27658e-07
1.19909e-06
-4.52301e-07
1.21984e-06
-5.20668e-07
1.26263e-06
-4.51716e-08
1.24279e-06
-1.60369e-07
1.28278e-06
1.64976e-07
1.25548e-06
9.63231e-08
2.76857e-07
1.30431e-06
1.27069e-06
-2.79057e-07
1.26396e-06
-1.64853e-07
1.28165e-06
7.23532e-07
1.25195e-06
-1.2338e-06
1.29449e-06
3.08485e-07
1.32606e-06
4.91545e-07
1.27371e-06
6.01213e-07
1.26971e-06
5.13253e-07
1.29209e-06
1.02483e-06
1.21467e-06
-1.06996e-06
1.22064e-06
1.65495e-07
1.1911e-06
-5.68656e-07
1.2253e-06
-6.61853e-07
1.26362e-06
-4.90629e-07
1.27371e-06
-5.30753e-07
1.32121e-06
-9.26707e-08
1.30179e-06
-1.40949e-07
1.33014e-06
1.36623e-07
1.32142e-06
1.05044e-07
2.60672e-07
1.33761e-06
1.3343e-06
-2.69253e-07
1.32769e-06
-1.58243e-07
1.34051e-06
7.10709e-07
1.3149e-06
-1.20819e-06
1.35157e-06
2.7181e-07
1.39017e-06
4.52944e-07
1.34757e-06
6.43818e-07
1.33308e-06
5.27738e-07
1.34962e-06
1.0083e-06
1.29206e-06
-1.0124e-06
1.28466e-06
1.72892e-07
1.26941e-06
-5.53411e-07
1.28018e-06
-6.72617e-07
1.32384e-06
-5.34291e-07
1.33403e-06
-5.4094e-07
1.37261e-06
-1.31251e-07
1.36776e-06
-1.361e-07
1.38251e-06
1.21867e-07
1.38525e-06
1.02311e-07
2.49734e-07
1.39619e-06
1.40077e-06
-2.61673e-07
1.39452e-06
-1.51989e-07
1.40166e-06
7.03574e-07
1.38051e-06
-1.18704e-06
1.41327e-06
2.3905e-07
1.45582e-06
4.10393e-07
1.42632e-06
6.73314e-07
1.40357e-06
5.50489e-07
1.41356e-06
9.98309e-07
1.36929e-06
-9.68126e-07
1.35543e-06
1.86752e-07
1.34681e-06
-5.4479e-07
1.34369e-06
-6.69494e-07
1.38211e-06
-5.72719e-07
1.39829e-06
-5.57112e-07
1.43118e-06
-1.64147e-07
1.43766e-06
-1.42578e-07
1.45093e-06
1.08598e-07
1.45522e-06
9.80172e-08
2.38851e-07
1.46611e-06
1.46975e-06
-2.55748e-07
1.46451e-06
-1.46745e-07
1.46616e-06
7.01918e-07
1.44848e-06
-1.16935e-06
1.4795e-06
2.0803e-07
1.52155e-06
3.68339e-07
1.50529e-06
6.89574e-07
1.47999e-06
5.75792e-07
1.48364e-06
9.94659e-07
1.44487e-06
-9.29363e-07
1.43081e-06
2.00812e-07
1.42502e-06
-5.39001e-07
1.41517e-06
-6.59644e-07
1.44361e-06
-6.01153e-07
1.46307e-06
-5.76571e-07
1.49627e-06
-1.97353e-07
1.50948e-06
-1.55786e-07
1.52599e-06
9.20886e-08
1.53224e-06
9.17626e-08
2.29008e-07
1.54209e-06
1.54091e-06
-2.50441e-07
1.538e-06
-1.43835e-07
1.53517e-06
7.04746e-07
1.51917e-06
-1.15336e-06
1.54894e-06
1.78264e-07
1.58591e-06
3.31372e-07
1.58131e-06
6.94167e-07
1.56026e-06
5.96841e-07
1.55861e-06
9.96314e-07
1.5204e-06
-8.91153e-07
1.51035e-06
2.10863e-07
1.50664e-06
-5.35289e-07
1.49343e-06
-6.46441e-07
1.51078e-06
-6.18503e-07
1.52839e-06
-5.94176e-07
1.56279e-06
-2.31756e-07
1.58164e-06
-1.74634e-07
1.60149e-06
7.22428e-08
1.61105e-06
8.21952e-08
2.18682e-07
1.62138e-06
1.61425e-06
-2.44563e-07
1.61536e-06
-1.44943e-07
1.6093e-06
7.10807e-07
1.59321e-06
-1.13727e-06
1.62074e-06
1.5074e-07
1.64885e-06
3.03255e-07
1.65435e-06
6.88666e-07
1.64341e-06
6.0779e-07
1.6376e-06
1.00212e-06
1.59816e-06
-8.51708e-07
1.59468e-06
2.14338e-07
1.59274e-06
-5.33351e-07
1.57795e-06
-6.3165e-07
1.58433e-06
-6.24885e-07
1.59628e-06
-6.06123e-07
1.62921e-06
-2.64681e-07
1.65294e-06
-1.98373e-07
1.67609e-06
4.90941e-08
1.68932e-06
6.8969e-08
2.06118e-07
1.70188e-06
1.69021e-06
-2.37201e-07
1.69666e-06
-1.51386e-07
1.68854e-06
7.1892e-07
1.67117e-06
-1.11989e-06
1.69536e-06
1.26546e-07
1.71253e-06
2.86091e-07
1.72688e-06
6.74309e-07
1.72952e-06
6.05149e-07
1.72057e-06
1.01107e-06
1.67975e-06
-8.1089e-07
1.684e-06
2.10086e-07
1.68308e-06
-5.32427e-07
1.668e-06
-6.16569e-07
1.66398e-06
-6.20864e-07
1.66832e-06
-6.10469e-07
1.69658e-06
-2.92936e-07
1.72342e-06
-2.25217e-07
1.74995e-06
2.25652e-08
1.76718e-06
5.17445e-08
1.90113e-07
1.78318e-06
1.76955e-06
-2.28026e-07
1.78157e-06
-1.63414e-07
1.77258e-06
7.27911e-07
1.75348e-06
-1.1008e-06
1.77406e-06
1.05966e-07
1.78037e-06
2.79789e-07
1.80204e-06
6.52637e-07
1.8187e-06
5.88484e-07
1.80779e-06
1.02199e-06
1.76582e-06
-7.68919e-07
1.77745e-06
1.98451e-07
1.77644e-06
-5.31413e-07
1.76207e-06
-6.02204e-07
1.74888e-06
-6.07665e-07
1.74526e-06
-6.06857e-07
1.76647e-06
-3.14139e-07
1.79402e-06
-2.52769e-07
1.82349e-06
-6.90241e-09
1.84483e-06
3.04017e-08
1.69786e-07
1.86516e-06
1.85306e-06
-2.17341e-07
1.86954e-06
-1.79895e-07
1.86105e-06
7.36408e-07
1.84036e-06
-1.08011e-06
1.85775e-06
8.8572e-08
1.85539e-06
2.82149e-07
1.88199e-06
6.26045e-07
1.91015e-06
5.60315e-07
1.89915e-06
1.033e-06
1.85629e-06
-7.26058e-07
1.87359e-06
1.81144e-07
1.87129e-06
-5.29106e-07
1.85838e-06
-5.89296e-07
1.83808e-06
-5.87371e-07
1.8275e-06
-5.96276e-07
1.84048e-06
-3.2711e-07
1.86623e-06
-2.78526e-07
1.89744e-06
-3.81119e-08
1.92215e-06
5.69387e-09
1.44836e-07
1.9471e-06
1.94139e-06
-2.05889e-07
1.96009e-06
-1.98596e-07
1.95362e-06
7.42878e-07
1.9317e-06
-1.05819e-06
1.94643e-06
7.38414e-08
1.93893e-06
2.89646e-07
1.96737e-06
5.97607e-07
2.00249e-06
5.25201e-07
1.994e-06
1.04148e-06
1.95076e-06
-6.82826e-07
1.97125e-06
1.60652e-07
1.96656e-06
-5.24413e-07
1.95556e-06
-5.78299e-07
1.93088e-06
-5.62687e-07
1.91535e-06
-5.80751e-07
1.92025e-06
-3.32003e-07
1.94198e-06
-3.00264e-07
1.97305e-06
-6.91779e-08
1.99927e-06
-2.05231e-08
1.1596e-07
2.02814e-06
2.03485e-06
-1.94547e-07
2.05316e-06
-2.16911e-07
2.05007e-06
7.45969e-07
2.02725e-06
-1.03537e-06
2.0395e-06
6.15942e-08
2.03053e-06
2.98613e-07
2.05785e-06
5.7029e-07
2.09475e-06
4.88298e-07
2.09155e-06
1.04468e-06
2.04884e-06
-6.40116e-07
2.07011e-06
1.39382e-07
2.06223e-06
-5.16527e-07
2.05323e-06
-5.69296e-07
2.02692e-06
-5.36378e-07
2.00894e-06
-5.62778e-07
2.00706e-06
-3.30123e-07
2.02321e-06
-3.16413e-07
2.052e-06
-9.79689e-08
2.07708e-06
-4.55959e-08
8.49354e-08
2.1081e-06
2.13348e-06
-1.84026e-07
2.14924e-06
-2.32675e-07
2.15031e-06
7.449e-07
2.12683e-06
-1.01189e-06
2.13643e-06
5.19998e-08
2.12877e-06
3.06269e-07
2.15295e-06
5.46107e-07
2.18728e-06
4.53976e-07
2.19145e-06
1.04051e-06
2.15033e-06
-5.99e-07
2.17076e-06
1.18955e-07
2.15928e-06
-5.05048e-07
2.15196e-06
-5.61977e-07
2.12624e-06
-5.10659e-07
2.10813e-06
-5.44667e-07
2.10143e-06
-3.23424e-07
2.11129e-06
-3.26267e-07
2.13603e-06
-1.22708e-07
2.15725e-06
-6.68192e-08
5.4247e-08
2.18794e-06
2.23715e-06
-1.74692e-07
2.24916e-06
-2.44684e-07
2.25446e-06
7.39601e-07
2.23051e-06
-9.87931e-07
2.23719e-06
4.53164e-08
2.23224e-06
3.11216e-07
2.25265e-06
5.25703e-07
2.28165e-06
4.24973e-07
2.294e-06
1.02816e-06
2.25533e-06
-5.60327e-07
2.2743e-06
9.998e-08
2.25927e-06
-4.9001e-07
2.25302e-06
-5.55734e-07
2.22918e-06
-4.86812e-07
2.21256e-06
-5.28051e-07
2.20308e-06
-3.13945e-07
2.20672e-06
-3.29904e-07
2.22644e-06
-1.42431e-07
2.24182e-06
-8.21929e-08
2.64636e-08
2.2696e-06
2.34574e-06
-1.66557e-07
2.35382e-06
-2.52764e-07
2.36285e-06
7.30567e-07
2.33858e-06
-9.63654e-07
2.34226e-06
4.16302e-08
2.34013e-06
3.13345e-07
2.35732e-06
5.08514e-07
2.38005e-06
4.02248e-07
2.4001e-06
1.00811e-06
2.36418e-06
-5.24404e-07
2.38188e-06
8.22779e-08
2.3637e-06
-4.71835e-07
2.35785e-06
-5.49881e-07
2.3362e-06
-4.65161e-07
2.32182e-06
-5.13677e-07
2.31135e-06
-3.03469e-07
2.30935e-06
-3.27902e-07
2.32401e-06
-1.57095e-07
2.33269e-06
-9.08716e-08
3.65756e-09
2.3555e-06
2.45922e-06
-1.59379e-07
2.46392e-06
-2.5747e-07
2.47592e-06
7.18568e-07
2.45147e-06
-9.39206e-07
2.45236e-06
4.07385e-08
2.45232e-06
3.13392e-07
2.46752e-06
4.93316e-07
2.4844e-06
3.8536e-07
2.51082e-06
9.81688e-07
2.47735e-06
-4.90936e-07
2.49434e-06
6.52957e-08
2.47367e-06
-4.51172e-07
2.46767e-06
-5.43881e-07
2.44786e-06
-4.45347e-07
2.43566e-06
-5.0148e-07
2.42558e-06
-2.93388e-07
2.41874e-06
-3.21058e-07
2.42901e-06
-1.67373e-07
2.43131e-06
-9.3172e-08
-1.29508e-08
2.44792e-06
2.57772e-06
-1.52806e-07
2.57991e-06
-2.59662e-07
2.59409e-06
7.0439e-07
2.56963e-06
-9.14742e-07
2.56819e-06
4.21816e-08
2.56914e-06
3.1244e-07
2.58364e-06
4.78817e-07
2.5959e-06
3.73099e-07
2.6271e-06
9.50486e-07
2.59538e-06
-4.59217e-07
2.6122e-06
4.84803e-08
2.58976e-06
-4.28739e-07
2.58333e-06
-5.37448e-07
2.56473e-06
-4.2675e-07
2.55405e-06
-4.90797e-07
2.54537e-06
-2.84711e-07
2.5345e-06
-3.10184e-07
2.54139e-06
-1.74261e-07
2.53852e-06
-9.03086e-08
-2.30632e-08
2.54864e-06
2.70152e-06
-1.46501e-07
2.70202e-06
-2.60162e-07
2.71773e-06
6.88682e-07
2.69343e-06
-8.90441e-07
2.69026e-06
4.5357e-08
2.69114e-06
3.11554e-07
2.70591e-06
4.64048e-07
2.71492e-06
3.64087e-07
2.74951e-06
9.15895e-07
2.71874e-06
-4.28444e-07
2.73575e-06
3.14763e-08
2.71219e-06
-4.05183e-07
2.70527e-06
-5.30525e-07
2.68738e-06
-4.08865e-07
2.67725e-06
-4.80667e-07
2.67061e-06
-2.78073e-07
2.65647e-06
-2.96041e-07
2.66092e-06
-1.78715e-07
2.65462e-06
-8.40083e-08
-2.71273e-08
2.65869e-06
2.83097e-06
-1.40203e-07
2.83038e-06
-2.59576e-07
2.84715e-06
6.71919e-07
2.82321e-06
-8.66504e-07
2.81893e-06
4.96392e-08
2.81891e-06
3.11572e-07
2.83447e-06
4.48488e-07
2.84136e-06
3.57201e-07
2.87831e-06
8.78939e-07
2.84785e-06
-3.97979e-07
2.86515e-06
1.41711e-08
2.84102e-06
-3.81047e-07
2.83365e-06
-5.23156e-07
2.81627e-06
-3.91488e-07
2.80572e-06
-4.70116e-07
2.80137e-06
-2.73717e-07
2.78475e-06
-2.79428e-07
2.78733e-06
-1.81296e-07
2.77949e-06
-7.61609e-08
-2.60574e-08
2.77842e-06
2.96643e-06
-1.33736e-07
2.96512e-06
-2.58268e-07
2.98261e-06
6.54428e-07
2.95924e-06
-8.43132e-07
2.95443e-06
5.44509e-08
2.95296e-06
3.13044e-07
2.96945e-06
4.31993e-07
2.97489e-06
3.51758e-07
3.01355e-06
8.40287e-07
2.98304e-06
-3.67471e-07
3.00055e-06
-3.33933e-09
2.97632e-06
-3.56815e-07
2.96854e-06
-5.1538e-07
2.95179e-06
-3.74736e-07
2.94001e-06
-4.58335e-07
2.93787e-06
-2.71578e-07
2.91959e-06
-2.6115e-07
2.92038e-06
-1.82089e-07
2.91273e-06
-6.85125e-08
-2.0999e-08
2.90768e-06
3.10827e-06
-1.26998e-07
3.10643e-06
-2.5643e-07
3.12442e-06
6.36436e-07
3.10176e-06
-8.20471e-07
3.09694e-06
5.92762e-08
3.09375e-06
3.16233e-07
3.11106e-06
4.14675e-07
3.11532e-06
3.47502e-07
3.15522e-06
8.00391e-07
3.12461e-06
-3.36863e-07
3.14208e-06
-2.08062e-08
3.11822e-06
-3.32963e-07
3.11001e-06
-5.07165e-07
3.09418e-06
-3.58909e-07
3.08064e-06
-4.44798e-07
3.08042e-06
-2.71351e-07
3.06128e-06
-2.42017e-07
3.06001e-06
-1.80815e-07
3.05388e-06
-6.23806e-08
-1.32157e-08
3.04609e-06
3.25684e-06
-1.19925e-07
3.25457e-06
-2.54165e-07
3.2729e-06
6.1811e-07
3.25099e-06
-7.98563e-07
3.24662e-06
6.36431e-08
3.24171e-06
3.21147e-07
3.2596e-06
3.96784e-07
3.26262e-06
3.44483e-07
3.3034e-06
7.59606e-07
3.27287e-06
-3.06328e-07
3.28994e-06
-3.78745e-08
3.26695e-06
-3.09976e-07
3.2582e-06
-4.98411e-07
3.24364e-06
-3.44357e-07
3.2281e-06
-4.29258e-07
3.22932e-06
-2.72566e-07
3.21016e-06
-2.2286e-07
3.20635e-06
-1.77004e-07
3.20252e-06
-5.85464e-08
-3.95268e-09
3.19326e-06
3.41249e-06
-1.12483e-07
3.40988e-06
-2.51559e-07
3.42841e-06
5.99587e-07
3.40714e-06
-7.77298e-07
3.40368e-06
6.71078e-08
3.39726e-06
3.27563e-07
3.41542e-06
3.78625e-07
3.41701e-06
3.42897e-07
3.45832e-06
7.18294e-07
3.42818e-06
-2.7619e-07
3.44442e-06
-5.4117e-08
3.42277e-06
-2.88325e-07
3.41332e-06
-4.88964e-07
3.40032e-06
-3.31357e-07
3.38279e-06
-4.11729e-07
3.38486e-06
-2.74636e-07
3.36651e-06
-2.04503e-07
3.35993e-06
-1.7043e-07
3.35839e-06
-5.70038e-08
5.5488e-09
3.34889e-06
3.57558e-06
-1.04656e-07
3.57274e-06
-2.48718e-07
3.59134e-06
5.80987e-07
3.57043e-06
-7.56389e-07
3.56828e-06
6.92623e-08
3.56078e-06
3.35061e-07
3.57892e-06
3.6049e-07
3.5789e-06
3.42912e-07
3.62033e-06
6.76867e-07
3.59098e-06
-2.46842e-07
3.60592e-06
-6.90619e-08
3.586e-06
-2.68397e-07
3.57567e-06
-4.78633e-07
3.56437e-06
-3.20061e-07
3.54506e-06
-3.92417e-07
3.54734e-06
-2.76917e-07
3.53055e-06
-1.87716e-07
3.52124e-06
-1.6112e-07
3.52143e-06
-5.71943e-08
1.41723e-08
3.51281e-06
3.74649e-06
-9.64438e-08
3.74357e-06
-2.45793e-07
3.76213e-06
5.62428e-07
3.74112e-06
-7.35378e-07
3.74061e-06
6.97641e-08
3.73259e-06
3.43085e-07
3.75049e-06
3.42589e-07
3.74888e-06
3.44522e-07
3.78994e-06
6.3581e-07
3.76179e-06
-2.18698e-07
3.77495e-06
-8.22195e-08
3.75699e-06
-2.5044e-07
3.74558e-06
-4.67218e-07
3.73596e-06
-3.10445e-07
3.71521e-06
-3.71665e-07
3.71706e-06
-2.7876e-07
3.70248e-06
-1.7314e-07
3.6907e-06
-1.49344e-07
3.69176e-06
-5.8255e-08
2.09829e-08
3.68495e-06
3.92561e-06
-8.78671e-08
3.92279e-06
-2.42976e-07
3.9412e-06
5.4402e-07
3.91949e-06
-7.13665e-07
3.92088e-06
6.83734e-08
3.91294e-06
3.51026e-07
3.93052e-06
3.2501e-07
3.9276e-06
3.47439e-07
3.96775e-06
5.95662e-07
3.94122e-06
-1.92171e-07
3.95215e-06
-9.31416e-08
3.93618e-06
-2.34476e-07
3.92349e-06
-4.54531e-07
3.91536e-06
-3.02315e-07
3.89357e-06
-3.4987e-07
3.89436e-06
-2.79549e-07
3.88243e-06
-1.61212e-07
3.86871e-06
-1.35627e-07
3.86967e-06
-5.92117e-08
2.52979e-08
3.86535e-06
4.11335e-06
-7.89647e-08
4.11086e-06
-2.40492e-07
4.12903e-06
5.25859e-07
4.10593e-06
-6.90575e-07
4.10931e-06
6.49975e-08
4.10202e-06
3.58321e-07
4.11932e-06
3.07703e-07
4.1157e-06
3.51064e-07
4.15438e-06
5.56979e-07
4.12989e-06
-1.67683e-07
4.1382e-06
-1.01447e-07
4.124e-06
-2.2028e-07
4.10992e-06
-4.40447e-07
4.10291e-06
-2.95305e-07
4.08048e-06
-3.27444e-07
4.07965e-06
-2.78718e-07
4.07052e-06
-1.52085e-07
4.05563e-06
-1.20733e-07
4.05557e-06
-5.91497e-08
2.68021e-08
4.05406e-06
4.31013e-06
-6.97924e-08
4.30821e-06
-2.38568e-07
4.32606e-06
5.08004e-07
4.30093e-06
-6.65446e-07
4.30623e-06
5.97033e-08
4.29999e-06
3.64558e-07
4.31717e-06
2.9052e-07
4.3137e-06
3.54539e-07
4.35036e-06
5.20314e-07
4.3283e-06
-1.45618e-07
4.33378e-06
-1.06928e-07
4.32092e-06
-2.07426e-07
4.30541e-06
-4.24931e-07
4.29905e-06
-2.88949e-07
4.27636e-06
-3.04753e-07
4.2734e-06
-2.7576e-07
4.26696e-06
-1.45638e-07
4.25179e-06
-1.05568e-07
4.24996e-06
-5.7321e-08
2.55864e-08
4.25118e-06
4.5164e-06
-6.0417e-08
4.51523e-06
-2.37395e-07
4.53277e-06
4.90455e-07
4.50506e-06
-6.37732e-07
4.51205e-06
5.27094e-08
4.50709e-06
3.69524e-07
4.52431e-06
2.733e-07
4.52198e-06
3.56869e-07
4.55612e-06
4.86169e-07
4.53677e-06
-1.26263e-07
4.53948e-06
-1.0964e-07
4.5274e-06
-1.95347e-07
4.51053e-06
-4.08062e-07
4.50434e-06
-2.82759e-07
4.48167e-06
-2.82079e-07
4.47624e-06
-2.70331e-07
4.47207e-06
-1.41468e-07
4.4575e-06
-9.10011e-08
4.45352e-06
-5.33416e-08
2.22839e-08
4.45683e-06
4.73261e-06
-5.09108e-08
4.7323e-06
-2.37084e-07
4.74962e-06
4.73133e-07
4.71896e-06
-6.0707e-07
4.72733e-06
4.43359e-08
4.72365e-06
3.73201e-07
4.74099e-06
2.55968e-07
4.74077e-06
3.57081e-07
4.77209e-06
4.54857e-07
4.7555e-06
-1.09678e-07
4.75575e-06
-1.09886e-07
4.74389e-06
-1.8349e-07
4.72578e-06
-3.89954e-07
4.71939e-06
-2.76369e-07
4.69691e-06
-2.59601e-07
4.68883e-06
-2.62248e-07
4.68635e-06
-1.38989e-07
4.67312e-06
-7.77675e-08
4.66697e-06
-4.71993e-08
1.80363e-08
4.67122e-06
4.95923e-06
-4.13455e-08
4.95978e-06
-2.37636e-07
4.97705e-06
4.55869e-07
4.9433e-06
-5.73322e-07
4.9527e-06
3.49389e-08
4.95019e-06
3.75708e-07
4.96754e-06
2.38615e-07
4.97027e-06
3.54351e-07
4.99861e-06
4.2652e-07
4.98463e-06
-9.56972e-08
4.98292e-06
-1.08173e-07
4.97082e-06
-1.71395e-07
4.9516e-06
-3.70735e-07
4.9448e-06
-2.69564e-07
4.92268e-06
-2.3748e-07
4.91188e-06
-2.51448e-07
4.91044e-06
-1.37548e-07
4.899e-06
-6.63314e-08
4.89111e-06
-3.93057e-08
1.42287e-08
4.89491e-06
5.19676e-06
-3.17919e-08
5.19805e-06
-2.38924e-07
5.21552e-06
4.38398e-07
5.17875e-06
-5.36552e-07
5.18883e-06
2.48585e-08
5.18736e-06
3.77181e-07
5.20442e-06
2.21553e-07
5.21065e-06
3.48118e-07
5.23603e-06
4.01149e-07
5.22429e-06
-8.39664e-08
5.22127e-06
-1.05153e-07
5.20863e-06
-1.58747e-07
5.18842e-06
-3.50527e-07
5.18113e-06
-2.62271e-07
5.15955e-06
-2.15905e-07
5.14612e-06
-2.38018e-07
5.14499e-06
-1.36416e-07
5.13568e-06
-5.70199e-08
5.1266e-06
-3.02243e-08
1.19996e-08
5.12882e-06
5.44572e-06
-2.23212e-08
5.44749e-06
-2.40697e-07
5.46554e-06
4.20354e-07
5.42595e-06
-4.96963e-07
5.43641e-06
1.43928e-08
5.43593e-06
3.77661e-07
5.45217e-06
2.05319e-07
5.46211e-06
3.38175e-07
5.48473e-06
3.78533e-07
5.47474e-06
-7.39781e-08
5.4711e-06
-1.01517e-07
5.45777e-06
-1.45411e-07
5.43663e-06
-3.29387e-07
5.42891e-06
-2.54556e-07
5.40811e-06
-1.95101e-07
5.39225e-06
-2.22162e-07
5.3908e-06
-1.34965e-07
5.38358e-06
-4.97965e-08
5.37421e-06
-2.08551e-08
1.21001e-08
5.37411e-06
5.70665e-06
-1.30083e-08
5.70857e-06
-2.42619e-07
5.72761e-06
4.01307e-07
5.68549e-06
-4.54841e-07
5.69606e-06
3.82187e-09
5.69667e-06
3.77056e-07
5.71142e-06
1.90568e-07
5.725e-06
3.2459e-07
5.74521e-06
3.58328e-07
5.73636e-06
-6.51288e-08
5.73273e-06
-9.78896e-08
5.71875e-06
-1.31428e-07
5.69669e-06
-3.07329e-07
5.68865e-06
-2.46521e-07
5.66891e-06
-1.75356e-07
5.65096e-06
-2.0421e-07
5.64859e-06
-1.32595e-07
5.64331e-06
-4.45208e-08
5.63443e-06
-1.19712e-08
1.45496e-08
5.63198e-06
5.98012e-06
-3.93721e-09
5.9818e-06
-2.44293e-07
6.00229e-06
3.80808e-07
5.958e-06
-4.10546e-07
5.96836e-06
-6.5425e-09
5.97029e-06
3.7513e-07
5.98288e-06
1.77981e-07
5.99983e-06
3.07638e-07
6.01807e-06
3.40083e-07
6.00972e-06
-5.67716e-08
6.00656e-06
-9.47277e-08
5.99218e-06
-1.17056e-07
5.96914e-06
-2.84281e-07
5.96088e-06
-2.38267e-07
5.9425e-06
-1.56979e-07
5.92286e-06
-1.84566e-07
5.91906e-06
-1.28799e-07
5.9154e-06
-4.08563e-08
5.90771e-06
-4.27588e-09
1.87831e-08
5.90347e-06
6.26675e-06
4.79748e-09
6.26778e-06
-2.45317e-07
6.29004e-06
3.58548e-07
6.24409e-06
-3.64603e-07
6.25386e-06
-1.63137e-08
6.25746e-06
3.7154e-07
6.26735e-06
1.68085e-07
6.28715e-06
2.87841e-07
6.304e-06
3.23235e-07
6.29552e-06
-4.82945e-08
6.29304e-06
-9.22447e-08
6.27875e-06
-1.02765e-07
6.25461e-06
-2.60148e-07
6.24608e-06
-2.29732e-07
6.22947e-06
-1.40376e-07
6.20859e-06
-1.63685e-07
6.20298e-06
-1.23183e-07
6.20049e-06
-3.83637e-08
6.19435e-06
1.86214e-09
2.37862e-08
6.18934e-06
6.56718e-06
1.309e-08
6.56717e-06
-2.45307e-07
6.59113e-06
3.34582e-07
6.54438e-06
-3.17851e-07
6.55316e-06
-2.50886e-08
6.55877e-06
3.65928e-07
6.56567e-06
1.61187e-07
6.58761e-06
2.65894e-07
6.60366e-06
3.07187e-07
6.59456e-06
-3.91969e-08
6.59277e-06
-9.04521e-08
6.57912e-06
-8.91195e-08
6.55393e-06
-2.34953e-07
6.54481e-06
-2.20616e-07
6.53033e-06
-1.2589e-07
6.50879e-06
-1.42151e-07
6.50111e-06
-1.15499e-07
6.49932e-06
-3.65711e-08
6.49463e-06
6.54897e-09
2.84335e-08
6.48998e-06
6.88206e-06
2.08254e-08
6.88067e-06
-2.43927e-07
6.90606e-06
3.09194e-07
6.8595e-06
-2.71284e-07
6.86685e-06
-3.24382e-08
6.87481e-06
3.57961e-07
6.87865e-06
1.5735e-07
6.9019e-06
2.42646e-07
6.91777e-06
2.91316e-07
6.90774e-06
-2.91727e-08
6.90636e-06
-8.90697e-08
6.89399e-06
-7.67467e-08
6.86792e-06
-2.08881e-07
6.8578e-06
-2.10497e-07
6.84562e-06
-1.13706e-07
6.82408e-06
-1.20614e-07
6.8142e-06
-1.05625e-07
6.81267e-06
-3.50341e-08
6.80909e-06
1.01268e-08
3.19731e-08
6.80555e-06
7.21208e-06
2.7884e-08
7.20902e-06
-2.40873e-07
7.23553e-06
2.82687e-07
7.1901e-06
-2.25858e-07
7.19561e-06
-3.79447e-08
7.20615e-06
3.47419e-07
7.2071e-06
1.56401e-07
7.23072e-06
2.19031e-07
7.24696e-06
2.75076e-07
7.23599e-06
-1.82003e-08
7.23458e-06
-8.76606e-08
7.22399e-06
-6.61638e-08
7.19741e-06
-1.82296e-07
7.18585e-06
-1.98942e-07
7.17589e-06
-1.03747e-07
7.15502e-06
-9.9735e-08
7.143e-06
-9.36103e-08
7.14109e-06
-3.31205e-08
7.13838e-06
1.28366e-08
3.41242e-08
7.13623e-06
7.55797e-06
3.41439e-08
7.55295e-06
-2.35854e-07
7.58032e-06
2.55314e-07
7.53689e-06
-1.82426e-07
7.54019e-06
-4.12444e-08
7.55334e-06
3.34265e-07
7.55184e-06
1.57906e-07
7.57485e-06
1.96019e-07
7.59193e-06
2.57997e-07
7.58013e-06
-6.40722e-09
7.57819e-06
-8.57225e-08
7.56969e-06
-5.76605e-08
7.54325e-06
-1.55857e-07
7.52997e-06
-1.85658e-07
7.52192e-06
-9.56987e-08
7.50236e-06
-8.01773e-08
7.48826e-06
-7.95079e-08
7.48501e-06
-2.98744e-08
7.48288e-06
1.49669e-08
3.48558e-08
7.48215e-06
7.92047e-06
3.94868e-08
7.91313e-06
-2.28517e-07
7.94122e-06
2.27229e-07
7.90058e-06
-1.41791e-07
7.90136e-06
-4.20279e-08
7.91694e-06
3.18691e-07
7.91364e-06
1.61205e-07
7.93508e-06
1.74579e-07
7.9533e-06
2.39778e-07
7.94109e-06
5.80372e-09
7.93811e-06
-8.27441e-08
7.93175e-06
-5.13026e-08
7.90612e-06
-1.30226e-07
7.89099e-06
-1.70523e-07
7.88477e-06
-8.94798e-08
7.86736e-06
-6.27706e-08
7.85095e-06
-6.30942e-08
7.84526e-06
-2.41869e-08
7.84221e-06
1.8015e-08
3.34578e-08
7.84361e-06
8.30035e-06
4.38191e-08
8.29025e-06
-2.18421e-07
8.31899e-06
1.98488e-07
8.28192e-06
-1.04715e-07
8.28e-06
-4.01132e-08
8.29762e-06
3.01076e-07
8.29332e-06
1.65499e-07
8.31235e-06
1.55549e-07
8.33169e-06
2.20439e-07
8.31963e-06
1.78664e-08
8.31512e-06
-7.82352e-08
8.31083e-06
-4.70137e-08
8.2871e-06
-1.06494e-07
8.27022e-06
-1.53644e-07
8.26456e-06
-8.38144e-08
8.25113e-06
-4.93419e-08
8.24042e-06
-5.23862e-08
8.24307e-06
-2.68384e-08
8.24586e-06
1.52271e-08
3.57584e-08
8.24356e-06
8.6984e-06
4.70775e-08
8.68533e-06
-2.05346e-07
8.71452e-06
1.69296e-07
8.68156e-06
-7.17595e-08
8.67703e-06
-3.55753e-08
8.69609e-06
2.82018e-07
8.69161e-06
1.69973e-07
8.70749e-06
1.39672e-07
8.72785e-06
2.0008e-07
8.71669e-06
2.9022e-08
8.71028e-06
-7.18248e-08
8.70728e-06
-4.40142e-08
8.68646e-06
-8.56769e-08
8.67067e-06
-1.3785e-07
8.67088e-06
-8.40244e-08
8.66621e-06
-4.46734e-08
8.65554e-06
-4.17129e-08
8.652e-06
-2.32947e-08
8.65011e-06
1.71116e-08
3.96981e-08
8.64617e-06
9.11545e-06
4.9246e-08
9.09987e-06
-1.89767e-07
9.12864e-06
1.40531e-07
9.10021e-06
-4.33368e-08
9.09332e-06
-2.86812e-08
9.11325e-06
2.62086e-07
9.10923e-06
1.73998e-07
9.12164e-06
1.27263e-07
9.14247e-06
1.79243e-07
9.13286e-06
3.86314e-08
9.12471e-06
-6.36704e-08
9.12301e-06
-4.23152e-08
9.10498e-06
-6.76509e-08
9.08844e-06
-1.21311e-07
9.08742e-06
-8.30039e-08
9.08444e-06
-4.16934e-08
9.0755e-06
-3.27726e-08
9.07122e-06
-1.9013e-08
9.0706e-06
1.77345e-08
4.4768e-08
9.06553e-06
9.55233e-06
5.03786e-08
9.53519e-06
-1.72635e-07
9.56229e-06
1.13439e-07
9.53864e-06
-1.96873e-08
9.5298e-06
-1.98443e-08
9.55005e-06
2.41835e-07
9.54692e-06
1.77128e-07
9.55598e-06
1.18205e-07
9.57652e-06
1.58707e-07
9.56907e-06
4.60786e-08
9.55943e-06
-5.40339e-08
9.55872e-06
-4.16021e-08
9.54406e-06
-5.29951e-08
9.52326e-06
-1.00507e-07
9.513e-06
-7.27415e-08
9.50262e-06
-3.13114e-08
9.48701e-06
-1.71678e-08
9.47562e-06
-7.61869e-09
9.47406e-06
1.92952e-08
4.06728e-08
9.47815e-06
1.00099e-05
5.05779e-08
9.99215e-06
-1.54846e-07
1.00165e-05
8.91323e-08
9.99762e-06
-8.57095e-10
9.98754e-06
-9.75598e-09
1.00074e-05
2.21951e-07
1.00056e-05
1.78931e-07
1.00116e-05
1.12252e-07
1.0031e-05
1.39325e-07
1.00259e-05
5.11211e-08
1.00153e-05
-4.34248e-08
1.0013e-05
-3.9326e-08
1.00006e-05
-4.05455e-08
9.98417e-06
-8.41008e-08
9.98161e-06
-7.01807e-08
9.98281e-06
-3.25116e-08
9.97855e-06
-1.29142e-08
9.97387e-06
-2.93842e-09
9.9726e-06
2.05721e-08
4.77688e-08
9.9655e-06
1.04892e-05
5.00064e-08
1.04716e-05
-1.37185e-07
1.04923e-05
6.84279e-08
1.04781e-05
1.33032e-08
1.04673e-05
1.00577e-09
1.04866e-05
2.02716e-07
1.04861e-05
1.7939e-07
1.04895e-05
1.08865e-07
1.05068e-05
1.21983e-07
1.05043e-05
5.3704e-08
1.04932e-05
-3.24026e-08
1.04904e-05
-3.64939e-08
1.048e-05
-3.01447e-08
1.04599e-05
-6.39934e-08
1.04466e-05
-5.68592e-08
1.04392e-05
-2.51603e-08
1.04297e-05
-3.36764e-09
1.04196e-05
7.17739e-09
1.04163e-05
2.37817e-08
4.44001e-08
1.04197e-05
1.09912e-05
4.8822e-08
1.09742e-05
-1.202e-07
1.0991e-05
5.16614e-08
1.09809e-05
2.33825e-08
1.09703e-05
1.16102e-08
1.09883e-05
1.84669e-07
1.09895e-05
1.78213e-07
1.09907e-05
1.07727e-07
1.10053e-05
1.07318e-07
1.10045e-05
5.44822e-08
1.09934e-05
-2.12849e-08
1.09888e-05
-3.18959e-08
1.09791e-05
-2.03954e-08
1.09607e-05
-4.56051e-08
1.09478e-05
-4.39504e-08
1.09413e-05
-1.86665e-08
1.09341e-05
3.83197e-09
1.09268e-05
1.44744e-08
1.0924e-05
2.65484e-08
4.31274e-08
1.09253e-05
1.1517e-05
4.72209e-08
1.15011e-05
-1.04359e-07
1.15139e-05
3.88396e-08
1.15072e-05
3.00953e-08
1.14973e-05
2.15126e-08
1.1514e-05
1.68013e-07
1.15169e-05
1.7531e-07
1.15161e-05
1.085e-07
1.15277e-05
9.56951e-08
1.15279e-05
5.42809e-08
1.15168e-05
-1.01133e-08
1.15104e-05
-2.55657e-08
1.15023e-05
-1.22405e-08
1.14865e-05
-2.98333e-08
1.14736e-05
-3.10525e-08
1.14673e-05
-1.23346e-08
1.14621e-05
8.98467e-09
1.14567e-05
1.99496e-08
1.14533e-05
2.9855e-08
4.26763e-08
1.14538e-05
1.20677e-05
4.53405e-08
1.20533e-05
-8.99473e-08
1.20624e-05
2.97229e-08
1.20582e-05
3.42654e-08
1.20495e-05
3.02427e-08
1.20648e-05
1.52695e-07
1.20692e-05
1.709e-07
1.20671e-05
1.10622e-07
1.20754e-05
8.7405e-08
1.2076e-05
5.36478e-08
1.20655e-05
4.68724e-10
1.20579e-05
-1.79716e-08
1.20509e-05
-5.32782e-09
1.20376e-05
-1.65006e-08
1.20255e-05
-1.88918e-08
1.20189e-05
-5.74082e-09
1.20146e-05
1.32041e-08
1.20102e-05
2.4379e-08
1.20073e-05
3.27409e-08
4.29426e-08
1.20071e-05
1.26446e-05
4.33088e-08
1.26318e-05
-7.70964e-08
1.26378e-05
2.36721e-08
1.26352e-05
3.68545e-08
1.26279e-05
3.75565e-08
1.26419e-05
1.38762e-07
1.26477e-05
1.65025e-07
1.26448e-05
1.13574e-07
1.26499e-05
8.22964e-08
1.26505e-05
5.30594e-08
1.2641e-05
9.9654e-09
1.26326e-05
-9.59481e-09
1.26261e-05
1.13985e-09
1.26151e-05
-5.41873e-09
1.26039e-05
-7.71856e-09
1.25972e-05
8.9983e-10
1.25934e-05
1.70269e-08
1.25897e-05
2.8089e-08
1.25876e-05
3.48136e-08
4.33948e-08
1.25872e-05
1.3249e-05
4.12004e-08
1.32378e-05
-6.5845e-08
1.32414e-05
2.00394e-08
1.32397e-05
3.85979e-08
1.32337e-05
4.35358e-08
1.32464e-05
1.26061e-07
1.32537e-05
1.57748e-07
1.32504e-05
1.16855e-07
1.32525e-05
8.01449e-08
1.32526e-05
5.29974e-08
1.32443e-05
1.82684e-08
1.32357e-05
-9.78215e-10
1.32295e-05
7.33831e-09
1.32202e-05
3.85856e-09
1.32102e-05
2.27472e-09
1.32034e-05
7.76527e-09
1.32e-05
2.03805e-08
1.3197e-05
3.107e-08
1.31952e-05
3.66498e-08
4.34062e-08
1.31952e-05
1.38823e-05
3.90487e-08
1.38725e-05
-5.60336e-08
1.38745e-05
1.80617e-08
1.38731e-05
3.9972e-08
1.38681e-05
4.85141e-08
1.38798e-05
1.14431e-07
1.38882e-05
1.49275e-07
1.38852e-05
1.1991e-07
1.38848e-05
8.04887e-08
1.38841e-05
5.37355e-08
1.38769e-05
2.5438e-08
1.38685e-05
7.42782e-09
1.38624e-05
1.34332e-08
1.38543e-05
1.20156e-08
1.38455e-05
1.10538e-08
1.38389e-05
1.43244e-08
1.38358e-05
2.35473e-08
1.38336e-05
3.3274e-08
1.38316e-05
3.8643e-08
4.2932e-08
1.3832e-05
1.45458e-05
3.68773e-08
1.45373e-05
-4.75203e-08
1.45381e-05
1.72452e-08
1.45369e-05
4.11909e-08
1.45325e-05
5.2887e-08
1.45431e-05
1.0384e-07
1.45527e-05
1.39686e-07
1.45505e-05
1.22119e-07
1.4548e-05
8.29796e-08
1.45463e-05
5.54644e-08
1.45401e-05
3.16066e-08
1.45322e-05
1.53206e-08
1.45261e-05
1.95309e-08
1.45189e-05
1.92603e-08
1.45114e-05
1.85597e-08
1.45052e-05
2.04809e-08
1.45019e-05
2.68649e-08
1.45004e-05
3.47491e-08
1.44988e-05
4.0292e-08
4.26375e-08
1.44991e-05
1.52411e-05
3.46891e-08
1.52336e-05
-4.00713e-08
1.52336e-05
1.72747e-08
1.52327e-05
4.21146e-08
1.52285e-05
5.70202e-08
1.52379e-05
9.44388e-08
1.52484e-05
1.29239e-07
1.52474e-05
1.231e-07
1.52434e-05
8.69813e-08
1.52406e-05
5.82314e-08
1.52353e-05
3.69472e-08
1.52281e-05
2.25148e-08
1.52222e-05
2.54311e-08
1.52156e-05
2.58205e-08
1.5209e-05
2.51965e-08
1.52035e-05
2.59986e-08
1.52001e-05
3.0279e-08
1.5199e-05
3.57726e-08
1.51982e-05
4.11704e-08
4.30047e-08
1.51978e-05
1.59695e-05
3.24986e-08
1.5963e-05
-3.35044e-08
1.59622e-05
1.80218e-08
1.59616e-05
4.2675e-08
1.59576e-05
6.10458e-08
1.59653e-05
8.67433e-08
1.59764e-05
1.18172e-07
1.5977e-05
1.2245e-07
1.59724e-05
9.16569e-08
1.59685e-05
6.20579e-08
1.59637e-05
4.17462e-08
1.59573e-05
2.89235e-08
1.59518e-05
3.09066e-08
1.5946e-05
3.17028e-08
1.594e-05
3.11604e-08
1.59352e-05
3.07765e-08
1.59319e-05
3.3559e-08
1.59308e-05
3.68997e-08
1.59308e-05
4.11808e-08
4.3588e-08
1.59302e-05
1.67328e-05
3.03371e-08
1.6727e-05
-2.77019e-08
1.67255e-05
1.95003e-08
1.67251e-05
4.30353e-08
1.67211e-05
6.5072e-08
1.67262e-05
8.16012e-08
1.67375e-05
1.06913e-07
1.67402e-05
1.19712e-07
1.6736e-05
9.58511e-08
1.67315e-05
6.66476e-08
1.67269e-05
4.62908e-08
1.67215e-05
3.4375e-08
1.67166e-05
3.57542e-08
1.67115e-05
3.68172e-08
1.67061e-05
3.65046e-08
1.67018e-05
3.51164e-08
1.6699e-05
3.64059e-08
1.66975e-05
3.83197e-08
1.66981e-05
4.06619e-08
4.36501e-08
1.6698e-05
1.75324e-05
2.8258e-08
1.75274e-05
-2.26388e-08
1.75251e-05
2.17951e-08
1.75248e-05
4.33292e-08
1.75207e-05
6.91174e-08
1.75227e-05
7.96206e-08
1.75326e-05
9.70445e-08
1.75382e-05
1.14068e-07
1.75359e-05
9.82137e-08
1.75311e-05
7.14295e-08
1.75266e-05
5.08048e-08
1.75219e-05
3.90289e-08
1.75179e-05
3.97859e-08
1.75136e-05
4.11255e-08
1.7509e-05
4.10536e-08
1.7505e-05
3.91704e-08
1.75027e-05
3.86498e-08
1.75012e-05
3.98782e-08
1.75018e-05
4.00809e-08
4.29798e-08
1.75024e-05
1.83703e-05
2.6321e-08
1.83659e-05
-1.82664e-08
1.83628e-05
2.48986e-08
1.83626e-05
4.35576e-08
1.83593e-05
7.23776e-08
1.83592e-05
7.9744e-08
1.83667e-05
8.95643e-08
1.83739e-05
1.06814e-07
1.83736e-05
9.8562e-08
1.83691e-05
7.59492e-08
1.83645e-05
5.53697e-08
1.83604e-05
4.31544e-08
1.83573e-05
4.28949e-08
1.83539e-05
4.4481e-08
1.83504e-05
4.45442e-08
1.83468e-05
4.28225e-08
1.83448e-05
4.06629e-08
1.83435e-05
4.11007e-08
1.83435e-05