/*--------------------------------*- C++ -*----------------------------------*\
| =========                 |                                                 |
| \\      /  F ield         | OpenFOAM: The Open Source CFD Toolbox           |
|  \\    /   O peration     | Version:  v1912                                 |
|   \\  /    A nd           | Website:  www.openfoam.com                      |
|    \\/     M anipulation  |                                                 |
\*---------------------------------------------------------------------------*/
FoamFile
{
    version     2.0;
    format      ascii;
    class       volScalarField;
    location    "5.7";
    object      p;
}
// * * * * * * * * * * * * * * * * * * * * * * * * * * * * * * * * * * * * * //

dimensions      [0 2 -2 0 0 0 0];


internalField   nonuniform List<scalar> 
9600
(
-7.03859e-11
-0.00175014
-0.00280796
0.000988002
-0.00351162
-0.00175416
0.00186431
-0.000304765
-0.00222842
-0.00292727
-0.00342228
-0.0054891
-0.00846897
-0.00664909
-0.00885093
-0.00834716
-0.00964694
-0.0101134
-0.0112145
-0.0114908
2.06404e-06
-0.00175545
-0.00279733
0.000941966
-0.00350802
-0.00171583
0.0018193
-0.000309482
-0.0022201
-0.00295265
-0.00340008
-0.00550567
-0.00844434
-0.00668597
-0.00883105
-0.00835025
-0.0096374
-0.0101282
-0.011185
-0.0115203
4.13074e-06
-0.00176162
-0.00279101
0.000891777
-0.00349341
-0.00166877
0.00177003
-0.000315211
-0.00221401
-0.00298335
-0.00338125
-0.00552344
-0.00841295
-0.00672517
-0.00878549
-0.00836264
-0.00961279
-0.0101535
-0.011153
-0.0115511
4.81412e-06
-0.00176873
-0.00278942
0.000837295
-0.00346697
-0.0016307
0.00170914
-0.000326557
-0.00221296
-0.00302035
-0.00337665
-0.00554119
-0.00836796
-0.00677598
-0.00873266
-0.00838562
-0.00958809
-0.010187
-0.0111329
-0.0115923
4.08682e-06
-0.00177692
-0.00279076
0.000781365
-0.00342553
-0.00160652
0.00163414
-0.000338937
-0.00221547
-0.00306391
-0.00338191
-0.00555616
-0.00830887
-0.00683763
-0.00867407
-0.00841692
-0.0095696
-0.0102235
-0.0111244
-0.0116314
2.25952e-06
-0.00178601
-0.0027941
0.000727657
-0.00336917
-0.00159917
0.00154822
-0.000351613
-0.00222076
-0.0031117
-0.00339275
-0.00557034
-0.00823878
-0.00690755
-0.00861328
-0.00845315
-0.00955545
-0.0102563
-0.0111266
-0.011662
-3.58704e-07
-0.00179588
-0.00279865
0.000677527
-0.00330156
-0.00160739
0.00145495
-0.00036534
-0.00222809
-0.003162
-0.0034069
-0.00558633
-0.00816203
-0.00697925
-0.00855189
-0.00848882
-0.00954211
-0.0102853
-0.0111398
-0.0116837
-3.49083e-06
-0.00180642
-0.00280376
0.00063001
-0.0032279
-0.00162716
0.00135674
-0.000381096
-0.00223644
-0.00321401
-0.00342243
-0.00560506
-0.00808089
-0.00704843
-0.00849151
-0.00851877
-0.00953201
-0.0103124
-0.0111608
-0.0116999
-6.91056e-06
-0.00181762
-0.00280906
0.000583374
-0.00315247
-0.00165463
0.00125457
-0.00039958
-0.00224477
-0.0032676
-0.00343784
-0.00562502
-0.00799688
-0.00711291
-0.00843283
-0.00854091
-0.00952845
-0.0103351
-0.0111868
-0.011717
-1.04871e-05
-0.00182959
-0.00281438
0.000536143
-0.00307782
-0.00168687
0.00114878
-0.000421093
-0.00225246
-0.00332324
-0.00345193
-0.00564378
-0.00791147
-0.00717127
-0.00837683
-0.0085551
-0.00953121
-0.0103509
-0.0112184
-0.0117395
-1.41981e-05
-0.00184248
-0.00281959
0.000487393
-0.00300497
-0.00172202
0.00103948
-0.000445571
-0.00225942
-0.00338125
-0.00346384
-0.00565972
-0.0078261
-0.00722241
-0.00832526
-0.00856031
-0.00953903
-0.0103611
-0.0112554
-0.0117679
-1.8104e-05
-0.00185652
-0.00282454
0.000436682
-0.00293403
-0.00175896
0.000926881
-0.000472772
-0.00226608
-0.00344169
-0.00347327
-0.00567259
-0.0077423
-0.00726597
-0.00827967
-0.00855531
-0.0095524
-0.010368
-0.0112939
-0.011803
-2.23084e-05
-0.00187188
-0.002829
0.000383862
-0.00286464
-0.00179696
0.000811389
-0.000502441
-0.00227331
-0.00350424
-0.00348042
-0.00568312
-0.00766161
-0.00730182
-0.00824149
-0.00854012
-0.00957197
-0.0103732
-0.011329
-0.011847
-2.69236e-05
-0.0018887
-0.0028327
0.000328918
-0.0027962
-0.00183542
0.000693402
-0.000534355
-0.002282
-0.00356834
-0.00348581
-0.00569261
-0.00758569
-0.00732958
-0.00821221
-0.00851584
-0.00959706
-0.0103792
-0.0113564
-0.011901
-3.20438e-05
-0.00190703
-0.00283535
0.000271864
-0.00272802
-0.00187377
0.000573243
-0.000568332
-0.00229287
-0.00363335
-0.00349011
-0.00570191
-0.00751602
-0.00734876
-0.00819292
-0.00848423
-0.00962596
-0.0103901
-0.0113725
-0.0119629
-3.77284e-05
-0.0019268
-0.00283673
0.000212694
-0.00265941
-0.00191153
0.000451127
-0.000604249
-0.00230641
-0.00369874
-0.00349409
-0.00571106
-0.00745369
-0.00735905
-0.00818421
-0.00844767
-0.00965599
-0.0104103
-0.0113744
-0.0120286
-4.40042e-05
-0.00194792
-0.00283675
0.000151379
-0.00258994
-0.00194836
0.000327129
-0.000642053
-0.00232286
-0.00376427
-0.00349852
-0.0057196
-0.00739959
-0.00736019
-0.00818588
-0.00840895
-0.00968324
-0.0104435
-0.0113618
-0.012092
-5.08819e-05
-0.00197024
-0.00283546
8.79393e-05
-0.00251961
-0.00198406
0.000201203
-0.000681784
-0.00234225
-0.00382988
-0.00350402
-0.00572674
-0.0073544
-0.00735204
-0.00819637
-0.00837128
-0.00970298
-0.0104914
-0.0113366
-0.0121458
-5.83781e-05
-0.00199364
-0.00283302
2.24338e-05
-0.00244885
-0.00201859
7.31697e-05
-0.000723537
-0.00236449
-0.00389559
-0.00351114
-0.00573145
-0.00731897
-0.00733436
-0.00821272
-0.00833832
-0.00971077
-0.0105536
-0.0113031
-0.0121821
-6.65304e-05
-0.002018
-0.00282965
-4.50558e-05
-0.00237842
-0.00205196
-5.7253e-05
-0.000767396
-0.00238931
-0.00396156
-0.00352034
-0.00573257
-0.00729417
-0.00730161
-0.0082312
-0.00831375
-0.0097037
-0.0106279
-0.0112671
-0.0121939
-7.54021e-05
-0.00204323
-0.00282561
-0.000114378
-0.0023093
-0.00208416
-0.000190291
-0.000813429
-0.00241636
-0.00402804
-0.00353221
-0.00572881
-0.00728036
-0.00726643
-0.00824778
-0.00830073
-0.00968079
-0.0107103
-0.0112354
-0.0121757
-8.50782e-05
-0.0020692
-0.00282116
-0.000185321
-0.00224243
-0.00211509
-0.00032607
-0.000861746
-0.00244529
-0.00409531
-0.00354741
-0.00571893
-0.00727724
-0.00722769
-0.00825888
-0.00830176
-0.00964259
-0.010795
-0.0112145
-0.0121248
-9.56692e-05
-0.00209579
-0.0028166
-0.000257655
-0.00217868
-0.00214451
-0.00046465
-0.000912537
-0.00247577
-0.00416353
-0.00356645
-0.00570217
-0.00728433
-0.00718722
-0.00826174
-0.00831867
-0.00959103
-0.010875
-0.0112101
-0.0120428
-0.000107308
-0.00212286
-0.0028122
-0.000331091
-0.00211881
-0.00217218
-0.000605965
-0.000966105
-0.00250745
-0.00423264
-0.00358981
-0.00567814
-0.00730101
-0.00714714
-0.00825368
-0.0083519
-0.00952974
-0.0109428
-0.0112267
-0.0119357
-0.000120142
-0.00215023
-0.0028083
-0.0004053
-0.00206351
-0.00219788
-0.000749793
-0.00102283
-0.00253983
-0.00430276
-0.00361817
-0.00564643
-0.00732624
-0.00711022
-0.0082323
-0.00840059
-0.00946414
-0.0109903
-0.0112652
-0.011814
-0.000134333
-0.0021777
-0.00280525
-0.000479949
-0.00201338
-0.00222143
-0.000895807
-0.00108311
-0.00257238
-0.00437409
-0.0036522
-0.00560659
-0.0073586
-0.00707933
-0.00819573
-0.00846278
-0.00940064
-0.0110096
-0.0113225
-0.0116916
-0.000150064
-0.00220504
-0.00280339
-0.000554662
-0.00196901
-0.00224272
-0.00104352
-0.00114753
-0.00260461
-0.00444664
-0.00369286
-0.00555823
-0.0073963
-0.00705751
-0.00814245
-0.00853533
-0.00934595
-0.0109952
-0.0113918
-0.0115842
-0.000167544
-0.00223199
-0.00280315
-0.000629068
-0.00193084
-0.00226172
-0.00119229
-0.00121686
-0.00263593
-0.00452026
-0.00374133
-0.00550109
-0.00743721
-0.00704804
-0.00807114
-0.00861342
-0.00930724
-0.0109441
-0.0114617
-0.0115068
-0.000186996
-0.00225824
-0.00280496
-0.000702829
-0.00189925
-0.00227856
-0.00134142
-0.00129183
-0.00266572
-0.00459462
-0.00379863
-0.00543523
-0.00747874
-0.00705438
-0.00798157
-0.00869023
-0.00929129
-0.0108589
-0.0115189
-0.0114689
-0.000208676
-0.00228349
-0.00280922
-0.000775665
-0.0018745
-0.00229353
-0.00148999
-0.00137336
-0.00269353
-0.004669
-0.00386587
-0.00536126
-0.00751751
-0.00707983
-0.00787583
-0.00875759
-0.00930319
-0.0107481
-0.0115472
-0.0114706
-0.00023285
-0.00230728
-0.00281641
-0.000847284
-0.00185671
-0.00230714
-0.00163679
-0.00146249
-0.00271921
-0.00474218
-0.00394432
-0.00528081
-0.00754935
-0.00712697
-0.00775833
-0.00880597
-0.00934474
-0.0106244
-0.0115312
-0.0115004
-0.000259786
-0.00232926
-0.00282699
-0.000917423
-0.00184583
-0.00232006
-0.00178051
-0.00156029
-0.00274297
-0.00481244
-0.00403499
-0.0051962
-0.00756935
-0.00719726
-0.00763593
-0.00882552
-0.00941214
-0.0105034
-0.011461
-0.0115366
-0.000289801
-0.00234897
-0.00284135
-0.000986044
-0.00184151
-0.00233335
-0.00191965
-0.00166741
-0.00276558
-0.00488177
-0.00413869
-0.00511036
-0.00757266
-0.00729001
-0.00751713
-0.00880823
-0.00949581
-0.0104024
-0.0113398
-0.0115549
-0.000323205
-0.00236599
-0.00285991
-0.00105321
-0.00184325
-0.00234826
-0.00205234
-0.00178391
-0.00278858
-0.00493894
-0.00425579
-0.00502721
-0.0075548
-0.0074025
-0.0074114
-0.00874941
-0.00958313
-0.0103346
-0.0111845
-0.0115292
-0.000360323
-0.00237988
-0.0028829
-0.00111917
-0.0018504
-0.00236628
-0.00217672
-0.0019093
-0.00281441
-0.00498646
-0.00438551
-0.00495147
-0.00751195
-0.00753014
-0.00732909
-0.00865044
-0.00966033
-0.010304
-0.0110158
-0.0114419
-0.000401524
-0.00239023
-0.00291044
-0.0011844
-0.0018618
-0.00238927
-0.00229172
-0.00204219
-0.00284582
-0.0050226
-0.00452575
-0.00488841
-0.00744313
-0.0076661
-0.00727837
-0.00851804
-0.00971442
-0.010305
-0.0108544
-0.0112975
-0.000447152
-0.00239663
-0.00294253
-0.00124959
-0.00187596
-0.0024188
-0.00239698
-0.00217993
-0.00288552
-0.00504663
-0.00467365
-0.00484264
-0.0073498
-0.00780198
-0.00726418
-0.00836042
-0.00973459
-0.0103285
-0.0107132
-0.0111144
-0.000497568
-0.00239876
-0.00297893
-0.0013166
-0.00189121
-0.0024559
-0.00249321
-0.00231927
-0.00293568
-0.0050593
-0.00482548
-0.00481843
-0.00723406
-0.0079285
-0.00728971
-0.00818807
-0.00971096
-0.0103662
-0.0105991
-0.0109095
-0.000553127
-0.00239639
-0.00301919
-0.00138745
-0.00190551
-0.0025009
-0.00258275
-0.00245634
-0.00299764
-0.00506291
-0.00497532
-0.00481916
-0.00710178
-0.00803443
-0.00735372
-0.00801711
-0.00963473
-0.0104028
-0.0105149
-0.0107025
-0.000614118
-0.00238949
-0.00306254
-0.00146347
-0.00191727
-0.00255329
-0.00266876
-0.00258709
-0.00307115
-0.00506137
-0.00511726
-0.00484386
-0.00696559
-0.00811427
-0.00744704
-0.00786356
-0.0095108
-0.0104236
-0.0104502
-0.0104946
-0.000680758
-0.00237815
-0.00310804
-0.00154668
-0.00192534
-0.00261159
-0.00275458
-0.00270876
-0.00315454
-0.005058
-0.00525039
-0.00489117
-0.0068296
-0.00816935
-0.00756462
-0.00773322
-0.0093482
-0.0104245
-0.0104018
-0.0102766
-0.000753258
-0.00236265
-0.00315417
-0.0016392
-0.00192994
-0.00267284
-0.00284373
-0.00282015
-0.00324466
-0.00505638
-0.00537227
-0.00496092
-0.00669746
-0.00819307
-0.00770045
-0.00763704
-0.00915584
-0.0103952
-0.0103717
-0.0100561
-0.000831687
-0.00234365
-0.00319922
-0.00174279
-0.00193048
-0.00273333
-0.00293887
-0.00292142
-0.00333635
-0.00506135
-0.00548222
-0.0050463
-0.00657838
-0.00818444
-0.00783869
-0.00758189
-0.00894939
-0.010326
-0.0103595
-0.00984168
-0.00091616
-0.00232179
-0.00324103
-0.00185911
-0.00193139
-0.00278937
-0.00304067
-0.00301581
-0.00342459
-0.00507172
-0.00558513
-0.00514069
-0.00647076
-0.00814795
-0.00797278
-0.00756516
-0.00873422
-0.0101806
-0.0103376
-0.00973103
-0.00100672
-0.00229822
-0.00327713
-0.00198813
-0.00193733
-0.00283634
-0.0031491
-0.0031065
-0.00350532
-0.00508726
-0.00568193
-0.00524482
-0.00637327
-0.00807604
-0.00807589
-0.00757334
-0.00852092
-0.00999426
-0.0103235
-0.00973425
-0.00110314
-0.00227431
-0.00330553
-0.00212955
-0.00195135
-0.00287234
-0.00326221
-0.0031981
-0.00357672
-0.00510428
-0.00577501
-0.00535583
-0.00628522
-0.00797468
-0.00814347
-0.00759101
-0.00831573
-0.00979807
-0.0103155
-0.00983455
-0.00120502
-0.00225163
-0.00332405
-0.00228199
-0.0019776
-0.00289684
-0.00337621
-0.00329552
-0.00363852
-0.00511568
-0.00586618
-0.00547616
-0.00620629
-0.00784763
-0.00820771
-0.00765565
-0.00817273
-0.00961123
-0.0102942
-0.00990117
-0.00131181
-0.00223225
-0.00333139
-0.00244138
-0.00202104
-0.00291021
-0.00348743
-0.00340018
-0.00369132
-0.00511909
-0.00595117
-0.00560627
-0.0061455
-0.0076956
-0.00822323
-0.00773337
-0.00804346
-0.00940267
-0.0102412
-0.0100123
-0.00142246
-0.00221815
-0.00332641
-0.00260426
-0.00208498
-0.00291581
-0.00359007
-0.00351415
-0.0037402
-0.00510604
-0.00602793
-0.00574938
-0.00610911
-0.00753375
-0.00821348
-0.00784058
-0.00797357
-0.00917689
-0.0101514
-0.0100624
-0.00153577
-0.00221147
-0.00330917
-0.00276534
-0.00217226
-0.00291859
-0.00368047
-0.00363518
-0.00379069
-0.00507887
-0.00608841
-0.00590193
-0.00610697
-0.00737198
-0.00818075
-0.0079574
-0.00795003
-0.00894569
-0.010001
-0.0100616
-0.00165065
-0.00221374
-0.00328094
-0.00291962
-0.00228413
-0.00292394
-0.00375587
-0.00376113
-0.0038477
-0.00504101
-0.00612675
-0.00605673
-0.00614309
-0.00722506
-0.00810921
-0.00804879
-0.00797366
-0.00873776
-0.00978708
-0.0100212
-0.00176533
-0.0022261
-0.00324455
-0.00306208
-0.00241967
-0.00293768
-0.00381592
-0.003889
-0.00391414
-0.00499783
-0.00614263
-0.00620463
-0.00621138
-0.00709819
-0.00800221
-0.00810707
-0.00802944
-0.0085729
-0.00952533
-0.00992129
-0.0018787
-0.00224945
-0.00320348
-0.00318963
-0.00257495
-0.00296506
-0.0038619
-0.00401478
-0.00399309
-0.00495522
-0.00613332
-0.00633638
-0.00630312
-0.00699781
-0.007877
-0.00812259
-0.0080812
-0.00846285
-0.00926354
-0.00975383
-0.00198958
-0.00228357
-0.00316275
-0.00329995
-0.00274232
-0.0030101
-0.00389711
-0.00413611
-0.00408497
-0.00491696
-0.00610126
-0.00644385
-0.00640828
-0.00692956
-0.00774152
-0.00809446
-0.008116
-0.00839733
-0.00904137
-0.0095444
-0.00209715
-0.00232812
-0.00312702
-0.00339103
-0.0029141
-0.00307525
-0.00392752
-0.00425038
-0.00418853
-0.00488931
-0.00604908
-0.00651881
-0.00651708
-0.00689431
-0.0076051
-0.00803342
-0.00813252
-0.0083513
-0.00886389
-0.00932764
-0.00220109
-0.00238179
-0.0030993
-0.0034639
-0.00308392
-0.00316077
-0.00395691
-0.00435668
-0.00430409
-0.00487514
-0.0059799
-0.00655909
-0.00661828
-0.00688901
-0.00748442
-0.00794656
-0.00812438
-0.00830923
-0.00871521
-0.00912588
-0.00230084
-0.0024433
-0.00308221
-0.00352081
-0.00324598
-0.003264
-0.00398871
-0.004455
-0.00443152
-0.00487869
-0.00589863
-0.00656278
-0.00670227
-0.00690712
-0.0073894
-0.00784072
-0.00808494
-0.00826811
-0.00858293
-0.00893739
-0.00239672
-0.00251131
-0.00307683
-0.00356526
-0.00339795
-0.00338066
-0.00402549
-0.0045438
-0.00456787
-0.00490546
-0.00581096
-0.00653032
-0.00676251
-0.00693778
-0.00732224
-0.00773205
-0.00801466
-0.00822025
-0.00846463
-0.00875432
-0.00248909
-0.00258434
-0.00308401
-0.00360122
-0.00353898
-0.00350654
-0.00406732
-0.00462064
-0.00470877
-0.00495819
-0.00572871
-0.00646728
-0.00679215
-0.00697101
-0.00727993
-0.007636
-0.00792173
-0.00815341
-0.00836197
-0.00858201
-0.00257825
-0.00266111
-0.003104
-0.0036327
-0.00366743
-0.00363854
-0.00411625
-0.00468206
-0.0048436
-0.0050345
-0.00566471
-0.00638225
-0.00678795
-0.00699797
-0.00725482
-0.00755849
-0.00782266
-0.00806421
-0.00826668
-0.00842656
-0.0026648
-0.00274068
-0.00313615
-0.00366318
-0.00378306
-0.00377286
-0.00417424
-0.00472898
-0.00496175
-0.0051281
-0.00562776
-0.00628816
-0.00675185
-0.00700904
-0.00723922
-0.00749918
-0.00773303
-0.00795968
-0.00816493
-0.00828864
-0.00274931
-0.00282241
-0.00317945
-0.0036948
-0.00388669
-0.00390523
-0.00424128
-0.00476637
-0.00505798
-0.00523035
-0.00562152
-0.00619873
-0.00668944
-0.0069966
-0.0072248
-0.00745249
-0.00765892
-0.00785352
-0.00805
-0.00816115
-0.00283263
-0.00290551
-0.00323237
-0.00372926
-0.003979
-0.00403263
-0.00431651
-0.00479982
-0.00513207
-0.00532927
-0.00564191
-0.00612623
-0.00660975
-0.00695906
-0.00720106
-0.00741074
-0.00759899
-0.00775893
-0.00792792
-0.00803476
-0.00291509
-0.00298944
-0.00329333
-0.00376768
-0.00406137
-0.00415314
-0.00439777
-0.00483374
-0.00518826
-0.00541516
-0.00568004
-0.00607772
-0.00652497
-0.00689972
-0.00716321
-0.00736567
-0.00754583
-0.00768307
-0.00781135
-0.00790435
-0.0029971
-0.00307365
-0.00336089
-0.00381073
-0.00413533
-0.0042654
-0.00448299
-0.00487077
-0.00523116
-0.0054848
-0.00572505
-0.00605267
-0.00644786
-0.00682353
-0.00711028
-0.00731308
-0.00749019
-0.0076215
-0.00771087
-0.00777428
-0.00307898
-0.00315752
-0.00343348
-0.0038591
-0.00420271
-0.00436854
-0.00456991
-0.00491247
-0.00526444
-0.00553804
-0.00576801
-0.00604417
-0.00638728
-0.00674053
-0.00704225
-0.00725375
-0.00742524
-0.00756198
-0.00762931
-0.00765448
-0.00316094
-0.0032407
-0.00350969
-0.003913
-0.0042653
-0.0044622
-0.00465578
-0.00495939
-0.00529334
-0.00557643
-0.00580364
-0.00604507
-0.00634342
-0.00666214
-0.00696057
-0.00718645
-0.00735304
-0.00749362
-0.00755897
-0.00755242
-0.00324313
-0.00332306
-0.00358787
-0.00397217
-0.00432511
-0.00454688
-0.00473835
-0.0050104
-0.00532246
-0.00560365
-0.00582888
-0.00604888
-0.00631113
-0.00659567
-0.00687346
-0.00710875
-0.00727709
-0.00741284
-0.00748702
-0.00746378
-0.0033255
-0.00340445
-0.00366658
-0.00403588
-0.00438409
-0.00462379
-0.00481681
-0.00506375
-0.00535293
-0.00562403
-0.00584397
-0.00604995
-0.00628424
-0.00654084
-0.00679181
-0.0070231
-0.00719941
-0.00732678
-0.00740484
-0.00737953
-0.00340783
-0.00348503
-0.0037449
-0.00410312
-0.00444336
-0.00469404
-0.0048907
-0.00511954
-0.0053847
-0.00564057
-0.00585242
-0.00604458
-0.00625595
-0.0064906
-0.00671911
-0.00693499
-0.00711717
-0.00724362
-0.00731981
-0.00729861
-0.00348961
-0.00356467
-0.003822
-0.00417285
-0.00450494
-0.00475951
-0.00495853
-0.00517698
-0.00541923
-0.00565464
-0.0058576
-0.00603469
-0.00622282
-0.00643729
-0.00664722
-0.00684497
-0.00702522
-0.00715884
-0.00723476
-0.00721998
-0.00357036
-0.00364368
-0.00389757
-0.00424304
-0.00456887
-0.00482448
-0.00502224
-0.00523303
-0.00545775
-0.00566923
-0.00585932
-0.00602255
-0.0061868
-0.00637885
-0.00656991
-0.00675018
-0.00692058
-0.0070608
-0.00714272
-0.00713495
-0.00364884
-0.00372137
-0.00397247
-0.0043135
-0.00463318
-0.00488872
-0.00508682
-0.00528963
-0.00549848
-0.00568874
-0.00586041
-0.00600757
-0.0061491
-0.00631649
-0.00648614
-0.006647
-0.00680198
-0.00693925
-0.00702845
-0.00703082
-0.00372467
-0.00379696
-0.00404571
-0.00438418
-0.00470034
-0.004953
-0.00515128
-0.00534958
-0.00554134
-0.00571269
-0.00586613
-0.00599107
-0.0061093
-0.00625086
-0.00639725
-0.00653507
-0.0066706
-0.00679655
-0.00688307
-0.00688903
-0.00379812
-0.00387149
-0.0041177
-0.00445164
-0.00476787
-0.00502101
-0.00521896
-0.00541549
-0.00559157
-0.00573894
-0.00587349
-0.00597362
-0.00606444
-0.00618088
-0.00630662
-0.00642912
-0.00655118
-0.0066644
-0.00674237
-0.00673908
-0.00386431
-0.00394182
-0.00419032
-0.00452188
-0.00483598
-0.00509115
-0.00529239
-0.00548999
-0.00565791
-0.00577561
-0.00586593
-0.00591525
-0.00594165
-0.00599731
-0.00608648
-0.00620347
-0.00634699
-0.00651434
-0.00667946
-0.00678819
-0.00392531
-0.00400691
-0.00426215
-0.00459526
-0.00491026
-0.00516636
-0.00537523
-0.00559057
-0.00579318
-0.00595845
-0.0060568
-0.00605186
-0.00597192
-0.00589788
-0.00587224
-0.00585252
-0.00579816
-0.00570107
-0.00557763
-0.00547505
-0.00397377
-0.00405074
-0.00429915
-0.00463625
-0.00496624
-0.00523449
-0.00544429
-0.00563992
-0.00578014
-0.00585513
-0.00588451
-0.00586381
-0.00581987
-0.00580339
-0.00584227
-0.00594309
-0.00609336
-0.00628125
-0.0064796
-0.00663824
-0.00406597
-0.00416759
-0.00439041
-0.00469655
-0.00501373
-0.00528314
-0.00549114
-0.00567553
-0.00581156
-0.00587359
-0.00589869
-0.00589926
-0.00584876
-0.00578795
-0.0057425
-0.00567762
-0.00556815
-0.00542617
-0.00530368
-0.00524629
-0.00400466
-0.00409896
-0.00438744
-0.00477418
-0.00516532
-0.00547842
-0.00570146
-0.00587826
-0.00597335
-0.00597819
-0.00592342
-0.00585427
-0.00575118
-0.00564399
-0.00558179
-0.00554359
-0.0055056
-0.00547427
-0.00549191
-0.00558486
-0.01152
-0.0124365
-0.01712
-0.021489
-0.0221973
-0.020807
-0.0190747
-0.0173361
-0.0156947
-0.0142853
-0.0132078
-0.0124645
-0.0119197
-0.0114625
-0.0110241
-0.0104765
-0.0098433
-0.00928485
-0.0088199
-0.0084186
-0.0080691
-0.00766601
-0.00736603
-0.00738232
-0.00736368
-0.00696762
-0.00646081
-0.00610125
-0.00568016
-0.00511948
-0.00460163
-0.00420509
-0.0038898
-0.00356041
-0.00315227
-0.00269761
-0.00218903
-0.00163688
-0.00135563
-0.00169412
-0.00224168
-0.00221687
-0.00147294
-0.000488251
0.000246378
0.000676589
0.00100368
0.0013676
0.00177503
0.00216967
0.00249411
0.00281788
0.00322835
0.00372068
0.00419497
0.00461249
0.00504033
0.00549508
0.00594365
0.00644763
0.00701969
0.00756536
0.00805774
0.00856132
0.00910339
0.00963928
0.0101799
0.0107468
0.0113396
0.0119523
0.0125489
0.0131996
0.0138736
0.0145219
0.0151132
0.0157458
0.0164336
0.0171568
0.0179346
0.0186742
0.0193654
0.0200439
0.0208044
0.021561
0.0223642
0.0231711
0.0239888
0.0247867
0.0256306
0.0265155
0.0273848
0.0282652
0.0291189
0.0300936
0.0310323
0.0319986
0.0330393
0.0340189
0.0350008
0.0360753
-0.0115703
-0.0125055
-0.0170166
-0.0213345
-0.0221119
-0.0207696
-0.0190555
-0.0173249
-0.0156867
-0.0142781
-0.0132001
-0.0124565
-0.0119122
-0.011456
-0.0110189
-0.0104724
-0.00983945
-0.00928125
-0.00881666
-0.00841569
-0.00806666
-0.00766367
-0.00736335
-0.00738005
-0.0073622
-0.00696613
-0.00645897
-0.00609957
-0.00567867
-0.00511785
-0.00459996
-0.00420348
-0.0038883
-0.00355907
-0.00315106
-0.00269654
-0.0021881
-0.00163572
-0.00135394
-0.00169253
-0.00224095
-0.00221664
-0.00147257
-0.000487539
0.000247198
0.000677309
0.00100428
0.00136813
0.00177554
0.00217022
0.00249464
0.00281831
0.00322872
0.00372107
0.00419539
0.00461288
0.00504068
0.00549542
0.00594397
0.0064479
0.00701997
0.00756566
0.00805802
0.00856158
0.00910364
0.00963954
0.0101802
0.0107471
0.0113398
0.0119526
0.0125491
0.0131997
0.0138738
0.0145222
0.0151134
0.0157459
0.0164338
0.017157
0.0179347
0.0186744
0.0193655
0.0200441
0.0208046
0.0215611
0.0223644
0.0231712
0.0239889
0.0247868
0.0256307
0.0265156
0.0273849
0.0282653
0.029119
0.0300937
0.0310324
0.0319987
0.0330394
0.0340191
0.035001
0.0360754
-0.0117565
-0.0126579
-0.0168507
-0.0210593
-0.021966
-0.0207125
-0.0190231
-0.0173032
-0.0156732
-0.0142704
-0.0131954
-0.0124522
-0.0119067
-0.0114496
-0.0110129
-0.0104675
-0.0098354
-0.00927772
-0.00881341
-0.0084127
-0.00806422
-0.00766137
-0.00736088
-0.00737831
-0.00736131
-0.00696498
-0.00645745
-0.00609846
-0.00567766
-0.0051164
-0.00459843
-0.00420213
-0.00388712
-0.00355801
-0.00315002
-0.00269563
-0.00218732
-0.00163451
-0.00135207
-0.00169106
-0.00224084
-0.00221708
-0.00147243
-0.000486697
0.000248141
0.00067799
0.00100477
0.00136855
0.00177598
0.0021707
0.00249508
0.00281862
0.00322899
0.0037214
0.00419577
0.0046132
0.00504095
0.0054957
0.0059442
0.0064481
0.00702021
0.00756592
0.00805826
0.00856178
0.00910385
0.00963975
0.0101804
0.0107473
0.01134
0.0119528
0.0125493
0.0131999
0.013874
0.0145223
0.0151136
0.0157461
0.0164339
0.0171571
0.0179349
0.0186746
0.0193657
0.0200442
0.0208047
0.0215612
0.0223645
0.0231713
0.023989
0.0247869
0.0256308
0.0265157
0.027385
0.0282654
0.029119
0.0300938
0.0310325
0.0319987
0.0330395
0.0340192
0.0350011
0.0360757
-0.0119482
-0.0127975
-0.0166322
-0.0206982
-0.0217498
-0.020615
-0.0189627
-0.0172616
-0.0156474
-0.0142574
-0.0131907
-0.01245
-0.0119026
-0.0114423
-0.0110043
-0.0104601
-0.00983008
-0.00927357
-0.00880922
-0.00840831
-0.00806049
-0.00765835
-0.00735814
-0.00737629
-0.00735992
-0.00696341
-0.00645596
-0.00609766
-0.00567675
-0.00511478
-0.00459686
-0.00420093
-0.00388603
-0.00355686
-0.0031488
-0.00269459
-0.00218646
-0.00163304
-0.00134971
-0.00168935
-0.00224102
-0.00221791
-0.00147233
-0.000485578
0.000249336
0.000678776
0.0010053
0.00136901
0.00177647
0.00217125
0.00249556
0.00281892
0.00322924
0.00372177
0.00419619
0.00461355
0.00504124
0.005496
0.00594444
0.00644831
0.00702049
0.00756622
0.0080585
0.00856199
0.00910407
0.00963996
0.0101806
0.0107474
0.0113401
0.011953
0.0125494
0.0132
0.0138742
0.0145226
0.0151137
0.0157462
0.0164341
0.0171572
0.017935
0.0186747
0.0193658
0.0200443
0.0208048
0.0215614
0.0223646
0.0231714
0.0239891
0.024787
0.0256309
0.0265158
0.0273851
0.0282655
0.0291191
0.0300939
0.0310326
0.0319988
0.0330396
0.0340193
0.0350012
0.036076
-0.0121206
-0.012917
-0.0163948
-0.020308
-0.0215004
-0.020495
-0.0188842
-0.0172038
-0.0156096
-0.0142377
-0.0131838
-0.0124483
-0.0118992
-0.0114339
-0.0109925
-0.0104495
-0.00982306
-0.00926883
-0.00880434
-0.00840249
-0.00805512
-0.00765456
-0.00735539
-0.00737374
-0.00735721
-0.0069607
-0.00645418
-0.00609696
-0.00567563
-0.00511272
-0.00459521
-0.00420009
-0.00388524
-0.0035557
-0.0031474
-0.00269338
-0.00218546
-0.00163126
-0.00134683
-0.00168728
-0.00224126
-0.0022189
-0.00147212
-0.000484137
0.000250779
0.000679696
0.00100596
0.00136958
0.00177705
0.00217191
0.00249612
0.00281926
0.00322953
0.0037222
0.0041967
0.00461396
0.00504158
0.00549633
0.0059447
0.00644855
0.00702082
0.00756655
0.00805876
0.00856221
0.00910431
0.00964019
0.0101808
0.0107476
0.0113403
0.0119532
0.0125496
0.0132002
0.0138744
0.0145228
0.0151139
0.0157463
0.0164342
0.0171573
0.0179352
0.018675
0.019366
0.0200444
0.0208049
0.0215615
0.0223647
0.0231716
0.0239892
0.0247871
0.025631
0.0265159
0.0273852
0.0282655
0.0291192
0.030094
0.0310327
0.0319989
0.0330397
0.0340194
0.0350014
0.0360764
-0.0122706
-0.0130311
-0.0161656
-0.0199116
-0.0212341
-0.0203652
-0.018799
-0.0171381
-0.0155642
-0.0142129
-0.0131744
-0.0124455
-0.0118951
-0.0114241
-0.0109784
-0.0104365
-0.0098148
-0.00926378
-0.00879917
-0.00839566
-0.00804838
-0.00765049
-0.00735332
-0.00737101
-0.00735302
-0.00695657
-0.00645176
-0.00609587
-0.00567371
-0.0051097
-0.00459318
-0.00419956
-0.00388491
-0.00355477
-0.0031461
-0.0026923
-0.00218451
-0.00162921
-0.00134337
-0.00168466
-0.00224128
-0.00221981
-0.00147166
-0.000482353
0.000252421
0.000680735
0.00100677
0.00137032
0.00177775
0.00217269
0.00249681
0.0028197
0.00322989
0.00372271
0.00419731
0.00461445
0.00504198
0.00549672
0.00594501
0.00644885
0.00702121
0.00756693
0.00805906
0.00856247
0.00910457
0.00964044
0.010181
0.0107479
0.0113405
0.0119534
0.0125498
0.0132004
0.0138746
0.014523
0.015114
0.0157465
0.0164344
0.0171574
0.0179353
0.0186752
0.0193661
0.0200445
0.020805
0.0215616
0.0223648
0.0231717
0.0239894
0.0247872
0.0256311
0.026516
0.0273854
0.0282657
0.0291192
0.030094
0.0310328
0.0319989
0.0330397
0.0340194
0.0350016
0.036077
-0.0124009
-0.01315
-0.0159552
-0.0195128
-0.0209511
-0.0202271
-0.0187107
-0.0170685
-0.0155141
-0.0141842
-0.0131624
-0.012441
-0.0118893
-0.0114128
-0.0109628
-0.0104225
-0.00980614
-0.00925875
-0.00879409
-0.00838846
-0.00804098
-0.00764679
-0.00735257
-0.00736865
-0.00734783
-0.00695146
-0.00644897
-0.00609412
-0.00567031
-0.00510496
-0.00459017
-0.0041989
-0.00388467
-0.00355394
-0.00314517
-0.00269195
-0.00218429
-0.00162735
-0.00133945
-0.0016813
-0.00224076
-0.00222034
-0.00147072
-0.000480148
0.000254226
0.000681856
0.00100776
0.00137122
0.00177861
0.00217364
0.00249768
0.00282027
0.00323035
0.00372335
0.00419805
0.00461506
0.00504248
0.00549719
0.0059454
0.00644926
0.0070217
0.00756737
0.00805942
0.00856279
0.00910488
0.00964071
0.0101812
0.0107481
0.0113408
0.0119536
0.01255
0.0132006
0.0138749
0.0145233
0.0151142
0.0157467
0.0164346
0.0171575
0.0179355
0.0186755
0.0193664
0.0200446
0.0208052
0.0215618
0.022365
0.0231719
0.0239895
0.0247874
0.0256312
0.0265162
0.0273855
0.0282658
0.0291193
0.0300941
0.0310329
0.031999
0.0330398
0.0340195
0.0350018
0.0360778
-0.0125156
-0.0132762
-0.0157626
-0.019108
-0.0206486
-0.0200803
-0.0186214
-0.0169971
-0.0154605
-0.014152
-0.0131477
-0.0124343
-0.0118818
-0.0114001
-0.0109464
-0.0104081
-0.00979746
-0.00925388
-0.0087893
-0.00838137
-0.00803356
-0.00764383
-0.00735334
-0.00736715
-0.00734238
-0.00694621
-0.00644662
-0.00609226
-0.00566536
-0.00509801
-0.00458561
-0.00419755
-0.00388392
-0.00355264
-0.00314437
-0.00269268
-0.00218566
-0.00162666
-0.00133569
-0.00167732
-0.00223946
-0.00222017
-0.00146903
-0.000477342
0.000256261
0.000683065
0.00100888
0.00137224
0.00177953
0.00217474
0.00249878
0.00282105
0.00323096
0.00372414
0.00419895
0.00461586
0.00504314
0.00549778
0.00594593
0.00644983
0.00702232
0.0075679
0.00805988
0.00856322
0.00910525
0.00964102
0.0101815
0.0107484
0.011341
0.0119539
0.0125502
0.0132008
0.0138751
0.0145236
0.0151144
0.0157469
0.0164348
0.0171577
0.0179357
0.0186758
0.0193666
0.0200448
0.0208053
0.0215619
0.0223651
0.0231721
0.0239897
0.0247875
0.0256313
0.0265163
0.0273856
0.0282659
0.0291194
0.0300942
0.0310329
0.031999
0.0330399
0.0340195
0.035002
0.0360787
-0.0126151
-0.0134018
-0.0155831
-0.0186975
-0.0203272
-0.0199255
-0.0185322
-0.0169248
-0.0154035
-0.0141158
-0.0131301
-0.0124255
-0.0118726
-0.011386
-0.010929
-0.0103934
-0.00978878
-0.00924923
-0.00878491
-0.00837468
-0.00802642
-0.00764153
-0.00735535
-0.00736667
-0.00733723
-0.00694132
-0.0064454
-0.00609124
-0.00565959
-0.00508898
-0.00457937
-0.00419532
-0.00388239
-0.00355038
-0.00314313
-0.00269435
-0.00218924
-0.00162824
-0.00133315
-0.00167341
-0.00223764
-0.00221919
-0.00146632
-0.000473669
0.000258723
0.00068449
0.00101019
0.00137326
0.00178035
0.00217585
0.00250006
0.00282206
0.00323175
0.00372508
0.00420001
0.00461685
0.00504398
0.00549853
0.00594664
0.00645061
0.00702309
0.00756855
0.00806049
0.0085638
0.00910573
0.00964143
0.0101819
0.0107487
0.0113413
0.0119541
0.0125505
0.013201
0.0138754
0.0145238
0.0151145
0.0157471
0.016435
0.0171578
0.017936
0.0186762
0.0193668
0.0200449
0.0208055
0.0215621
0.0223653
0.0231723
0.0239899
0.0247877
0.0256314
0.0265165
0.0273858
0.028266
0.0291194
0.0300943
0.031033
0.0319991
0.03304
0.0340194
0.0350021
0.0360799
-0.0126941
-0.0135181
-0.0154185
-0.0182876
-0.019989
-0.0197609
-0.0184418
-0.0168509
-0.0153426
-0.0140755
-0.0131094
-0.0124148
-0.0118617
-0.0113703
-0.0109105
-0.010378
-0.0097799
-0.00924478
-0.00878108
-0.00836861
-0.00801975
-0.00763968
-0.00735818
-0.00736715
-0.00733263
-0.00693684
-0.00644543
-0.00609186
-0.00565416
-0.00507855
-0.00457162
-0.00419236
-0.00388025
-0.00354719
-0.00314117
-0.00269665
-0.00219526