/*--------------------------------*- C++ -*----------------------------------*\
| =========                 |                                                 |
| \\      /  F ield         | OpenFOAM: The Open Source CFD Toolbox           |
|  \\    /   O peration     | Version:  v1912                                 |
|   \\  /    A nd           | Website:  www.openfoam.com                      |
|    \\/     M anipulation  |                                                 |
\*---------------------------------------------------------------------------*/
FoamFile
{
    version     2.0;
    format      ascii;
    class       surfaceScalarField;
    location    "5.75";
    object      phi;
}
// * * * * * * * * * * * * * * * * * * * * * * * * * * * * * * * * * * * * * //

dimensions      [0 3 -1 0 0 0 0];
oriented        oriented;


internalField   nonuniform List<scalar> 
19000
(
1.1642e-06
-4.22195e-07
1.23925e-06
-5.02765e-07
1.25415e-06
8.6308e-07
1.05157e-06
7.92606e-07
1.14217e-06
-1.29768e-06
1.22207e-06
2.79262e-07
1.17499e-06
1.63377e-07
1.21123e-06
6.2335e-07
1.18127e-06
1.9055e-07
1.16308e-06
1.96867e-07
1.1811e-06
-3.20377e-07
1.15156e-06
-5.48379e-07
1.19223e-06
-3.67807e-08
1.17272e-06
6.92351e-08
1.17492e-06
2.07489e-07
1.18277e-06
4.50649e-07
1.16701e-06
2.56024e-07
1.15927e-06
1.99918e-07
1.16139e-06
6.85059e-08
1.23359e-07
1.14202e-06
1.22172e-06
-4.19659e-07
1.2959e-06
-5.76939e-07
1.31288e-06
8.46095e-07
1.1204e-06
9.85093e-07
1.21245e-06
-1.38973e-06
1.29052e-06
2.01189e-07
1.23908e-06
2.1482e-07
1.28084e-06
5.81583e-07
1.24828e-06
2.2311e-07
1.23492e-06
2.10232e-07
1.24841e-06
-3.33868e-07
1.21497e-06
-5.14942e-07
1.25078e-06
-7.25926e-08
1.23883e-06
8.11898e-08
1.22685e-06
2.19467e-07
1.25521e-06
4.22295e-07
1.21886e-06
2.92366e-07
1.2342e-06
1.84585e-07
1.20725e-06
9.54486e-08
1.0331e-07
1.2273e-06
1.28066e-06
-4.17538e-07
1.35171e-06
-6.47991e-07
1.37297e-06
8.24836e-07
1.20607e-06
1.15199e-06
1.2865e-06
-1.47016e-06
1.37069e-06
1.17e-07
1.31327e-06
2.72238e-07
1.3551e-06
5.39755e-07
1.3222e-06
2.5601e-07
1.31279e-06
2.19643e-07
1.31292e-06
-3.33995e-07
1.28586e-06
-4.87884e-07
1.31023e-06
-9.6964e-08
1.3145e-06
7.69187e-08
1.28722e-06
2.46743e-07
1.31876e-06
3.90756e-07
1.28769e-06
3.23442e-07
1.2919e-06
1.80376e-07
1.27745e-06
1.09895e-07
1.07396e-07
1.27336e-06
1.34028e-06
-4.1372e-07
1.40642e-06
-7.14129e-07
1.43448e-06
7.96776e-07
1.30303e-06
1.28345e-06
1.36119e-06
-1.52832e-06
1.44982e-06
2.83764e-08
1.3925e-06
3.29557e-07
1.42677e-06
5.05479e-07
1.39719e-06
2.85597e-07
1.38732e-06
2.29511e-07
1.37137e-06
-3.18049e-07
1.35303e-06
-4.69545e-07
1.36952e-06
-1.13452e-07
1.38418e-06
6.22599e-08
1.35962e-06
2.713e-07
1.37845e-06
3.71931e-07
1.36464e-06
3.37252e-07
1.3571e-06
1.87913e-07
1.3476e-06
1.194e-07
1.17406e-07
1.33759e-06
1.40093e-06
-4.06297e-07
1.45997e-06
-7.73172e-07
1.49589e-06
7.60856e-07
1.40301e-06
1.37634e-06
1.43223e-06
-1.55755e-06
1.51863e-06
-5.80237e-08
1.4718e-06
3.76388e-07
1.49304e-06
4.84243e-07
1.4695e-06
3.09138e-07
1.45596e-06
2.43045e-07
1.42748e-06
-2.89564e-07
1.41415e-06
-4.56219e-07
1.42689e-06
-1.26188e-07
1.44615e-06
4.29983e-08
1.43523e-06
2.82221e-07
1.44428e-06
3.62875e-07
1.44026e-06
3.41277e-07
1.43006e-06
1.98113e-07
1.41791e-06
1.31545e-07
1.29114e-07
1.4062e-06
1.46409e-06
-3.94716e-07
1.51324e-06
-8.22319e-07
1.5562e-06
7.17893e-07
1.49878e-06
1.43376e-06
1.49896e-06
-1.55773e-06
1.5751e-06
-1.34163e-07
1.54708e-06
4.0441e-07
1.55522e-06
4.76102e-07
1.53746e-06
3.269e-07
1.52078e-06
2.59722e-07
1.48607e-06
-2.54849e-07
1.47348e-06
-4.43629e-07
1.48311e-06
-1.35819e-07
1.50428e-06
2.18321e-08
1.50683e-06
2.7967e-07
1.51399e-06
3.55713e-07
1.51373e-06
3.41539e-07
1.50403e-06
2.07812e-07
1.49015e-06
1.4542e-07
1.43688e-07
1.47558e-06
1.53175e-06
-3.80253e-07
1.56791e-06
-8.58478e-07
1.61537e-06
6.70437e-07
1.58771e-06
1.46141e-06
1.56453e-06
-1.53455e-06
1.62442e-06
-1.94056e-07
1.61639e-06
4.12446e-07
1.6157e-06
4.76789e-07
1.60166e-06
3.40938e-07
1.58488e-06
2.76502e-07
1.54986e-06
-2.19829e-07
1.53603e-06
-4.29797e-07
1.54129e-06
-1.41076e-07
1.56249e-06
6.27187e-10
1.57401e-06
2.68152e-07
1.58357e-06
3.46151e-07
1.58616e-06
3.38952e-07
1.57727e-06
2.16694e-07
1.56381e-06
1.58885e-07
1.60572e-07
1.54693e-06
1.60535e-06
-3.65477e-07
1.62604e-06
-8.79166e-07
1.67416e-06
6.22316e-07
1.67105e-06
1.46453e-06
1.63304e-06
-1.49654e-06
1.67462e-06
-2.35635e-07
1.68097e-06
4.06093e-07
1.67634e-06
4.81422e-07
1.66445e-06
3.52822e-07
1.65081e-06
2.90146e-07
1.61969e-06
-1.88712e-07
1.60491e-06
-4.1501e-07
1.60486e-06
-1.41032e-07
1.62391e-06
-1.8418e-08
1.63978e-06
2.52273e-07
1.65214e-06
3.33794e-07
1.65802e-06
3.33073e-07
1.65023e-06
2.24488e-07
1.63845e-06
1.70663e-07
1.78036e-07
1.62099e-06
1.68507e-06
-3.52973e-07
1.68956e-06
-8.83652e-07
1.73417e-06
5.77703e-07
1.75133e-06
1.44737e-06
1.70689e-06
-1.45211e-06
1.73213e-06
-2.60866e-07
1.7447e-06
3.93514e-07
1.73885e-06
4.87272e-07
1.72868e-06
3.62995e-07
1.72032e-06
2.98508e-07
1.69548e-06
-1.63867e-07
1.68111e-06
-4.00649e-07
1.67596e-06
-1.35876e-07
1.69079e-06
-3.32472e-08
1.70734e-06
2.35723e-07
1.72083e-06
3.203e-07
1.72977e-06
3.24133e-07
1.72337e-06
2.3089e-07
1.7139e-06
1.80137e-07
1.94345e-07
1.69759e-06
1.77e-06
-3.44249e-07
1.75994e-06
-8.73592e-07
1.7977e-06
5.39938e-07
1.83084e-06
1.41423e-06
1.78636e-06
-1.40762e-06
1.79979e-06
-2.74302e-07
1.81191e-06
3.81396e-07
1.80522e-06
4.93959e-07
1.79675e-06
3.71467e-07
1.79441e-06
3.00854e-07
1.77664e-06
-1.46101e-07
1.76414e-06
-3.88151e-07
1.75505e-06
-1.26782e-07
1.76449e-06
-4.26929e-08
1.77909e-06
2.2113e-07
1.7915e-06
3.0789e-07
1.80247e-06
3.13164e-07
1.79742e-06
2.35937e-07
1.79028e-06
1.87278e-07
2.08304e-07
1.77632e-06
1.85896e-06
-3.39463e-07
1.83799e-06
-8.5262e-07
1.86716e-06
5.1077e-07
1.91143e-06
1.36997e-06
1.87057e-06
-1.36676e-06
1.87728e-06
-2.81009e-07
1.88547e-06
3.73205e-07
1.87742e-06
5.02009e-07
1.87043e-06
3.78453e-07
1.87358e-06
2.9771e-07
1.86245e-06
-1.34978e-07
1.85277e-06
-3.7847e-07
1.8415e-06
-1.15511e-07
1.84555e-06
-4.67448e-08
1.85677e-06
2.09913e-07
1.86625e-06
2.9841e-07
1.87784e-06
3.01575e-07
1.87368e-06
2.401e-07
1.86831e-06
1.92643e-07
2.19389e-07
1.85723e-06
1.9512e-06
-3.37829e-07
1.92374e-06
-8.2515e-07
1.9442e-06
4.90306e-07
1.99463e-06
1.31954e-06
1.95855e-06
-1.33069e-06
1.96259e-06
-2.85045e-07
1.96633e-06
3.69467e-07
1.95684e-06
5.11499e-07
1.95093e-06
3.84361e-07
1.95823e-06
2.90413e-07
1.9524e-06
-1.29147e-07
1.9458e-06
-3.71878e-07
1.93422e-06
-1.03931e-07
1.93379e-06
-4.63066e-08
1.94145e-06
2.02244e-07
1.94702e-06
2.92841e-07
1.95787e-06
2.9073e-07
1.95389e-06
2.44076e-07
1.94934e-06
1.97196e-07
2.27605e-07
1.94112e-06
2.04654e-06
-3.38176e-07
2.01657e-06
-7.9518e-07
2.02946e-06
4.77413e-07
2.08182e-06
1.26717e-06
2.0498e-06
-1.29867e-06
2.05365e-06
-2.8889e-07
2.05418e-06
3.68939e-07
2.04407e-06
5.21607e-07
2.03897e-06
3.89454e-07
2.04881e-06
2.80576e-07
2.04639e-06
-1.2673e-07
2.04246e-06
-3.6794e-07
2.03208e-06
-9.35512e-08
2.02847e-06
-4.27008e-08
2.03338e-06
1.97338e-07
2.03503e-06
2.91183e-07
2.04417e-06
2.81599e-07
2.03979e-06
2.48456e-07
2.03502e-06
2.01962e-07
2.33226e-07
2.0294e-06
2.14513e-06
-3.39306e-07
2.1156e-06
-7.65647e-07
2.12282e-06
4.70188e-07
2.17422e-06
1.21578e-06
2.14443e-06
-1.26888e-06
2.14908e-06
-2.93547e-07
2.14827e-06
3.69758e-07
2.13902e-06
5.3085e-07
2.13487e-06
3.93607e-07
2.14576e-06
2.69683e-07
2.14475e-06
-1.25715e-07
2.14244e-06
-3.65635e-07
2.13411e-06
-8.52185e-08
2.12861e-06
-3.71977e-08
2.13199e-06
1.93953e-07
2.13054e-06
2.92639e-07
2.13757e-06
2.74564e-07
2.13262e-06
2.53404e-07
2.12689e-06
2.07691e-07
2.36617e-07
2.1235e-06
2.24731e-06
-3.40131e-07
2.22e-06
-7.38336e-07
2.22386e-06
4.66328e-07
2.27282e-06
1.16681e-06
2.24306e-06
-1.23912e-06
2.24839e-06
-2.9887e-07
2.24792e-06
3.70223e-07
2.24124e-06
5.3753e-07
2.23854e-06
3.96309e-07
2.24933e-06
2.58888e-07
2.24789e-06
-1.24273e-07
2.24587e-06
-3.6361e-07
2.23973e-06
-7.90829e-08
2.23326e-06
-3.07227e-08
2.23636e-06
1.9085e-07
2.23304e-06
2.95961e-07
2.23812e-06
2.6948e-07
2.23296e-06
2.58563e-07
2.22599e-06
2.14668e-07
2.38181e-07
2.22442e-06
2.35351e-06
-3.39764e-07
2.32919e-06
-7.14021e-07
2.33207e-06
4.63452e-07
2.37835e-06
1.12053e-06
2.34658e-06
-1.20734e-06
2.35169e-06
-3.03986e-07
2.35273e-06
3.69191e-07
2.35007e-06
5.40188e-07
2.34952e-06
3.96857e-07
2.35947e-06
2.48939e-07
2.35621e-06
-1.21017e-07
2.3531e-06
-3.60501e-07
2.34878e-06
-7.47579e-08
2.34183e-06
-2.37738e-08
2.34558e-06
1.87101e-07
2.34172e-06
2.99823e-07
2.34528e-06
2.65914e-07
2.34065e-06
2.63199e-07
2.3326e-06
2.22713e-07
2.38372e-07
2.33241e-06
2.46425e-06
-3.37615e-07
2.44289e-06
-6.92664e-07
2.44691e-06
4.5943e-07
2.4911e-06
1.07635e-06
2.45575e-06
-1.17199e-06
2.45955e-06
-3.07787e-07
2.46257e-06
3.66172e-07
2.46477e-06
5.37982e-07
2.46701e-06
3.94618e-07
2.47582e-06
2.40136e-07
2.47001e-06
-1.15208e-07
2.46473e-06
-3.55224e-07
2.46152e-06
-7.15462e-08
2.45422e-06
-1.64791e-08
2.45908e-06
1.82243e-07
2.4558e-06
3.0311e-07
2.45831e-06
2.63395e-07
2.45499e-06
2.66521e-07
2.44638e-06
2.31328e-07
2.37696e-07
2.44705e-06
2.58013e-06
-3.33454e-07
2.56112e-06
-6.73655e-07
2.56782e-06
4.52729e-07
2.61093e-06
1.03324e-06
2.5711e-06
-1.13216e-06
2.57269e-06
-3.09377e-07
2.57765e-06
3.61212e-07
2.58472e-06
5.30906e-07
2.5901e-06
3.89243e-07
2.59787e-06
2.32363e-07
2.58949e-06
-1.06827e-07
2.58146e-06
-3.47191e-07
2.57858e-06
-6.86741e-08
2.57081e-06
-8.70885e-09
2.57675e-06
1.76304e-07
2.57478e-06
3.05087e-07
2.57662e-06
2.61554e-07
2.57515e-06
2.67985e-07
2.56659e-06
2.39887e-07
2.36652e-07
2.56764e-06
2.70176e-06
-3.27385e-07
2.68423e-06
-6.56124e-07
2.69435e-06
4.42613e-07
2.7374e-06
9.90182e-07
2.6929e-06
-1.08766e-06
2.69184e-06
-3.08322e-07
2.69839e-06
3.54668e-07
2.70957e-06
5.19727e-07
2.71804e-06
3.80775e-07
2.72518e-06
2.25217e-07
2.71479e-06
-9.64356e-08
2.70398e-06
-3.36376e-07
2.7008e-06
-6.54936e-08
2.6923e-06
-2.16042e-10
2.69891e-06
1.69692e-07
2.69854e-06
3.05463e-07
2.69992e-06
2.60175e-07
2.70045e-06
2.67454e-07
2.69257e-06
2.47764e-07
2.35699e-07
2.69352e-06
2.8296e-06
-3.19712e-07
2.81273e-06
-6.39253e-07
2.82626e-06
4.29081e-07
2.87001e-06
9.46426e-07
2.8213e-06
-1.03894e-06
2.81762e-06
-3.04641e-07
2.8253e-06
3.46991e-07
2.83937e-06
5.05659e-07
2.85056e-06
3.69583e-07
2.85757e-06
2.18205e-07
2.846e-06
-8.48675e-08
2.83285e-06
-3.23221e-07
2.82896e-06
-6.16023e-08
2.81955e-06
9.19364e-09
2.82625e-06
1.62991e-07
2.82738e-06
3.04326e-07
2.82838e-06
2.59179e-07
2.83067e-06
2.65162e-07
2.82398e-06
2.54453e-07
2.35233e-07
2.82445e-06
2.96397e-06
-3.10789e-07
2.94718e-06
-6.22459e-07
2.96368e-06
4.12584e-07
3.00846e-06
9.01637e-07
2.95643e-06
-9.86908e-07
2.95042e-06
-2.98637e-07
2.95884e-06
3.38575e-07
2.97453e-06
4.89968e-07
2.98789e-06
3.56223e-07
2.9952e-06
2.10898e-07
2.98323e-06
-7.29019e-08
2.96841e-06
-3.08394e-07
2.96369e-06
-5.6889e-08
2.95334e-06
1.95465e-08
2.95958e-06
1.56749e-07
2.9619e-06
3.02003e-07
2.96251e-06
2.58577e-07
2.9661e-06
2.6157e-07
2.96093e-06
2.59626e-07
2.35534e-07
2.96062e-06
3.10513e-06
-3.00917e-07
3.08809e-06
-6.05416e-07
3.10699e-06
3.93686e-07
3.15277e-06
8.55855e-07
3.09842e-06
-9.3256e-07
3.09048e-06
-2.90695e-07
3.09937e-06
3.29691e-07
3.11565e-06
4.73687e-07
3.13059e-06
3.41282e-07
3.13851e-06
2.02976e-07
3.12666e-06
-6.10525e-08
3.1108e-06
-2.92537e-07
3.1054e-06
-5.14843e-08
3.09424e-06
3.0701e-08
3.09967e-06
1.51319e-07
3.1028e-06
2.98881e-07
3.10296e-06
2.58409e-07
3.10732e-06
2.57218e-07
3.10383e-06
2.63113e-07
2.36737e-07
3.10263e-06
3.25332e-06
-2.90325e-07
3.23587e-06
-5.87969e-07
3.25671e-06
3.72847e-07
3.30321e-06
8.09351e-07
3.24748e-06
-8.76831e-07
3.23794e-06
-2.81151e-07
3.24716e-06
3.20468e-07
3.26336e-06
4.57489e-07
3.27934e-06
3.25304e-07
3.28809e-06
1.94226e-07
3.27657e-06
-4.95351e-08
3.26011e-06
-2.76076e-07
3.25429e-06
-4.56665e-08
3.24255e-06
4.24409e-08
3.24704e-06
1.46835e-07
3.25068e-06
2.95237e-07
3.25037e-06
2.58718e-07
3.25499e-06
2.52601e-07
3.25328e-06
2.64825e-07
2.38815e-07
3.2512e-06
3.4088e-06
-2.79194e-07
3.39088e-06
-5.70044e-07
3.41335e-06
3.50373e-07
3.4602e-06
7.62504e-07
3.40384e-06
-8.20477e-07
3.39294e-06
-2.70247e-07
3.40249e-06
3.10918e-07
3.41827e-06
4.41704e-07
3.4348e-06
3.08775e-07
3.44451e-06
1.84524e-07
3.43332e-06
-3.83508e-08
3.41642e-06
-2.59172e-07
3.41049e-06
-3.97352e-08
3.39838e-06
5.45443e-08
3.40194e-06
1.43277e-07
3.40602e-06
2.91158e-07
3.40522e-06
2.59521e-07
3.40974e-06
2.48077e-07
3.40985e-06
2.64715e-07
2.41569e-07
3.4071e-06
3.57192e-06
-2.67699e-07
3.55347e-06
-5.51598e-07
3.57734e-06
3.26498e-07
3.62413e-06
7.15713e-07
3.56776e-06
-7.64104e-07
3.55567e-06
-2.58155e-07
3.56562e-06
3.00968e-07
3.58092e-06
4.264e-07
3.59757e-06
2.92125e-07
3.60823e-06
1.73863e-07
3.59728e-06
-2.74003e-08
3.57988e-06
-2.41763e-07
3.57409e-06
-3.3952e-08
3.56181e-06
6.68297e-08
3.56452e-06
1.40569e-07
3.56915e-06
2.86527e-07
3.56789e-06
2.60781e-07
3.57207e-06
2.4389e-07
3.57402e-06
2.62765e-07
2.44627e-07
3.57096e-06
3.74304e-06
-2.56032e-07
3.72406e-06
-5.32621e-07
3.74906e-06
3.01497e-07
3.79539e-06
6.69383e-07
3.73954e-06
-7.0825e-07
3.72641e-06
-2.45031e-07
3.73688e-06
2.90501e-07
3.7518e-06
4.11484e-07
3.76818e-06
2.75739e-07
3.77966e-06
1.62382e-07
3.76883e-06
-1.65664e-08
3.75074e-06
-2.23674e-07
3.74531e-06
-2.85195e-08
3.733e-06
7.91352e-08
3.7349e-06
1.38669e-07
3.74033e-06
2.81101e-07
3.73877e-06
2.62339e-07
3.74242e-06
2.40239e-07
3.74618e-06
2.59004e-07
2.4746e-07
3.74335e-06
3.92256e-06
-2.44403e-07
3.90309e-06
-5.13157e-07
3.92884e-06
2.75755e-07
3.97431e-06
6.23911e-07
3.9195e-06
-6.53443e-07
3.90554e-06
-2.31065e-07
3.91664e-06
2.79399e-07
3.93134e-06
3.96785e-07
3.94711e-06
2.59968e-07
3.95912e-06
1.50366e-07
3.94832e-06
-5.7625e-09
3.92936e-06
-2.04709e-07
3.92441e-06
-2.35788e-08
3.91228e-06
9.12734e-08
3.91334e-06
1.3761e-07
3.91983e-06
2.74608e-07
3.91827e-06
2.63895e-07
3.92118e-06
2.37328e-07
3.92663e-06
2.53555e-07
2.49427e-07
3.92467e-06
4.11087e-06
-2.33022e-07
4.09102e-06
-4.93308e-07
4.117e-06
2.49778e-07
4.16124e-06
5.79672e-07
4.10803e-06
-6.00231e-07
4.09346e-06
-2.165e-07
4.10529e-06
2.67573e-07
4.11994e-06
3.82128e-07
4.13478e-06
2.45131e-07
4.14695e-06
1.38197e-07
4.13614e-06
5.04386e-09
4.11615e-06
-1.8472e-07
4.11179e-06
-1.92154e-08
4.10006e-06
1.03001e-07
4.10018e-06
1.37497e-07
4.10793e-06
2.66857e-07
4.10681e-06
2.65009e-07
4.1088e-06
2.35337e-07
4.11562e-06
2.46743e-07
2.49842e-07
4.1152e-06
4.30836e-06
-2.22077e-07
4.28826e-06
-4.73214e-07
4.31392e-06
2.24124e-07
4.3566e-06
5.36987e-07
4.30553e-06
-5.49154e-07
4.29065e-06
-2.01621e-07
4.30321e-06
2.55009e-07
4.31796e-06
3.6738e-07
4.33158e-06
2.31511e-07
4.3435e-06
1.26274e-07
4.33274e-06
1.58106e-08
4.31165e-06
-1.63634e-07
4.30788e-06
-1.54477e-08
4.29688e-06
1.14003e-07
4.29591e-06
1.38468e-07
4.30491e-06
2.57851e-07
4.30475e-06
2.65171e-07
4.30578e-06
2.34304e-07
4.31339e-06
2.39135e-07
2.48151e-07
4.31508e-06
4.5154e-06
-2.11708e-07
4.4952e-06
-4.53012e-07
4.52002e-06
1.99304e-07
4.56093e-06
4.96081e-07
4.51246e-06
-5.00681e-07
4.49755e-06
-1.86718e-07
4.51077e-06
2.41794e-07
4.5257e-06
3.52451e-07
4.53787e-06
2.19334e-07
4.5492e-06
1.14946e-07
4.5386e-06
2.64064e-08
4.51644e-06
-1.41467e-07
4.51317e-06
-1.21787e-08
4.50329e-06
1.23877e-07
4.50106e-06
1.40701e-07
4.51112e-06
2.47791e-07
4.51239e-06
2.63906e-07
4.51264e-06
2.34051e-07
4.52032e-06
2.31454e-07
2.44101e-07
4.52437e-06
4.7324e-06
-2.01991e-07
4.71218e-06
-4.32798e-07
4.7358e-06
1.75691e-07
4.77483e-06
4.5705e-07
4.72929e-06
-4.55146e-07
4.71462e-06
-1.72044e-07
4.7283e-06
2.28115e-07
4.74344e-06
3.37306e-07
4.75405e-06
2.08727e-07
4.76451e-06
1.04485e-07
4.75429e-06
3.66267e-08
4.73115e-06
-1.18321e-07
4.72819e-06
-9.21931e-09
4.71982e-06
1.32246e-07
4.71621e-06
1.44311e-07
4.72691e-06
2.37087e-07
4.72997e-06
2.60845e-07
4.72978e-06
2.34238e-07
4.73686e-06
2.24381e-07
2.37881e-07
4.74308e-06
4.95975e-06
-1.92941e-07
4.93956e-06
-4.12613e-07
4.96177e-06
1.53483e-07
4.99897e-06
4.19851e-07
4.95652e-06
-4.12694e-07
4.94228e-06
-1.57807e-07
4.95614e-06
2.1426e-07
4.97152e-06
3.21923e-07
4.98055e-06
1.99693e-07
4.98995e-06
9.50919e-08
4.98036e-06
4.62145e-08
4.95641e-06
-9.43736e-08
4.95349e-06
-6.29976e-09
4.94693e-06
1.3881e-07
4.94199e-06
1.49247e-07
4.9527e-06
2.26378e-07
4.95777e-06
2.55771e-07
4.95756e-06
2.34446e-07
4.96361e-06
2.18338e-07
2.30123e-07
4.97136e-06
5.1979e-06
-1.84522e-07
5.17774e-06
-3.92454e-07
5.1985e-06
1.32718e-07
5.23403e-06
3.84325e-07
5.1946e-06
-3.73265e-07
5.18099e-06
-1.44191e-07
5.19468e-06
2.0057e-07
5.21029e-06
3.06308e-07
5.21787e-06
1.92116e-07
5.22605e-06
8.69062e-08
5.21736e-06
5.49104e-08
5.19287e-06
-6.9885e-08
5.18964e-06
-3.06902e-09
5.18513e-06
1.4332e-07
5.1791e-06
1.55277e-07
5.18903e-06
2.16444e-07
5.19612e-06
2.48681e-07
5.19638e-06
2.3419e-07
5.20115e-06
2.13565e-07
2.21622e-07
5.20965e-06
5.44733e-06
-1.76661e-07
5.4272e-06
-3.72321e-07
5.44656e-06
1.13351e-07
5.48065e-06
3.50239e-07
5.44401e-06
-3.3663e-07
5.4312e-06
-1.31374e-07
5.44438e-06
1.87389e-07
5.46015e-06
2.90537e-07
5.46652e-06
1.85742e-07
5.47341e-06
8.00167e-08
5.46582e-06
6.25053e-08
5.44112e-06
-4.51937e-08
5.43718e-06
8.74729e-10
5.43494e-06
1.45564e-07
5.42813e-06
1.62081e-07
5.43658e-06
2.07992e-07
5.4455e-06
2.39764e-07
5.44661e-06
2.33085e-07
5.45021e-06
2.09961e-07
2.13197e-07
5.45864e-06
5.70856e-06
-1.69266e-07
5.6885e-06
-3.52263e-07
5.70652e-06
9.53391e-08
5.73944e-06
3.17318e-07
5.70522e-06
-3.02408e-07
5.69339e-06
-1.19553e-07
5.7058e-06
1.74986e-07
5.72157e-06
2.74766e-07
5.72706e-06
1.80251e-07
5.73262e-06
7.44566e-08
5.72627e-06
6.88615e-08
5.70176e-06
-2.06844e-08
5.69671e-06
5.92201e-09
5.69679e-06
1.45488e-07
5.68969e-06
1.69181e-07
5.69612e-06
2.0156e-07
5.70639e-06
2.29487e-07
5.70873e-06
2.30752e-07
5.71133e-06
2.07356e-07
2.05361e-07
5.71917e-06
5.98216e-06
-1.62235e-07
5.9623e-06
-3.32403e-07
5.97894e-06
7.87023e-08
6.01099e-06
2.8527e-07
5.9787e-06
-2.70125e-07
5.9681e-06
-1.08953e-07
5.97969e-06
1.63402e-07
5.99514e-06
2.59316e-07
6.00004e-06
1.75344e-07
6.0043e-06
7.01955e-08
5.99925e-06
7.39177e-08
5.97533e-06
3.23201e-09
5.96886e-06
1.23921e-08
5.9711e-06
1.43254e-07
5.96434e-06
1.75936e-07
5.96838e-06
1.9752e-07
5.97932e-06
2.18544e-07
5.98324e-06
2.26832e-07
5.98518e-06
2.05421e-07
1.98495e-07
5.99204e-06
6.26872e-06
-1.55464e-07
6.24926e-06
-3.12949e-07
6.26442e-06
6.35479e-08
6.29587e-06
2.53814e-07
6.26508e-06
-2.39336e-07
6.25586e-06
-9.97253e-08
6.26677e-06
1.52488e-07
6.2815e-06
2.44587e-07
6.28605e-06
1.70795e-07
6.28912e-06
6.71248e-08
6.2853e-06
7.77415e-08
6.26242e-06
2.61089e-08
6.25434e-06
2.0475e-08
6.2583e-06
1.39291e-07
6.25265e-06
1.81584e-07
6.25422e-06
1.95947e-07
6.26491e-06
2.07862e-07
6.27064e-06
2.21098e-07
6.27237e-06
2.03695e-07
1.92817e-07
6.27804e-06
6.56886e-06
-1.4885e-07
6.55008e-06
-2.94171e-07
6.56355e-06
5.00732e-08
6.59466e-06
2.22703e-07
6.56509e-06
-2.0976e-07
6.55715e-06
-9.17839e-08
6.56765e-06
1.41985e-07
6.58139e-06
2.30846e-07
6.58567e-06
1.66518e-07
6.58768e-06
6.51084e-08
6.58504e-06
8.0388e-08
6.56358e-06
4.75661e-08
6.55387e-06
3.01807e-08
6.55888e-06
1.34282e-07
6.55505e-06
1.85412e-07
6.55449e-06
1.96516e-07
6.56396e-06
1.98384e-07
6.5714e-06
2.13664e-07
6.57353e-06
2.01567e-07
1.88375e-07
6.57797e-06
6.88324e-06
-1.42301e-07
6.86543e-06
-2.76364e-07
6.87702e-06
3.84853e-08
6.9079e-06
1.91824e-07
6.87957e-06
-1.81432e-07
6.8723e-06
-8.45107e-08
6.88289e-06
1.314e-07
6.89557e-06
2.18158e-07
6.89954e-06
1.62554e-07
6.90061e-06
6.40377e-08
6.89906e-06
8.19349e-08
6.87943e-06
6.71941e-08
6.86821e-06
4.14e-08
6.87357e-06
1.28929e-07
6.87203e-06
1.86953e-07
6.86988e-06
1.98667e-07
6.8773e-06
1.90959e-07
6.88602e-06
2.0494e-07
6.88917e-06
1.98425e-07
1.84927e-07
6.89261e-06
7.21256e-06
-1.35729e-07
7.196e-06
-2.59802e-07
7.20559e-06
2.88978e-08
7.23611e-06
1.61302e-07
7.20942e-06
-1.54745e-07
7.20202e-06
-7.71021e-08
7.21302e-06
1.20393e-07
7.22482e-06
2.06361e-07
7.22833e-06
1.59045e-07
7.22857e-06
6.37956e-08
7.22805e-06
8.24584e-08
7.21062e-06
8.46271e-08
7.19807e-06
5.39436e-08
7.20304e-06
1.23957e-07
7.20409e-06
1.85911e-07
7.20105e-06
2.01699e-07
7.20595e-06
1.86067e-07
7.215e-06
1.95889e-07
7.21974e-06
1.93678e-07
1.81999e-07
7.22267e-06
7.55756e-06
-1.29063e-07
7.54244e-06
-2.44684e-07
7.55005e-06
2.12902e-08
7.57984e-06
1.31514e-07
7.5555e-06
-1.30409e-07
7.54708e-06
-6.86805e-08
7.55867e-06
1.08801e-07
7.56994e-06
1.95092e-07
7.57281e-06
1.56172e-07
7.5722e-06
6.44136e-08
7.57265e-06
8.20053e-08
7.55775e-06
9.95265e-08
7.54432e-06
6.73761e-08
7.5482e-06
1.20077e-07
7.55181e-06
1.82302e-07
7.54881e-06
2.04701e-07
7.55081e-06
1.84061e-07
7.55879e-06
1.87906e-07
7.56509e-06
1.87386e-07
1.78273e-07
7.56881e-06
7.91899e-06
-1.22243e-07
7.90544e-06
-2.31128e-07
7.9112e-06
1.55212e-08
7.93966e-06
1.03061e-07
7.91859e-06
-1.09344e-07
7.90836e-06
-5.84527e-08
7.92044e-06
9.6729e-08
7.93168e-06
1.83849e-07
7.93385e-06
1.54001e-07
7.93224e-06
6.6018e-08
7.93359e-06
8.0658e-08
7.92143e-06
1.1169e-07
7.90768e-06
8.11226e-08
7.90996e-06
1.17794e-07
7.91597e-06
1.763e-07
7.91437e-06
2.06296e-07
7.91357e-06
1.84862e-07
7.91813e-06
1.83348e-07
7.92441e-06
1.8111e-07
1.72076e-07
7.9306e-06
8.29766e-06
-1.15221e-07
8.28568e-06
-2.19147e-07
8.28987e-06
1.13285e-08
8.3163e-06
7.66265e-08
8.2994e-06
-9.24376e-08
8.28691e-06
-4.59684e-08
8.29903e-06
8.4609e-08
8.31073e-06
1.72149e-07
8.31228e-06
1.52457e-07
8.30949e-06
6.88051e-08
8.31158e-06
7.85707e-08
8.30237e-06
1.20895e-07
8.28903e-06
9.44677e-08
8.28958e-06
1.17242e-07
8.29674e-06
1.69139e-07
8.29838e-06
2.04662e-07
8.30128e-06
1.81962e-07
8.31457e-06
1.70054e-07
8.32661e-06
1.69071e-07
1.68486e-07
8.3302e-06
8.69442e-06
-1.07974e-07
8.68393e-06
-2.08659e-07
8.68693e-06
8.32287e-09
8.71053e-06
5.30249e-08
8.69853e-06
-8.04325e-08
8.68399e-06
-3.14243e-08
8.69521e-06
7.33805e-08
8.70772e-06
1.59637e-07
8.70907e-06
1.51116e-07
8.70484e-06
7.30286e-08
8.70739e-06
7.60178e-08
8.70109e-06
1.27197e-07
8.68882e-06
1.06741e-07
8.68962e-06
1.16439e-07
8.70135e-06
1.57414e-07
8.7102e-06
1.95807e-07
8.71337e-06
1.78791e-07
8.71965e-06
1.63777e-07
8.72752e-06
1.61201e-07
1.6482e-07
8.73119e-06
9.11013e-06
-1.00488e-07
9.10106e-06
-1.99583e-07
9.10323e-06
6.15201e-09
9.12346e-06
3.27915e-08
9.11628e-06
-7.3247e-08
9.10097e-06
-1.61156e-08
9.1098e-06
6.45454e-08
9.12331e-06
1.46127e-07
9.12495e-06
1.49477e-07
9.11939e-06
7.85883e-08
9.12198e-06
7.34295e-08
9.11883e-06
1.30348e-07
9.10804e-06
1.17528e-07
9.10756e-06
1.16924e-07
9.11909e-06
1.45883e-07
9.12899e-06
1.85906e-07
9.13289e-06
1.74894e-07
9.13853e-06
1.58131e-07
9.1467e-06
1.53036e-07
1.61761e-07
9.14976e-06
9.54574e-06
-9.27734e-08
9.538e-06
-1.9184e-07
9.53967e-06
4.48293e-09
9.55617e-06
1.62933e-08
9.55315e-06
-7.02262e-08
9.53876e-06
-1.72313e-09
9.54393e-06
5.9369e-08
9.55829e-06
1.31769e-07
9.56077e-06
1.46993e-07
9.55419e-06
8.51756e-08
9.55631e-06
7.13059e-08
9.55639e-06
1.30266e-07
9.54791e-06
1.26015e-07
9.54314e-06
1.21687e-07
9.54806e-06
1.40965e-07
9.55114e-06
1.82823e-07
9.54754e-06
1.78498e-07
9.54477e-06
1.60905e-07
9.54915e-06
1.48651e-07
1.48559e-07
9.56235e-06
1.00022e-05
-8.48673e-08
9.99565e-06
-1.85259e-07
9.99722e-06
2.91411e-09
1.00098e-05
3.7325e-09
1.00101e-05
-7.05636e-08
9.99804e-06
1.03561e-08
9.99907e-06
5.83344e-08
1.00133e-05
1.17581e-07
1.00176e-05
1.42669e-07
1.00103e-05
9.24985e-08
1.00111e-05
7.04397e-08
1.00126e-05
1.28751e-07
1.0006e-05
1.32677e-07
1.00041e-05
1.23604e-07
1.00147e-05
1.3031e-07
1.00284e-05
1.69091e-07
1.00366e-05
1.70383e-07
1.00411e-05
1.56345e-07
1.00468e-05
1.43019e-07
1.49169e-07
1.00461e-05
1.04806e-05
-7.68271e-08
1.0475e-05
-1.79661e-07
1.04768e-05
1.15635e-09
1.04855e-05
-5.03643e-09
1.0488e-05
-7.30269e-08
1.04795e-05
1.88956e-08
1.04768e-05
6.09779e-08
1.04895e-05
1.04868e-07
1.04958e-05
1.36434e-07
1.04884e-05
9.98299e-08
1.04878e-05
7.10369e-08
1.04911e-05
1.25444e-07
1.04866e-05
1.37242e-07
1.04806e-05
1.29598e-07
1.04817e-05
1.29138e-07
1.04872e-05
1.63664e-07
1.0488e-05
1.69604e-07
1.04863e-05
1.57951e-07
1.04888e-05
1.40605e-07
1.40169e-07
1.04978e-05
1.09819e-05
-6.87574e-08
1.0977e-05
-1.74716e-07
1.09794e-05
-1.23467e-09
1.09845e-05
-1.01615e-08
1.0988e-05
-7.65324e-08
1.09835e-05
2.34119e-08
1.09783e-05
6.61926e-08
1.09882e-05
9.49694e-08
1.09962e-05
1.284e-07
1.09896e-05
1.06502e-07
1.09867e-05
7.39303e-08
1.099e-05
1.22074e-07
1.09871e-05
1.40209e-07
1.09809e-05
1.35788e-07
1.09817e-05
1.28321e-07
1.0988e-05
1.57307e-07
1.09913e-05
1.66329e-07
1.09918e-05
1.57435e-07
1.09948e-05
1.37605e-07
1.3349e-07
1.10015e-05
1.15074e-05
-6.08103e-08
1.15027e-05
-1.70039e-07
1.15061e-05
-4.61751e-09
1.15079e-05
-1.19811e-08
1.15113e-05
-7.99256e-08
1.15108e-05
2.39227e-08
1.15048e-05
7.21988e-08
1.1511e-05
8.87849e-08
1.15199e-05
1.19542e-07
1.15143e-05
1.12081e-07
1.15089e-05
7.93174e-08
1.15115e-05
1.19472e-07
1.1511e-05
1.40668e-07
1.15067e-05
1.40174e-07
1.15065e-05
1.28447e-07
1.15127e-05
1.51113e-07
1.15181e-05
1.60953e-07
1.15199e-05
1.55626e-07
1.15227e-05
1.34816e-07
1.28452e-07
1.15277e-05
1.20582e-05
-5.31487e-08
1.20534e-05
-1.65239e-07
1.2058e-05
-9.22275e-09
1.20571e-05
-1.10787e-08
1.20593e-05
-8.21815e-08
1.20625e-05
2.06937e-08
1.20571e-05
7.76568e-08
1.20593e-05
8.65285e-08
1.20681e-05
1.10827e-07
1.20644e-05
1.15734e-07
1.20575e-05
8.61934e-08
1.20587e-05
1.18279e-07
1.20603e-05
1.39117e-07
1.20576e-05
1.42816e-07
1.20572e-05
1.28924e-07
1.20629e-05
1.45413e-07
1.20696e-05
1.54245e-07
1.20724e-05
1.5279e-07
1.20745e-05
1.327e-07
1.23706e-07
1.20793e-05
1.26354e-05
-4.59894e-08
1.263e-05
-1.59846e-07
1.2636e-05
-1.52303e-08
1.26331e-05
-8.13739e-09
1.26333e-05
-8.23911e-08
1.26396e-05
1.44339e-08
1.26361e-05
8.11267e-08
1.2635e-05
8.76521e-08
1.26424e-05
1.03423e-07
1.26407e-05
1.17382e-07
1.26339e-05
9.30528e-08
1.26337e-05
1.1842e-07
1.26362e-05
1.36697e-07
1.26352e-05
1.43778e-07
1.26351e-05
1.29059e-07
1.26397e-05
1.40726e-07
1.26467e-05
1.47258e-07
1.26509e-05
1.48643e-07
1.26525e-05
1.3112e-07
1.19275e-07
1.26569e-05
1.32405e-05
-3.95267e-08
1.32341e-05
-1.53478e-07
1.32415e-05
-2.25835e-08
1.32374e-05
-4.05907e-09
1.32349e-05
-7.99365e-08
1.32434e-05
6.00324e-09
1.32427e-05
8.17833e-08
1.3239e-05
9.13474e-08
1.32443e-05
9.80931e-08
1.32445e-05
1.1717e-07
1.32386e-05
9.89698e-08
1.32373e-05
1.19715e-07
1.32399e-05
1.34092e-07
1.32404e-05
1.43325e-07
1.32407e-05
1.28708e-07
1.32447e-05
1.36771e-07
1.32512e-05
1.40763e-07
1.32567e-05
1.43125e-07
1.32585e-05
1.29376e-07
1.15717e-07
1.3262e-05
1.38746e-05
-3.39407e-08
1.38669e-05
-1.45837e-07
1.38754e-05
-3.10325e-08
1.38711e-05
2.12152e-10
1.38658e-05
-7.45844e-08
1.38752e-05
-3.42468e-09
1.38777e-05
7.92674e-08
1.38728e-05
9.62276e-08
1.38758e-05
9.51086e-08
1.3877e-05
1.15945e-07
1.38725e-05
1.03484e-07
1.38706e-05
1.21608e-07
1.38731e-05
1.31661e-07
1.38745e-05
1.41876e-07
1.38753e-05
1.27922e-07
1.38791e-05
1.32997e-07
1.38848e-05
1.3503e-07
1.3891e-05
1.36946e-07
1.38938e-05
1.26532e-07
1.13548e-07
1.3896e-05
1.45391e-05
-2.93438e-08
1.45301e-05
-1.36835e-07
1.4539e-05
-3.99911e-08
1.45355e-05
3.69996e-09
1.45275e-05
-6.65775e-08
1.45366e-05
-1.2476e-08
1.45423e-05
7.35774e-08
1.45376e-05
1.00949e-07
1.45381e-05
9.45933e-08
1.45397e-05
1.14345e-07
1.45368e-05
1.06324e-07
1.45349e-05
1.23563e-07
1.45368e-05
1.29746e-07
1.45389e-05
1.39809e-07
1.45402e-05
1.26618e-07
1.4544e-05
1.2913e-07
1.45492e-05
1.29837e-07
1.4555e-05
1.31198e-07
1.45594e-05
1.22079e-07
1.12028e-07
1.45609e-05
1.52353e-05
-2.57681e-08
1.52251e-05
-1.26587e-07
1.52338e-05
-4.87471e-08
1.52318e-05
5.68929e-09
1.52218e-05
-5.655e-08
1.5229e-05
-1.96474e-08
1.52375e-05
6.50543e-08
1.52341e-05
1.04294e-07
1.52327e-05
9.60716e-08
1.5234e-05
1.13007e-07
1.52327e-05
1.07656e-07
1.52311e-05
1.25168e-07
1.52326e-05
1.28192e-07
1.52351e-05
1.37292e-07
1.52368e-05
1.24951e-07
1.52405e-05
1.25418e-07
1.52457e-05
1.24618e-07
1.52508e-05
1.26146e-07
1.52562e-05
1.16709e-07
1.09774e-07
1.52584e-05
1.59648e-05
-2.31894e-08
1.59535e-05
-1.15308e-07
1.59613e-05
-5.65942e-08
1.59611e-05
5.89109e-09
1.595e-05
-4.53922e-08
1.59539e-05
-2.36208e-08
1.59646e-05
5.43723e-08
1.59635e-05
1.05457e-07
1.59608e-05
9.87358e-08
1.59614e-05
1.12374e-07
1.59614e-05
1.07673e-07
1.59607e-05
1.25863e-07
1.59621e-05
1.26834e-07
1.59648e-05
1.34611e-07
1.59667e-05
1.23005e-07
1.59702e-05
1.21962e-07
1.59757e-05
1.19078e-07
1.59804e-05
1.21392e-07
1.59854e-05
1.11732e-07
1.06127e-07
1.59891e-05
1.67289e-05
-2.15117e-08
1.67169e-05
-1.03333e-07
1.67233e-05
-6.29314e-08
1.67246e-05
4.5645e-09
1.67131e-05
-3.39072e-08
1.67129e-05
-2.34258e-08
1.67242e-05
4.31023e-08
1.67259e-05
1.03775e-07
1.67235e-05
1.01102e-07
1.67236e-05
1.12255e-07
1.67247e-05
1.06625e-07
1.67252e-05
1.25331e-07
1.67265e-05
1.2556e-07
1.67292e-05
1.31896e-07
1.67316e-05
1.20571e-07
1.67348e-05
1.18779e-07
1.67402e-05
1.13696e-07
1.67453e-05
1.16337e-07
1.67493e-05
1.07686e-07
1.01473e-07
1.6754e-05
1.75294e-05
-2.05821e-08
1.75172e-05
-9.11243e-08
1.75215e-05
-6.72276e-08
1.75239e-05
2.16252e-09
1.75131e-05
-2.30702e-08
1.75086e-05
-1.89202e-08
1.75178e-05
3.38551e-08
1.75228e-05
9.87492e-08
1.75224e-05
1.01576e-07
1.75224e-05
1.12201e-07
1.7524e-05
1.0502e-07
1.75259e-05
1.2343e-07
1.75277e-05
1.23841e-07
1.75303e-05
1.2928e-07
1.75331e-05
1.17755e-07
1.75362e-05
1.15672e-07
1.75408e-05
1.09045e-07
1.75465e-05
1.10641e-07
1.75503e-05
1.03965e-07
9.69192e-08
1.75548e-05
1.8368e-05
-2.02118e-08
1.83559e-05
-7.90902e-08
1.83579e-05
-6.91478e-08
1.8361e-05
-1.01425e-09
1.83518e-05
-1.38781e-08
1.83452e-05
-1.22962e-08
1.83516e-05
2.75246e-08
1.83582e-05
9.20785e-08
1.83594e-05
1.0039e-07
1.83596e-05
1.1204e-07
1.83614e-05
1.03168e-07
1.83645e-05
1.20399e-07
1.83671e-05
1.21213e-07
1.83697e-05
1.2668e-07
1.83725e-05
1.14914e-07
1.8376e-05
1.12236e-07
1.83799e-05
1.05077e-07
1.83857e-05
1.04824e-07
1.83899e-05
9.97839e-08
9.31515e-08
1.83937e-05
1.92464e-05
-2.02103e-08
1.92348e-05
-6.75296e-08
1.92344e-05
-6.87624e-08
1.9238e-05
-4.61044e-09
1.92308e-05
-6.6476e-09
1.92236e-05
-5.04178e-09
1.92273e-05
2.38152e-08
1.92342e-05
8.51072e-08
1.92368e-05
9.78366e-08
1.92372e-05