/*--------------------------------*- C++ -*----------------------------------*\
| =========                 |                                                 |
| \\      /  F ield         | OpenFOAM: The Open Source CFD Toolbox           |
|  \\    /   O peration     | Version:  v1912                                 |
|   \\  /    A nd           | Website:  www.openfoam.com                      |
|    \\/     M anipulation  |                                                 |
\*---------------------------------------------------------------------------*/
FoamFile
{
    version     2.0;
    format      ascii;
    class       volVectorField;
    location    "5.4";
    object      U;
}
// * * * * * * * * * * * * * * * * * * * * * * * * * * * * * * * * * * * * * //

dimensions      [0 1 -1 0 0 0 0];


internalField   nonuniform List<vector> 
9600
(
(0.98316 0.00719384 0)
(1.03011 -0.0102406 0)
(0.950805 0.00825402 0)
(1.0542 -0.0173405 0)
(0.848349 0.022165 0)
(1.17754 0.00730939 0)
(0.779979 -0.0215908 0)
(1.07831 0.0174687 0)
(0.967907 -0.00693271 0)
(0.994734 -0.00445408 0)
(0.987417 0.0116035 0)
(1.07006 -0.0300015 0)
(0.915899 0.0251539 0)
(1.11381 -0.00360734 0)
(0.832706 0.0315571 0)
(1.16604 0.0151219 0)
(0.809363 0.0275627 0)
(1.1761 0.0277345 0)
(0.815772 0.0219242 0)
(1.13119 0.027738 0)
(0.984984 0.00708436 0)
(1.02603 -0.00991982 0)
(0.952663 0.00797824 0)
(1.049 -0.0162386 0)
(0.854442 0.0210824 0)
(1.15891 0.00851256 0)
(0.809687 -0.0205917 0)
(1.06993 0.0155732 0)
(0.982321 -0.00571879 0)
(0.996437 -0.00474689 0)
(0.995892 0.0101532 0)
(1.06435 -0.0282334 0)
(0.923752 0.0242088 0)
(1.09896 -0.000846597 0)
(0.84942 0.0303913 0)
(1.13319 0.0163622 0)
(0.855815 0.0272421 0)
(1.10788 0.0271303 0)
(0.915987 0.0245002 0)
(1.00605 0.0252045 0)
(0.98849 0.00698705 0)
(1.02031 -0.00962679 0)
(0.956698 0.00772229 0)
(1.04211 -0.0153497 0)
(0.868616 0.0198022 0)
(1.1296 0.00894999 0)
(0.854291 -0.019942 0)
(1.05073 0.0135669 0)
(0.992666 -0.0049807 0)
(0.994008 -0.00490876 0)
(1.00614 0.00910631 0)
(1.04969 -0.0269336 0)
(0.940874 0.0232302 0)
(1.07497 0.000623854 0)
(0.889607 0.0287004 0)
(1.0806 0.0165175 0)
(0.923786 0.0272072 0)
(1.03741 0.0260949 0)
(0.977887 0.0266265 0)
(0.97454 0.0242854 0)
(0.993043 0.00691463 0)
(1.01411 -0.00934918 0)
(0.962553 0.00749215 0)
(1.0345 -0.0145892 0)
(0.889912 0.0188782 0)
(1.09584 0.00909358 0)
(0.903206 -0.0191948 0)
(1.0234 0.0121497 0)
(0.99604 -0.00440526 0)
(0.988875 -0.00509544 0)
(1.01077 0.0082938 0)
(1.02951 -0.0257995 0)
(0.961755 0.0224229 0)
(1.05123 0.00174452 0)
(0.936937 0.0283625 0)
(1.04157 0.0158132 0)
(0.97476 0.0279011 0)
(1.01099 0.0253608 0)
(0.999811 0.0273773 0)
(0.988103 0.025213 0)
(0.997808 0.00685148 0)
(1.00836 -0.00907667 0)
(0.969265 0.0072731 0)
(1.02679 -0.0139613 0)
(0.914878 0.0183039 0)
(1.06456 0.00897206 0)
(0.945062 -0.0184023 0)
(0.995708 0.0112493 0)
(0.994533 -0.0040824 0)
(0.982986 -0.00531553 0)
(1.00766 0.00767576 0)
(1.01128 -0.0249658 0)
(0.979216 0.021743 0)
(1.03383 0.00230629 0)
(0.974332 0.0284809 0)
(1.02421 0.0152495 0)
(1.00149 0.0285174 0)
(1.01141 0.0251336 0)
(1.00872 0.0277183 0)
(1.00153 0.0262432 0)
(1.00205 0.00679139 0)
(1.00368 -0.00881051 0)
(0.975746 0.00706868 0)
(1.01946 -0.0134826 0)
(0.939054 0.0179458 0)
(1.041 0.00865116 0)
(0.973853 -0.017567 0)
(0.975545 0.0107673 0)
(0.992205 -0.00398103 0)
(0.977907 -0.00551194 0)
(0.999663 0.00722127 0)
(1.00009 -0.0244458 0)
(0.98867 0.0210201 0)
(1.02328 0.0025939 0)
(0.995976 0.0283659 0)
(1.01835 0.0150992 0)
(1.01117 0.0284581 0)
(1.01436 0.0252993 0)
(1.012 0.0278414 0)
(1.00642 0.0268175 0)
(1.00536 0.00673179 0)
(1.00028 -0.00855181 0)
(0.981283 0.00688492 0)
(1.01273 -0.0131511 0)
(0.959071 0.0177172 0)
(1.02643 0.00827364 0)
(0.989823 -0.0167224 0)
(0.966254 0.0105652 0)
(0.991733 -0.00400077 0)
(0.975034 -0.00560149 0)
(0.991198 0.00680044 0)
(0.995462 -0.024141 0)
(0.989676 0.0202814 0)
(1.01693 0.00267581 0)
(1.00406 0.0281033 0)
(1.01499 0.0151591 0)
(1.01121 0.0281204 0)
(1.01241 0.0256783 0)
(1.01057 0.0276908 0)
(1.00594 0.0272946 0)
(1.00768 0.00667014 0)
(0.99804 -0.0083003 0)
(0.985723 0.00672824 0)
(1.00665 -0.0129381 0)
(0.973748 0.0175463 0)
(1.01884 0.0079452 0)
(0.99654 -0.0159071 0)
(0.966069 0.010485 0)
(0.9936 -0.00403439 0)
(0.975019 -0.00555614 0)
(0.985306 0.00636188 0)
(0.99347 -0.0239116 0)
(0.985091 0.0195489 0)
(1.01205 0.00262971 0)
(1.00396 0.0277634 0)
(1.01153 0.0153668 0)
(1.00759 0.0278422 0)
(1.00823 0.0261071 0)
(1.00781 0.0274278 0)
(1.00482 0.0278339 0)
(1.00913 0.00660466 0)
(0.996697 -0.00805567 0)
(0.989311 0.0066049 0)
(1.00122 -0.0128074 0)
(0.983707 0.0173704 0)
(1.01536 0.00770565 0)
(0.997969 -0.0151563 0)
(0.97089 0.0104052 0)
(0.996997 -0.00402399 0)
(0.977429 -0.00539329 0)
(0.982943 0.00595851 0)
(0.990886 -0.0236367 0)
(0.978819 0.0188135 0)
(1.00697 0.0025056 0)
(1.0009 0.0273167 0)
(1.00844 0.0157117 0)
(1.00465 0.0275319 0)
(1.00575 0.0265378 0)
(1.00718 0.0270828 0)
(1.006 0.0282299 0)
(1.00988 0.00653479 0)
(0.995966 -0.00781936 0)
(0.99242 0.00651832 0)
(0.996479 -0.0127274 0)
(0.990301 0.0171512 0)
(1.0138 0.00756397 0)
(0.997069 -0.014486 0)
(0.977053 0.0102584 0)
(1.00084 -0.00396451 0)
(0.981132 -0.00514558 0)
(0.983559 0.00566844 0)
(0.987161 -0.0232311 0)
(0.973725 0.0180722 0)
(1.00121 0.00233773 0)
(0.997957 0.0267392 0)
(1.00626 0.0160944 0)
(1.00404 0.0270796 0)
(1.0063 0.0269317 0)
(1.00949 0.0265852 0)
(1.00962 0.0283805 0)
(1.01005 0.00646121 0)
(0.995629 -0.00759562 0)
(0.995361 0.00646839 0)
(0.992518 -0.0126741 0)
(0.99475 0.0168752 0)
(1.01304 0.0075122 0)
(0.995622 -0.0138947 0)
(0.982452 0.0100241 0)
(1.00431 -0.00387181 0)
(0.984952 -0.00485781 0)
(0.985945 0.00554768 0)
(0.983622 -0.02267 0)
(0.970862 0.0173209 0)
(0.995185 0.00215961 0)
(0.995838 0.0259772 0)
(1.00466 0.0164339 0)
(1.00497 0.0264397 0)
(1.00866 0.0272363 0)
(1.01325 0.0259554 0)
(1.01407 0.0283644 0)
(1.00972 0.0063857 0)
(0.995563 -0.00739096 0)
(0.998271 0.00645207 0)
(0.989422 -0.0126286 0)
(0.997832 0.016541 0)
(1.01263 0.00753756 0)
(0.994528 -0.0133696 0)
(0.986462 0.00970482 0)
(1.00701 -0.00375835 0)
(0.988089 -0.00456438 0)
(0.988903 0.00558645 0)
(0.981771 -0.0219714 0)
(0.96998 0.0165752 0)
(0.989855 0.00200856 0)
(0.994086 0.0249926 0)
(1.00311 0.0167087 0)
(1.00584 0.0255961 0)
(1.01085 0.0274275 0)
(1.0165 0.0252709 0)
(1.01766 0.0282473 0)
(1.00895 0.00631051 0)
(0.99574 -0.00721207 0)
(1.00105 0.0064643 0)
(0.987315 -0.0125758 0)
(0.999884 0.0161536 0)
(1.01244 0.00762135 0)
(0.994108 -0.0128892 0)
(0.989353 0.00931453 0)
(1.00887 -0.00362921 0)
(0.990237 -0.00428076 0)
(0.991635 0.00572416 0)
(0.982129 -0.0211663 0)
(0.970455 0.0158774 0)
(0.986133 0.00193435 0)
(0.992412 0.0238147 0)
(1.00144 0.0169327 0)
(1.0058 0.0245882 0)
(1.01164 0.027509 0)
(1.01809 0.0245903 0)
(1.01952 0.0280166 0)
(1.00781 0.00623729 0)
(0.996188 -0.00706283 0)
(1.00339 0.00649753 0)
(0.98637 -0.0125025 0)
(1.00091 0.0157217 0)
(1.01241 0.00774395 0)
(0.994336 -0.0124421 0)
(0.991562 0.00888194 0)
(1.00995 -0.00347816 0)
(0.99148 -0.00401701 0)
(0.993813 0.00588489 0)
(0.984074 -0.0202862 0)
(0.971852 0.0152409 0)
(0.984374 0.00197784 0)
(0.991061 0.0225037 0)
(0.999913 0.0171404 0)
(1.00504 0.0234914 0)
(1.011 0.027487 0)
(1.01792 0.0239509 0)
(1.01966 0.0276322 0)
(1.00645 0.00616636 0)
(0.996906 -0.00694157 0)
(1.00496 0.00654002 0)
(0.986679 -0.0123953 0)
(1.00076 0.0152563 0)
(1.01241 0.00788612 0)
(0.995053 -0.0120258 0)
(0.993201 0.00843525 0)
(1.01038 -0.00329427 0)
(0.992103 -0.00377825 0)
(0.9954 0.00601658 0)
(0.986474 -0.0193603 0)
(0.973892 0.0146496 0)
(0.984228 0.00214489 0)
(0.99032 0.0211236 0)
(0.998778 0.0173612 0)
(1.00407 0.0223744 0)
(1.00953 0.027374 0)
(1.01654 0.0234042 0)
(1.0185 0.0270689 0)
(1.00506 0.00609642 0)
(0.997821 -0.00684085 0)
(1.00562 0.00657717 0)
(0.988085 -0.0122428 0)
(0.999452 0.0147744 0)
(1.01222 0.0080174 0)
(0.996093 -0.0116266 0)
(0.994077 0.00799337 0)
(1.01027 -0.00307853 0)
(0.992425 -0.00356497 0)
(0.996427 0.00610954 0)
(0.988472 -0.0184079 0)
(0.976211 0.0140806 0)
(0.984936 0.0024344 0)
(0.990031 0.0197285 0)
(0.997851 0.0175938 0)
(1.00308 0.0213075 0)
(1.0077 0.0271869 0)
(1.01444 0.0230057 0)
(1.01647 0.0263401 0)
(1.00379 0.00602541 0)
(0.998795 -0.0067505 0)
(1.00553 0.00659556 0)
(0.990159 -0.0120375 0)
(0.997354 0.0142925 0)
(1.01167 0.00811237 0)
(0.997299 -0.0112362 0)
(0.994072 0.00757376 0)
(1.00974 -0.00284246 0)
(0.992684 -0.00337984 0)
(0.996935 0.00617194 0)
(0.989834 -0.0174423 0)
(0.978338 0.0134894 0)
(0.985799 0.00285397 0)
(0.989724 0.0183454 0)
(0.996675 0.0178305 0)
(1.00179 0.0203393 0)
(1.00557 0.0269131 0)
(1.01185 0.022786 0)
(1.01388 0.0254993 0)
(1.00274 0.00595152 0)
(0.999692 -0.00666111 0)
(1.005 0.00658597 0)
(0.992379 -0.0117771 0)
(0.995049 0.0138243 0)
(1.0107 0.00815544 0)
(0.998499 -0.0108476 0)
(0.993381 0.00718975 0)
(1.00897 -0.00261155 0)
(0.993002 -0.00321876 0)
(0.997025 0.00621863 0)
(0.990758 -0.0164699 0)
(0.979922 0.0128589 0)
(0.986439 0.00339322 0)
(0.989096 0.0170117 0)
(0.994971 0.0180645 0)
(0.999988 0.0194902 0)
(1.00311 0.026529 0)
(1.00894 0.0227343 0)
(1.01102 0.0245904 0)
(1.00192 0.00587349 0)
(1.00043 -0.00656609 0)
(1.00435 0.00654454 0)
(0.994348 -0.0114646 0)
(0.993073 0.0133791 0)
(1.00943 0.00814386 0)
(0.99952 -0.0104573 0)
(0.992397 0.00684431 0)
(1.00813 -0.00240704 0)
(0.993398 -0.00307759 0)
(0.996865 0.00625883 0)
(0.991523 -0.0154874 0)
(0.980896 0.0122012 0)
(0.986779 0.00404181 0)
(0.988223 0.0157629 0)
(0.992876 0.0182861 0)
(0.997766 0.0187764 0)
(1.00052 0.0260118 0)
(1.00593 0.0228099 0)
(1.00823 0.0236613 0)
(1.00131 0.00579104 0)
(1.00098 -0.00646306 0)
(1.00377 0.00647304 0)
(0.995885 -0.0111067 0)
(0.991703 0.0129595 0)
(1.00802 0.00808937 0)
(1.00025 -0.0100714 0)
(0.991464 0.00653409 0)
(1.00734 -0.00223333 0)
(0.993842 -0.00295491 0)
(0.996628 0.00629547 0)
(0.992286 -0.0144849 0)
(0.981432 0.011527 0)
(0.986897 0.00477981 0)
(0.987382 0.0146183 0)
(0.990797 0.0184819 0)
(0.995488 0.0182173 0)
(0.998145 0.0253454 0)
(1.00314 0.0229437 0)
(1.00582 0.0227633 0)
(1.00087 0.00570412 0)
(1.00136 -0.00635122 0)
(1.00333 0.00637527 0)
(0.996982 -0.0107109 0)
(0.990955 0.0125642 0)
(1.00662 0.00800697 0)
(1.00068 -0.00969242 0)
(0.990744 0.006251 0)
(1.00667 -0.00208834 0)
(0.994298 -0.00284913 0)
(0.996417 0.00632265 0)
(0.993091 -0.013449 0)
(0.981762 0.0108478 0)
(0.986904 0.00557452 0)
(0.986789 0.0135941 0)
(0.989104 0.0186344 0)
(0.993512 0.0178164 0)
(0.996313 0.0245308 0)
(1.00083 0.0230712 0)
(1.00397 0.0219399 0)
(1.00057 0.00561263 0)
(1.00162 -0.00623005 0)
(1.00303 0.00625449 0)
(0.997713 -0.0102835 0)
(0.990698 0.0121874 0)
(1.00535 0.00791544 0)
(1.00088 -0.00932689 0)
(0.99025 0.00598679 0)
(1.00613 -0.00196746 0)
(0.994743 -0.00275753 0)
(0.996253 0.00633912 0)
(0.993928 -0.0123742 0)
(0.982061 0.0101779 0)
(0.986895 0.00639551 0)
(0.986512 0.0126833 0)
(0.987973 0.0187311 0)
(0.992028 0.0175678 0)
(0.995152 0.0235852 0)
(0.999114 0.0231342 0)
(1.0027 0.0212327 0)
(1.00038 0.00551659 0)
(1.00178 -0.00610036 0)
(1.00283 0.00611467 0)
(0.998174 -0.0098301 0)
(0.990758 0.0118226 0)
(1.00425 0.00782775 0)
(1.00094 -0.00897717 0)
(0.989933 0.0057328 0)
(1.00568 -0.00186463 0)
(0.995166 -0.00268187 0)
(0.996101 0.00634799 0)
(0.994773 -0.0112634 0)
(0.982423 0.00952432 0)
(0.986923 0.00722316 0)
(0.986516 0.0118812 0)
(0.987389 0.0187399 0)
(0.991052 0.017464 0)
(0.994607 0.0225571 0)
(0.997955 0.023092 0)
(1.00188 0.0206696 0)
(1.00027 0.00541584 0)
(1.00186 -0.00596168 0)
(1.00268 0.00595733 0)
(0.998443 -0.00935308 0)
(0.990982 0.0114634 0)
(1.00337 0.00775067 0)
(1.00099 -0.00864266 0)
(0.989745 0.00548468 0)
(1.00524 -0.00177153 0)
(0.995558 -0.00262112 0)
(0.995901 0.00633701 0)
(0.995588 -0.0101212 0)
(0.982892 0.00889607 0)
(0.98701 0.00804696 0)
(0.986738 0.0111845 0)
(0.98724 0.018637 0)
(0.990502 0.0174801 0)
(0.994513 0.0214997 0)
(0.997247 0.0229097 0)
(1.00134 0.0202649 0)
(1.00024 0.00531012 0)
(1.00188 -0.00581301 0)
(1.00255 0.00578424 0)
(0.998571 -0.00885463 0)
(0.991263 0.011103 0)
(1.00271 0.00768515 0)
(1.0011 -0.00831944 0)
(0.989667 0.00524093 0)
(1.00476 -0.00168372 0)
(0.995901 -0.00257027 0)
(0.995601 0.00630266 0)
(0.99632 -0.00895832 0)
(0.98349 0.00829886 0)
(0.987146 0.00884213 0)
(0.987132 0.0105963 0)
(0.9874 0.0184168 0)
(0.990269 0.017586 0)
(0.994693 0.0204564 0)
(0.99688 0.0225602 0)
(1.00093 0.0200015 0)
(1.00028 0.00519873 0)
(1.00185 -0.00565322 0)
(1.00243 0.00559772 0)
(0.998584 -0.00833722 0)
(0.99155 0.0107369 0)
(1.00229 0.00763008 0)
(1.00131 -0.0080055 0)
(0.989709 0.00500942 0)
(1.0042 -0.00159873 0)
(0.99618 -0.00252858 0)
(0.995172 0.00624973 0)
(0.996899 -0.00778851 0)
(0.984219 0.0077256 0)
(0.987307 0.00958823 0)
(0.987672 0.0101365 0)
(0.987774 0.0180592 0)
(0.990274 0.0177517 0)
(0.995008 0.0194873 0)
(0.996783 0.0220389 0)
(1.00057 0.0198322 0)
(1.00037 0.00508199 0)
(1.00177 -0.00548053 0)
(1.0023 0.00539676 0)
(0.998494 -0.00779729 0)
(0.991831 0.0103527 0)
(1.00209 0.00758121 0)
(1.00161 -0.0076919 0)
(0.989893 0.00479254 0)
(1.00358 -0.00150421 0)
(0.996386 -0.0024995 0)
(0.994619 0.00617852 0)
(0.997258 -0.006618 0)
(0.985068 0.00717966 0)
(0.987471 0.0102758 0)
(0.988338 0.00980565 0)
(0.988307 0.0175779 0)
(0.990477 0.0179407 0)
(0.995382 0.0186304 0)
(0.996925 0.0213407 0)
(1.00026 0.019699 0)
(1.0005 0.00495934 0)
(1.00165 -0.00529306 0)
(1.00215 0.00518335 0)
(0.998314 -0.00723696 0)
(0.992119 0.00994457 0)
(1.00207 0.00752933 0)
(1.00196 -0.007372 0)
(0.990233 0.00459149 0)
(1.00291 -0.00138912 0)
(0.996524 -0.00247245 0)
(0.993977 0.00609515 0)
(0.997358 -0.00545716 0)
(0.98601 0.00666132 0)
(0.987618 0.010897 0)
(0.989098 0.00960258 0)
(0.988974 0.0169811 0)
(0.990859 0.0181173 0)
(0.995784 0.0179306 0)
(0.997293 0.0204984 0)
(1.00005 0.0195313 0)
(1.00064 0.00483021 0)
(1.00153 -0.005089 0)
(1.00201 0.00496128 0)
(0.998066 -0.00666348 0)
(0.992431 0.00950949 0)
(1.0022 0.00747745 0)
(1.00231 -0.00705008 0)
(0.990723 0.00440869 0)
(1.00225 -0.00124039 0)
(0.99661 -0.00244401 0)
(0.993303 0.00599883 0)
(0.997195 -0.00432688 0)
(0.986999 0.00616322 0)
(0.987745 0.0114216 0)
(0.989903 0.00953203 0)
(0.989754 0.0162841 0)
(0.991411 0.0182345 0)
(0.996205 0.0174095 0)
(0.997861 0.0195619 0)
(1.00001 0.0192611 0)
(1.00078 0.00469476 0)
(1.0014 -0.00486716 0)
(1.00187 0.00472947 0)
(0.997785 -0.00607353 0)
(0.992779 0.00903808 0)
(1.00239 0.00742092 0)
(1.00261 -0.00671972 0)
(0.991328 0.00424276 0)
(1.00163 -0.00104807 0)
(0.996667 -0.00241898 0)
(0.992662 0.00588905 0)
(0.996814 -0.00323661 0)
(0.987992 0.00568404 0)
(0.987861 0.0118303 0)
(0.990694 0.00958398 0)
(0.990621 0.015522 0)
(0.992099 0.0182442 0)
(0.996634 0.0170466 0)
(0.998575 0.0185998 0)
(1.00017 0.01884 0)
(1.00089 0.0045532 0)
(1.00129 -0.00462964 0)
(1.00175 0.00449048 0)
(0.997509 -0.00546747 0)
(0.993161 0.00852848 0)
(1.00258 0.00735561 0)
(1.00285 -0.00637811 0)
(0.991997 0.00408449 0)
(1.00108 -0.000800667 0)
(0.996726 -0.00237931 0)
(0.992116 0.00576788 0)
(0.996291 -0.00217553 0)
(0.988956 0.0052198 0)
(0.987985 0.0121043 0)
(0.991409 0.00975427 0)
(0.991533 0.0147214 0)
(0.992877 0.0181151 0)
(0.997046 0.0168214 0)
(0.999346 0.0176908 0)
(1.00052 0.0182412 0)
(1.00097 0.00440484 0)
(1.00121 -0.00437473 0)
(1.00165 0.0042462 0)
(0.997273 -0.00485485 0)
(0.993567 0.00798889 0)
(1.00272 0.00728555 0)
(1.00301 -0.00602221 0)
(0.992674 0.00392693 0)
(1.00061 -0.000492937 0)
(0.996808 -0.00232332 0)
(0.991708 0.00563814 0)
(0.995716 -0.00115498 0)
(0.989879 0.00477821 0)
(0.988146 0.0122215 0)
(0.992002 0.0100143 0)
(0.992444 0.0139162 0)
(0.993691 0.0178326 0)
(0.99741 0.0166977 0)
(1.00007 0.0169115 0)
(1.00101 0.0174717 0)
(1.00101 0.00424983 0)
(1.00114 -0.00410282 0)
(1.00157 0.00399414 0)
(0.997101 -0.00423525 0)
(0.993986 0.00742389 0)
(1.00277 0.0072049 0)
(1.00309 -0.00564476 0)
(0.993312 0.0037575 0)
(1.00022 -0.000133379 0)
(0.996934 -0.00224291 0)
(0.991463 0.00549865 0)
(0.995164 -0.000177207 0)
(0.990763 0.00439094 0)
(0.98838 0.0121831 0)
(0.992453 0.0103354 0)
(0.993315 0.0131605 0)
(0.994502 0.0173809 0)
(0.997708 0.0165948 0)
(1.00066 0.0163007 0)
(1.00155 0.0165924 0)
(1.00103 0.00408816 0)
(1.00109 -0.00381594 0)
(1.00151 0.0037347 0)
(0.997003 -0.00361274 0)
(0.994407 0.00684588 0)
(1.00271 0.00711126 0)
(1.00311 -0.00524546 0)
(0.993886 0.00356049 0)
(0.999895 0.000264096 0)
(0.997104 -0.00212784 0)
(0.991386 0.00533084 0)
(0.994692 0.000777539 0)
(0.99162 0.00407541 0)
(0.98872 0.0119966 0)
(0.992774 0.010693 0)
(0.994112 0.0125001 0)
(0.99528 0.0167745 0)
(0.997941 0.0164455 0)
(1.00105 0.0158499 0)
(1.00207 0.0156997 0)
(1.00102 0.00392068 0)
(1.00105 -0.00351619 0)
(1.00147 0.00347016 0)
(0.996977 -0.00299382 0)
(0.994824 0.00626849 0)
(1.00257 0.00700007 0)
(1.00306 -0.00481644 0)
(0.994389 0.00333799 0)
(0.999613 0.000689059 0)
(0.997315 -0.00197548 0)
(0.991471 0.00513954 0)
(0.994324 0.00169192 0)
(0.992451 0.00384059 0)
(0.989189 0.011671 0)
(0.992998 0.011033 0)
(0.994816 0.0119575 0)
(0.996021 0.0160516 0)
(0.998132 0.0162306 0)
(1.00124 0.0155288 0)
(1.00249 0.0148963 0)
(1.00101 0.00374681 0)
(1.00101 -0.00320277 0)
(1.00145 0.00319688 0)
(0.99701 -0.00237867 0)
(0.995237 0.00570396 0)
(1.00235 0.00685965 0)
(1.00298 -0.00434609 0)
(0.994833 0.00308528 0)
(0.999361 0.00112872 0)
(0.99755 -0.00176947 0)
(0.991696 0.00491306 0)
(0.994063 0.00253968 0)
(0.993254 0.0037092 0)
(0.989793 0.0112414 0)
(0.99317 0.0113319 0)
(0.995422 0.0115465 0)
(0.996729 0.015248 0)
(0.998315 0.0159206 0)
(1.00127 0.0152781 0)
(1.00278 0.0142482 0)
(1.00098 0.00356667 0)
(1.00097 -0.00287696 0)
(1.00144 0.00291719 0)
(0.997089 -0.00177796 0)
(0.995641 0.00516487 0)
(1.00209 0.00669623 0)
(1.00286 -0.00382508 0)
(0.995233 0.00280518 0)
(0.999133 0.00155545 0)
(0.997792 -0.00151066 0)
(0.992035 0.0046635 0)
(0.993902 0.00331473 0)
(0.994015 0.00367062 0)
(0.990523 0.0107277 0)
(0.993333 0.0115628 0)
(0.995926 0.0112707 0)
(0.997409 0.0144179 0)
(0.998529 0.01551 0)
(1.0012 0.0150457 0)
(1.00291 0.0137804 0)
(1.00096 0.00338124 0)
(1.00092 -0.00254062 0)
(1.00144 0.00263182 0)
(0.997199 -0.00119525 0)
(0.996036 0.00466341 0)
(1.00181 0.00649024 0)
(1.00272 -0.00325074 0)
(0.995608 0.00251843 0)
(0.998929 0.00194278 0)
(0.998029 -0.00119612 0)
(0.992462 0.00441399 0)
(0.993823 0.00401457 0)
(0.994716 0.00373727 0)
(0.991352 0.0101573 0)
(0.993525 0.011696 0)
(0.996332 0.0111161 0)
(0.998056 0.0136088 0)
(0.998795 0.0149964 0)
(1.00108 0.0147748 0)
(1.00291 0.0134172 0)
(1.00093 0.0031909 0)
(1.00087 -0.00219609 0)
(1.00146 0.00234407 0)
(0.997327 -0.000640266 0)
(0.996417 0.00421992 0)
(1.00153 0.00623123 0)
(1.00257 -0.00264676 0)
(0.995972 0.00223981 0)
(0.998756 0.00227405 0)
(0.998251 -0.000823029 0)
(0.992957 0.00415415 0)
(0.993818 0.00460411 0)
(0.995343 0.00391134 0)
(0.992246 0.00957703 0)
(0.993771 0.0117222 0)
(0.996645 0.0110654 0)
(0.998656 0.0128901 0)
(0.999121 0.0144198 0)
(1.00097 0.0144857 0)
(1.00281 0.0131004 0)
(1.0009 0.00299501 0)
(1.00081 -0.00184211 0)
(1.00149 0.00205866 0)
(0.997465 -0.000120901 0)
(0.99678 0.00383829 0)
(1.00127 0.00593432 0)
(1.00241 -0.00203419 0)
(0.996334 0.00199244 0)
(0.998623 0.00254127 0)
(0.998455 -0.000419594 0)
(0.993496 0.00392014 0)
(0.99388 0.00509639 0)
(0.995892 0.00415072 0)
(0.993169 0.00901907 0)
(0.994088 0.0116129 0)
(0.996887 0.0110518 0)
(0.999196 0.0122758 0)
(0.999504 0.0137711 0)
(1.00088 0.0141625 0)
(1.00262 0.0128777 0)
(1.00088 0.00279672 0)
(1.00075 -0.00149048 0)
(1.00153 0.00178306 0)
(0.997607 0.000362025 0)
(0.997119 0.00353201 0)
(1.00103 0.00558908 0)
(1.00224 -0.00142575 0)
(0.996694 0.00180887 0)
(0.998533 0.00273638 0)
(0.998645 1.0786e-05 0)
(0.994072 0.00371386 0)
(0.994002 0.0054726 0)
(0.99636 0.00443119 0)
(0.994089 0.00850331 0)
(0.994476 0.0114528 0)
(0.997076 0.0110773 0)
(0.999655 0.0117833 0)
(0.99993 0.0131099 0)
(1.00088 0.0137359 0)
(1.00241 0.012601 0)
(1.00085 0.00259594 0)
(1.00069 -0.00113171 0)
(1.00158 0.0015177 0)
(0.99775 0.00077598 0)
(0.99743 0.00332255 0)
(1.00082 0.00522032 0)
(1.00209 -0.000862221 0)
(0.997049 0.00169912 0)
(0.99849 0.00287325 0)
(0.998819 0.000445554 0)
(0.994663 0.00353839 0)
(0.994183 0.00576499 0)
(0.996761 0.00474601 0)
(0.994998 0.00799628 0)
(0.994947 0.0111355 0)
(0.997226 0.0111224 0)
(1.00003 0.0114415 0)
(1.00036 0.0125161 0)
(1.00091 0.0133372 0)
(1.00216 0.0123897 0)
(1.00082 0.00239134 0)
(1.00061 -0.000785913 0)
(1.00163 0.00128093 0)
(0.997899 0.00112369 0)
(0.99771 0.00319521 0)
(1.00065 0.00483208 0)
(1.00194 -0.000344496 0)
(0.997398 0.00165221 0)
(0.998489 0.00297266 0)
(0.998982 0.000867713 0)
(0.995276 0.00336769 0)
(0.994424 0.00596113 0)
(0.997082 0.00507913 0)
(0.995844 0.00761223 0)
(0.995506 0.0107115 0)
(0.997403 0.0110445 0)
(1.00032 0.0111371 0)
(1.00079 0.0118591 0)
(1.00104 0.0127959 0)
(1.00192 0.012202 0)
(1.0008 0.00219374 0)
(1.00054 -0.00044231 0)
(1.00169 0.00106563 0)
(0.998053 0.00137165 0)
(0.997957 0.00317025 0)
(1.0005 0.00445414 0)
(1.00181 9.63852e-05 0)
(0.997734 0.00166096 0)
(0.998527 0.00303214 0)
(0.999129 0.00125956 0)
(0.995886 0.00326554 0)
(0.994733 0.0060649 0)
(0.997375 0.00535637 0)
(0.996637 0.00724323 0)
(0.996098 0.0101996 0)
(0.997584 0.0108827 0)
(1.00051 0.0108149 0)
(1.00116 0.0111502 0)
(1.00124 0.0120561 0)
(1.00178 0.0118494 0)
(1.00077 0.00198904 0)
(1.00045 -0.0001203 0)
(1.00174 0.000894135 0)
(0.998222 0.00154338 0)
(0.99818 0.00319148 0)
(1.00037 0.00413386 0)
(1.0017 0.000457134 0)
(0.998057 0.0017224 0)
(0.998595 0.00307314 0)
(0.999277 0.0016431 0)
(0.9965 0.00316303 0)
(0.995083 0.00609253 0)
(0.997601 0.00565972 0)
(0.997343 0.00694344 0)
(0.996764 0.00958084 0)
(0.997825 0.0105361 0)
(1.00063 0.0104501 0)
(1.00148 0.0105061 0)
(1.00153 0.0113744 0)
(1.0018 0.0114895 0)
(1.00075 0.00179836 0)
(1.00036 0.000184203 0)
(1.00179 0.000762517 0)
(0.998399 0.00162102 0)
(0.998378 0.00326241 0)
(1.00025 0.00385957 0)
(1.00161 0.000754991 0)
(0.998368 0.00177797 0)
(0.998693 0.00313711 0)
(0.999397 0.00198331 0)
(0.997089 0.003105 0)
(0.995519 0.0060415 0)
(0.99783 0.00588501 0)
(0.997949 0.00670007 0)
(0.997392 0.0090311 0)
(0.998097 0.0102147 0)
(1.00075 0.0101697 0)
(1.00178 0.0101162 0)
(1.0019 0.0109226 0)
(1.00198 0.0112252 0)
(1.00073 0.00161138 0)
(1.00026 0.00046383 0)
(1.00182 0.000680312 0)
(0.998597 0.00164386 0)
(0.998561 0.00333117 0)
(1.00014 0.00367125 0)
(1.00153 0.000983772 0)
(0.998676 0.00184979 0)
(0.998814 0.00318841 0)
(0.999519 0.00230526 0)
(0.997667 0.00307629 0)
(0.995968 0.00592154 0)
(0.998014 0.00606573 0)
(0.998489 0.00656158 0)
(0.998094 0.00848596 0)
(0.99844 0.00983206 0)
(1.00085 0.00994282 0)
(1.00204 0.00982149 0)
(1.00226 0.0105249 0)
(1.00222 0.0108711 0)
(1.0007 0.00142944 0)
(1.00017 0.000714824 0)
(1.00184 0.000653488 0)
(0.998798 0.00161798 0)
(0.998731 0.00337409 0)
(1.00004 0.00356438 0)
(1.00147 0.00117416 0)
(0.998972 0.00190732 0)
(0.99896 0.00322059 0)
(0.999613 0.0026302 0)
(0.998195 0.00304613 0)
(0.996495 0.00577446 0)
(0.998247 0.00620509 0)
(0.99892 0.00651346 0)
(0.998695 0.00800949 0)
(0.998839 0.00942075 0)
(1.00099 0.00973287 0)
(1.00229 0.00947768 0)
(1.00263 0.0100918 0)
(1.00256 0.0103472 0)
(1.00068 0.00127075 0)
(1.00006 0.000931081 0)
(1.00183 0.000672402 0)
(0.999015 0.00154412 0)
(0.998905 0.00339273 0)
(0.999923 0.00350416 0)
(1.00139 0.00136059 0)
(0.999262 0.00194337 0)
(0.999135 0.00324016 0)
(0.999708 0.00291996 0)
(0.998693 0.00310241 0)
(0.997021 0.00556668 0)
(0.998458 0.00625555 0)
(0.999299 0.00651983 0)
(0.999332 0.00771495 0)
(0.999309 0.00908736 0)
(1.00112 0.00951927 0)
(1.00249 0.00924947 0)
(1.00295 0.00973743 0)
(1.00285 0.00996501 0)
(1.00066 0.00111433 0)
(0.999969 0.00110504 0)
(1.00181 0.000747329 0)
(0.999226 0.00146297 0)
(0.999075 0.00333674 0)
(0.99982 0.00350663 0)
(1.00132 0.00155353 0)
(0.999537 0.00198772 0)
(0.999336 0.00323557 0)
(0.999793 0.00319492 0)
(0.999116 0.00318134 0)
(0.997583 0.00538069 0)
(0.99876 0.0062916 0)
(0.999637 0.00657837 0)
(0.999855 0.0074555 0)
(0.999763 0.00867526 0)
(1.00129 0.00931047 0)
(1.00266 0.00909634 0)
(1.00325 0.00940182 0)
(1.00318 0.00967176 0)
(1.00065 0.000985843 0)
(0.999875 0.00124357 0)
(1.00176 0.000846795 0)
(0.999435 0.0013664 0)
(0.999265 0.00324095 0)
(0.999725 0.00353503 0)
(1.00123 0.0017575 0)
(0.999792 0.00204115 0)
(0.999565 0.00320582 0)
(0.999889 0.00342237 0)
(0.99951 0.00334342 0)
(0.99813 0.00523843 0)
(0.999046 0.00620658 0)
(0.99992 0.00655992 0)
(1.00035 0.00727677 0)
(1.00029 0.00837275 0)
(1.00152 0.00906143 0)
(1.00279 0.00888582 0)
(1.0035 0.00901795 0)
(1.00343 0.00923238 0)
(1.00063 0.000868822 0)
(0.99979 0.00132895 0)
(1.0017 0.00098657 0)
(0.999627 0.00129376 0)
(0.99946 0.00308773 0)
(0.99965 0.00355489 0)
(1.00114 0.00199474 0)
(1.00002 0.00211988 0)
(0.999809 0.00315786 0)
(1 0.00361212 0)
(0.999837 0.00350927 0)
(0.998647 0.00509182 0)
(0.999397 0.00612089 0)
(1.00023 0.00656958 0)
(1.00079 0.00713687 0)
(1.00074 0.00800084 0)
(1.00174 0.00866105 0)
(1.00288 0.00862787 0)
(1.00368 0.00866344 0)
(1.0037 0.00877975 0)
(1.00061 0.000773481 0)
(0.999716 0.00138561 0)
(1.00161 0.00113226 0)
(0.999798 0.00123171 0)
(0.999676 0.00291537 0)
(0.999605 0.00356431 0)
(1.00103 0.00223032 0)
(1.00021 0.002215 0)
(1.00007 0.00311406 0)
(1.00014 0.00374074 0)
(1.00014 0.00367869 0)
(0.999142 0.00502568 0)
(0.999743 0.00599701 0)
(1.00049 0.00647427 0)
(1.00115 0.00693073 0)
(1.00118 0.00767057 0)
(1.00203 0.00832788 0)
(1.00301 0.00838969 0)
(1.00382 0.00840881 0)
(1.00395 0.00838702 0)
(1.00059 0.000697989 0)
(0.999652 0.00139203 0)
(1.00151 0.0012874 0)
(0.999945 0.00122015 0)
(0.999897 0.00271897 0)
(0.999591 0.00352193 0)
(1.00092 0.00246909 0)
(1.00036 0.00236268 0)
(1.00033 0.00307367 0)
(1.0003 0.0038118 0)
(1.00041 0.00383226 0)
(0.999583 0.00495263 0)
(1.00009 0.00584761 0)
(1.00077 0.00638132 0)
(1.00149 0.00678349 0)
(1.00159 0.00740793 0)
(1.0023 0.00798017 0)
(1.00313 0.00805559 0)
(1.0039 0.00814488 0)
(1.00416 0.00805751 0)
(1.00057 0.000637044 0)
(0.999604 0.00138135 0)
(1.00141 0.00143184 0)
(1.00006 0.00123766 0)
(1.00012 0.00251744 0)
(0.999623 0.00343234 0)
(1.00083 0.00269382 0)
(1.00048 0.00253575 0)
(1.00057 0.00305233 0)
(1.00049 0.00384569 0)
(1.00066 0.00394461 0)
(0.999994 0.0049158 0)
(1.00044 0.00572125 0)
(1.00103 0.00625645 0)
(1.00178 0.00660196 0)
(1.00194 0.00710355 0)
(1.00255 0.00764389 0)
(1.00331 0.0077541 0)
(1.00403 0.00790121 0)
(1.00431 0.00783275 0)
(1.00055 0.000593294 0)
(0.999568 0.00134485 0)
(1.00132 0.00155363 0)
(1.00015 0.00130541 0)
(1.00034 0.00232691 0)
(0.999694 0.00328859 0)
(1.00076 0.00287203 0)
(1.00056 0.00273553 0)
(1.0008 0.00306489 0)
(1.00068 0.00384541 0)
(1.0009 0.00401854 0)
(1.00036 0.00487605 0)
(1.00077 0.00558451 0)
(1.00129 0.00611451 0)
(1.00205 0.00644344 0)
(1.00229 0.00685474 0)
(1.00282 0.0073594 0)
(1.00347 0.00747327 0)
(1.00414 0.00756266 0)
(1.00438 0.00757671 0)
(1.00054 0.000560278 0)
(0.999545 0.00130086 0)
(1.00123 0.00165116 0)
(1.00021 0.00139819 0)
(1.00054 0.00215467 0)
(0.999808 0.00311609 0)
(1.00073 0.00299908 0)
(1.00062 0.00294033 0)
(1.00099 0.00310656 0)
(1.00088 0.0038319 0)
(1.00114 0.00405073 0)
(1.00071 0.00482602 0)
(1.00109 0.00546138 0)
(1.00155 0.00597838 0)
(1.00229 0.00628369 0)
(1.00258 0.00660178 0)
(1.00306 0.00703011 0)
(1.00361 0.00719015 0)
(1.00427 0.00722829 0)
(1.0045 0.00731888 0)
(1.00052 0.000536402 0)
(0.999533 0.00125616 0)
(1.00115 0.00170986 0)
(1.00025 0.0015143 0)
(1.00072 0.00203809 0)
(0.999954 0.00292508 0)
(1.00075 0.00304535 0)
(1.00066 0.00312042 0)
(1.00115 0.00317775 0)
(1.00108 0.00381534 0)
(1.00137 0.00405569 0)
(1.00103 0.00476545 0)
(1.00139 0.00533179 0)
(1.0018 0.00582153 0)
(1.0025 0.00611382 0)
(1.00285 0.00638448 0)
(1.00332 0.00672708 0)
(1.00376 0.00694834 0)
(1.0044 0.00696017 0)
(1.00463 0.00700464 0)
(1.0005 0.000516192 0)
(0.999528 0.00121722 0)
(1.00109 0.00174424 0)
(1.00027 0.00162467 0)
(1.00086 0.00199258 0)
(1.00012 0.00274715 0)
(1.00081 0.00302028 0)
(1.00072 0.00325274 0)
(1.00128 0.00325091 0)
(1.00126 0.00380097 0)
(1.0016 0.004032 0)
(1.00134 0.00468313 0)
(1.00167 0.00519605 0)
(1.00204 0.00565926 0)
(1.00271 0.00594224 0)
(1.00307 0.00619096 0)
(1.00356 0.00643951 0)
(1.00391 0.0066569 0)
(1.00447 0.00670956 0)
(1.00477 0.00667536 0)
(1.00049 0.00050224 0)
(0.99953 0.00118011 0)
(1.00104 0.00176404 0)
(1.00029 0.00171631 0)
(1.00098 0.00199508 0)
(1.00028 0.00261835 0)
(1.00091 0.00294219 0)
(1.00078 0.00331492 0)
(1.00139 0.00331178 0)
(1.00142 0.00379533 0)
(1.00181 0.00399456 0)
(1.00162 0.0045847 0)
(1.00195 0.00504934 0)
(1.00228 0.00548725 0)
(1.00291 0.00574828 0)
(1.00327 0.00598642 0)
(1.00376 0.00618333 0)
(1.00409 0.00635585 0)
(1.00455 0.00647934 0)
(1.00489 0.00641754 0)
(1.00048 0.000489751 0)
(0.999536 0.00115127 0)
(1.00101 0.00176957 0)
(1.00031 0.00179219 0)
(1.00108 0.00201066 0)
(1.00043 0.00253189 0)
(1.00103 0.00284129 0)
(1.00087 0.00331138 0)
(1.00149 0.00334641 0)
(1.00157 0.00378617 0)
(1.002 0.00395818 0)
(1.00189 0.00447753 0)
(1.00221 0.00488792 0)
(1.00251 0.00530619 0)
(1.00311 0.00555145 0)
(1.00346 0.00577381 0)
(1.00393 0.00596431 0)
(1.00427 0.00607868 0)
(1.00466 0.00620595 0)
(1.00496 0.00618578 0)
(1.00046 0.000478306 0)
(0.999545 0.00112887 0)
(1.00099 0.00176639 0)
(1.00033 0.00184645 0)
(1.00116 0.00202685 0)
(1.00056 0.00247388 0)
(1.00116 0.00274321 0)
(1.00098 0.00326743 0)
(1.00159 0.00335039 0)
(1.0017 0.00376933 0)
(1.00218 0.00391539 0)
(1.00213 0.00437349 0)
(1.00246 0.00472744 0)
(1.00273 0.00511299 0)
(1.00329 0.00535053 0)
(1.00364 0.00554459 0)
(1.00409 0.00573133 0)
(1.00441 0.00583565 0)
(1.00477 0.00591088 0)
(1.00504 0.00595211 0)
(1.00045 0.000468213 0)
(0.999555 0.00110948 0)
(1.00097 0.00175478 0)
(1.00035 0.00188265 0)
(1.00123 0.00203514 0)
(1.00069 0.00243342 0)
(1.0013 0.00265732 0)
(1.00111 0.00320029 0)
(1.0017 0.00331934 0)
(1.00183 0.00373631 0)
(1.00233 0.00386029 0)
(1.00234 0.00426518 0)
(1.00268 0.00457448 0)
(1.00294 0.00491345 0)
(1.00346 0.00514501 0)