/*--------------------------------*- C++ -*----------------------------------*\
| =========                 |                                                 |
| \\      /  F ield         | OpenFOAM: The Open Source CFD Toolbox           |
|  \\    /   O peration     | Version:  v1912                                 |
|   \\  /    A nd           | Website:  www.openfoam.com                      |
|    \\/     M anipulation  |                                                 |
\*---------------------------------------------------------------------------*/
FoamFile
{
    version     2.0;
    format      ascii;
    class       volScalarField;
    location    "0.85";
    object      p;
}
// * * * * * * * * * * * * * * * * * * * * * * * * * * * * * * * * * * * * * //

dimensions      [0 2 -2 0 0 0 0];


internalField   nonuniform List<scalar> 
9600
(
-1.85511e-11
-0.000426172
-0.00256866
0.000441414
0.000195933
-0.00123764
0.000869081
0.00220109
0.000591343
0.00182433
0.00222286
0.00112126
0.000676252
0.00211307
0.00227318
0.00332899
0.00336377
0.00557302
0.00643631
0.011807
-1.42865e-06
-0.000426626
-0.00255522
0.000409473
0.00019312
-0.00120139
0.000859684
0.00219406
0.000601261
0.00180773
0.00222627
0.00109698
0.000688823
0.00212041
0.00227261
0.00332384
0.00338811
0.00551941
0.00655526
0.0112675
-3.03223e-06
-0.000426795
-0.00254195
0.000376453
0.00019685
-0.00117023
0.000845822
0.00218445
0.000612034
0.00178343
0.00222341
0.00108472
0.000712843
0.00212112
0.00227703
0.00331599
0.00341282
0.00546812
0.00658623
0.010758
-4.95276e-06
-0.000428181
-0.00252848
0.00035485
0.000201761
-0.00114183
0.000832292
0.00216915
0.00062148
0.00175565
0.00221287
0.00108662
0.000743137
0.00211671
0.0022838
0.00330127
0.00343845
0.00540407
0.0065998
0.0102853
-7.58253e-06
-0.00043071
-0.00251084
0.000342903
0.000204904
-0.00111424
0.000819775
0.00214849
0.000631563
0.0017252
0.00219887
0.00109797
0.000778001
0.00210762
0.00229088
0.00328274
0.00346393
0.00533125
0.00659474
0.00984168
-1.09555e-05
-0.000433807
-0.00248812
0.000338576
0.000204919
-0.00108711
0.000808345
0.00212521
0.000642815
0.00169269
0.0021847
0.00111351
0.000815359
0.00209492
0.00229904
0.00326214
0.0034877
0.0052466
0.00656988
0.00941733
-1.49378e-05
-0.000437078
-0.00246041
0.000339803
0.000201115
-0.0010601
0.000798123
0.00210152
0.000654768
0.00165879
0.00217201
0.00112929
0.000854458
0.00208022
0.00230799
0.00324022
0.00350874
0.00516901
0.00652284
0.00901176
-1.93451e-05
-0.000440206
-0.00242824
0.000344047
0.000194067
-0.00103289
0.000789006
0.00207851
0.000667023
0.00162382
0.00216124
0.00114349
0.000895158
0.00206421
0.0023168
0.00321819
0.00352529
0.00508983
0.00645361
0.00862557
-2.3983e-05
-0.000443004
-0.00239251
0.000349489
0.000185049
-0.00100547
0.000780768
0.00205646
0.000679386
0.00158787
0.00215233
0.00115554
0.000937076
0.00204728
0.00232483
0.00319698
0.00353537
0.00500985
0.00636384
0.00825589
-2.87081e-05
-0.00044546
-0.00235406
0.000355143
0.000175315
-0.000977976
0.000773182
0.00203527
0.000691792
0.00155093
0.00214517
0.00116523
0.000979663
0.00203024
0.00233114
0.00317721
0.0035379
0.0049298
0.00625452
0.00789815
-3.34479e-05
-0.000447657
-0.00231345
0.000360493
0.000165834
-0.000950524
0.000766012
0.00201463
0.00070421
0.0015129
0.00213971
0.00117249
0.00102237
0.00201406
0.00233441
0.00315965
0.00353226
0.00484916
0.00612721
0.00754924
-3.81752e-05
-0.000449694
-0.002271
0.000365241
0.00015729
-0.000923204
0.000759012
0.00199425
0.000716593
0.00147367
0.00213586
0.00117745
0.00106456
0.00199961
0.0023336
0.00314489
0.00351758
0.00476925
0.0059854
0.00720694
-4.28785e-05
-0.000451655
-0.00222687
0.00036919
0.000150139
-0.000896075
0.000751953
0.00197392
0.000728899
0.00143314
0.00213356
0.00118047
0.00110541
0.0019878
0.00232786
0.00313303
0.00349358
0.00468443
0.00583309
0.00686885
-4.75464e-05
-0.000453603
-0.00218111
0.000372196
0.00014467
-0.000869166
0.000744636
0.00195351
0.000741091
0.00139121
0.00213261
0.00118212
0.00114393
0.00197948
0.00231651
0.00312366
0.00346097
0.00459225
0.00567419
0.00653353
-5.21599e-05
-0.000455597
-0.00213374
0.000374122
0.000141041
-0.000842489
0.000736895
0.00193299
0.000753132
0.00134788
0.00213277
0.00118308
0.00117909
0.00197536
0.00229915
0.00311594
0.00342097
0.00448962
0.00551233
0.00620165
-5.66898e-05
-0.000457691
-0.00208474
0.000374826
0.00013932
-0.000816037
0.000728572
0.00191235
0.00076499
0.00130318
0.00213369
0.00118401
0.00120989
0.00197589
0.00227565
0.00310854
0.00337552
0.00437302
0.00534967
0.00587528
-6.10966e-05
-0.000459937
-0.00203409
0.000374156
0.000139513
-0.000789769
0.000719493
0.00189166
0.000776631
0.00125723
0.00213493
0.00118563
0.0012354
0.00198123
0.0022464
0.00309942
0.00332728
0.00424
0.0051858
0.00555788
-6.53306e-05
-0.000462378
-0.0019818
0.00037197
0.000141593
-0.000763614
0.000709448
0.00187102
0.000788012
0.00121016
0.00213599
0.00118857
0.00125479
0.00199127
0.00221222
0.00308586
0.00327924
0.00409039
0.00501888
0.00525362
-6.93355e-05
-0.00046505
-0.0019279
0.00036816
0.000145516
-0.000737451
0.000698182
0.00185057
0.000799089
0.00116215
0.00213636
0.00119341
0.00126737
0.00200558
0.00217428
0.00306492
0.00323356
0.00392437
0.00484623
0.00496666
-7.30532e-05
-0.000467983
-0.00187243
0.00036265
0.000151225
-0.000711091
0.000685422
0.00183039
0.000809853
0.00111336
0.00213549
0.00120073
0.00127271
0.00202317
0.00213438
0.00303384
0.00319104
0.0037448
0.00466445
0.00470064
-7.64214e-05
-0.000471198
-0.00181547
0.000355412
0.000158629
-0.000684281
0.00067087
0.00181055
0.000820362
0.0010639
0.00213281
0.00121096
0.00127072
0.00204264
0.00209446
0.00299047
0.00315155
0.0035558
0.00446994
0.00445775
-7.93723e-05
-0.000474709
-0.00175713
0.000346484
0.000167597
-0.000656714
0.00065422
0.00179107
0.000830725
0.00101389
0.00212786
0.00122441
0.00126143
0.00206238
0.00205623
0.00293336
0.00311406
0.00336205
0.00425969
0.00423805
-8.18364e-05
-0.000478514
-0.00169759
0.000335958
0.000177941
-0.000628023
0.000635205
0.00177186
0.000841102
0.000963342
0.00212027
0.00124132
0.00124504
0.00208074
0.00202112
0.00286167
0.00307676
0.00316837
0.00403165
0.00403902
-8.37461e-05
-0.000482594
-0.00163702
0.000323974
0.000189404
-0.000597789
0.000613632
0.00175282
0.000851693
0.000912156
0.00210972
0.00126177
0.00122182
0.00209617
0.00199041
0.00277526
0.00303582
0.00297967
0.00378484
0.00385573
-8.50341e-05
-0.000486913
-0.00157566
0.000310749
0.000201679
-0.000565618
0.00058943
0.00173366
0.000862777
0.000860252
0.00209598
0.00128576
0.00119204
0.00210696
0.0019652
0.00267461
0.00299069
0.00280101
0.00351975
0.00368075
-8.56383e-05
-0.000491403
-0.00151384
0.000296564
0.000214421
-0.00053113
0.000562635
0.00171394
0.000874782
0.000807499
0.00207866
0.00131352
0.00115609
0.00211125
0.00194642
0.00256061
0.00293635
0.00263772
0.00323912
0.00350418
-8.55007e-05
-0.000495965
-0.00145188
0.000281745
0.000227244
-0.000493985
0.000533382
0.00169315
0.000888251
0.0007537
0.00205724
0.00134538
0.00111449
0.00210712
0.00193474
0.00243454
0.00286875
0.0024949
0.00294901
0.00331447
-8.45598e-05
-0.000500453
-0.00139019
0.0002667
0.000239754
-0.000454013
0.000502034
0.00167053
0.000903772
0.000698906
0.00203078
0.00138138
0.00106811
0.00209241
0.0019306
0.00229888
0.00278401
0.00237523
0.00265886
0.00310034
-8.27668e-05
-0.000504676
-0.00132924
0.000251853
0.000251633
-0.000411185
0.000469149
0.00164514
0.000921835
0.00064354
0.00199817
0.00140477
0.00101794
0.00206464
0.00193432
0.00215767
0.00267773
0.00227718
0.00237974
0.00285504
-8.00393e-05
-0.000508412
-0.00126955
0.000237575
0.000262707
-0.000365577
0.000435479
0.00161598
0.000942614
0.000588193
0.0019586
0.00144995
0.000965403
0.00202128
0.00194534
0.00201591
0.00254622
0.00219435
0.00212427
0.00258067
-7.52655e-05
-0.000511393
-0.00121163
0.000224236
0.000272848
-0.000317506
0.00040211
0.00158208
0.000965979
0.000533692
0.00191095
0.00149926
0.000912197
0.00195989
0.00196205
0.00187949
0.00238826
0.00211837
0.0019039
0.00228841
-7.04778e-05
-0.000513264
-0.00115596
0.000212095
0.000282063
-0.000267573
0.000370205
0.00154279
0.000991555
0.000481258
0.00185391
0.00155166
0.000860676
0.00187872
0.00198155
0.00175472
0.00220587
0.00203919
0.00172451
0.00199471
-6.52149e-05
-0.000513605
-0.00110303
0.000201221
0.000290644
-0.00021657
0.000340829
0.00149776
0.00101852
0.000432127
0.00178635
0.00160561
0.000813764
0.00177706
0.00199925
0.00164733
0.00200394
0.00194595
0.00158356
0.00171681
-5.91927e-05
-0.000511966
-0.00105321
0.000191499
0.000299044
-0.000165498
0.000314832
0.00144721
0.00104573
0.000387428
0.0017077
0.00165905
0.000774604
0.00165483
0.00200962
0.00156258
0.00178947
0.00182975
0.00147245
0.001471
-5.19235e-05
-0.000507866
-0.00100682
0.000182578
0.000307917
-0.000115415
0.000292685
0.00139211
0.00107195
0.000348232
0.0016179
0.00170894
0.000746327
0.001513
0.00200457
0.00150398
0.00157059
0.00168497
0.00138051
0.00126807
-4.50233e-05
-0.000500844
-0.000963951
0.000173884
0.000318015
-6.70563e-05
0.000274468
0.00133359
0.001096
0.000315263
0.00151717
0.00175189
0.000731637
0.00135464
0.00197822
0.00147191
0.00135663
0.00150968
0.00129567
0.00111015
-3.87773e-05
-0.000490518
-0.000924507
0.00016457
0.000330082
-2.07244e-05
0.000259691
0.00127289
0.00111701
0.000288929
0.00140609
0.00178435
0.000732682
0.00118496
0.00192365
0.00146312
0.00115891
0.00130605
0.00120524
0.000991736
-3.28119e-05
-0.000476602
-0.000888089
0.000153514
0.000344445
2.37349e-05
0.000247561
0.0012112
0.00113438
0.000269654
0.00128606
0.00180243
0.000750213
0.00101006
0.00183542
0.00147066
0.000989317
0.00108028
0.00109708
0.000902683
-2.72076e-05
-0.000458929
-0.000853973
0.00013963
0.000361013
6.69281e-05
0.000237209
0.00114901
0.00114773
0.000257827
0.00115889
0.0018025
0.000783372
0.000837076
0.00171105
0.0014849
0.000858229
0.000842692
0.000960866
0.000831014
-2.20834e-05
-0.000437409
-0.000821194
0.000121834
0.000379189
0.000109738
0.000228081
0.00108666
0.00115665
0.000253546
0.00102679
0.00178166
0.000830566
0.000673619
0.00155135
0.0014936
0.000771983
0.000606723
0.000789841
0.000762583
-1.76109e-05
-0.00041199
-0.000788663
9.90972e-05
0.000397825
0.000153278
0.00022003
0.00102418
0.00116073
0.000256752
0.000892358
0.00173794
0.00088673
0.000526821
0.00136023
0.00148296
0.000729768
0.000388186
0.000583982
0.000680984
-1.39985e-05
-0.000382826
-0.000755092
7.10728e-05
0.000415359
0.000198164
0.000213215
0.000961376
0.00115965
0.000267091
0.000758162
0.00167015
0.000947125
0.000402712
0.00114474
0.00144003
0.000722803
0.00020478
0.000352616
0.000569368
-1.14227e-05
-0.000350237
-0.000719213
3.79665e-05
0.000429746
0.000244439
0.000208132
0.000898149
0.0011531
0.000284014
0.000626709
0.00157805
0.00100623
0.000309352
0.000914256
0.00135594
0.000737825
7.09472e-05
0.000112982
0.000415914
-9.93912e-06
-0.000314717
-0.000679978
5.26475e-07
0.000438917
0.000291762
0.000205506
0.00083433
0.00114072
0.000307145
0.000500368
0.00146281
0.00105744
0.000248835
0.000679716
0.00122767
0.000757855
-8.75995e-06
-0.000114829
0.000220792
-9.35098e-06
-0.000277169
-0.000636438
-3.96616e-05
0.000441034
0.000339094
0.000206268
0.000769718
0.0011219
0.000335914
0.000381867
0.00132663
0.00109383
0.000220599
0.000453266
0.00105771
0.000764814
-4.08182e-05
-0.000309538
-1.20758e-06
-9.38911e-06
-0.000238736
-0.000587929
-8.03528e-05
0.000432499
0.000384697
0.00021133
0.000704491
0.00109577
0.000369278
0.000274578
0.00117288
0.00110858
0.000220919
0.000247501
0.000853371
0.000743331
-3.80286e-05
-0.000456705
-0.000228854
-9.63391e-06
-0.000200683
-0.000533869
-0.000118936
0.000412755
0.000426336
0.000221298
0.000639442
0.00106138
0.000405627
0.000181917
0.00100598
0.00109619
0.000243295
7.32539e-05
0.000625649
0.000682801
-1.50956e-05
-0.000552855
-0.000440969
-9.53007e-06
-0.000164201
-0.000474457
-0.000152726
0.000381444
0.000463131
0.00023627
0.00057547
0.00101791
0.000442658
0.000106734
0.000831412
0.00105364
0.000278434
-6.27752e-05
0.000387708
0.000578193
1.13045e-05
-0.000600818
-0.000621336
-8.51536e-06
-0.000130135
-0.000411183
-0.000179353
0.000339823
0.000489094
0.000255453
0.000514212
0.000965307
0.000477365
5.04637e-05
0.000655492
0.000980846
0.000315884
-0.00015899
0.000154542
0.000431485
2.24028e-05
-0.000608698
-0.0007582
-6.13749e-06
-9.89153e-05
-0.000346152
-0.000196931
0.000290951
0.000502063
0.000277547
0.00045786
0.000904432
0.000506503
1.30247e-05
0.000484988
0.000880285
0.000345366
-0.000218544
-5.94159e-05
0.000252729
1.47029e-06
-0.00059222
-0.000844039
-2.10575e-06
-7.05837e-05
-0.000282045
-0.000204282
0.000238617
0.000500153
0.000297269
0.000406991
0.000836756
0.00052759
-7.14419e-06
0.000325943
0.000756698
0.000358287
-0.000248337
-0.000243418
5.60704e-05
-5.76175e-05
-0.000572523
-0.00088494
3.76847e-06
-4.49743e-05
-0.000220957
-0.000201122
0.000186705
0.00048278
0.000311317
0.000361349
0.000763706
0.000539018
-1.25089e-05
0.000182808
0.000616033
0.000349511
-0.000256772
-0.000392206
-0.00014525
-0.000149926
-0.00056725
-0.000898964
1.15761e-05
-2.18572e-05
-0.000164183
-0.000188583
0.000138501
0.00045253
0.000317932
0.000319099
0.000686421
0.000539526
-6.10453e-06
5.91108e-05
0.000464621
0.000316233
-0.000252947
-0.000504248
-0.000340221
-0.000268391
-0.000580716
-0.00090376
2.13242e-05
-9.41378e-07
-0.000112581
-0.000168976
9.59572e-05
0.000413648
0.000315827
0.000278295
0.000605554
0.000528258
8.35031e-06
-4.25871e-05
0.00030982
0.000257698
-0.00024684
-0.000580228
-0.000518039
-0.000408123
-0.000612421
-0.000909182
3.29507e-05
1.81363e-05
-6.67894e-05
-0.00014464
5.958e-05
0.000369461
0.000305755
0.000237935
0.000521186
0.000504578
2.7131e-05
-0.000121839
0.000158655
0.000176868
-0.000248611
-0.000626388
-0.000666447
-0.000560971
-0.000665691
-0.000917378
4.62518e-05
3.58455e-05
-2.70556e-05
-0.000117742
2.97055e-05
0.000321968
0.000289003
0.000198249
0.000434053
0.000467089
4.62749e-05
-0.000179116
1.66171e-05
7.89307e-05
-0.000264642
-0.000653915
-0.000777994
-0.000711708
-0.000742744
-0.00093199
6.08958e-05
5.24939e-05
6.70677e-06
-9.01856e-05
6.05861e-06
0.000272914
0.000266634
0.000160508
0.000345603
0.00041497
6.04886e-05
-0.000216205
-0.000110876
-3.07754e-05
-0.000295984
-0.000673749
-0.000858524
-0.00084369
-0.000835148
-0.000958099
7.65536e-05
6.8239e-05
3.48571e-05
-6.34836e-05
-1.30204e-05
0.000223224
0.000239729
0.000125386
0.000258066
0.000349498
6.45326e-05
-0.000237694
-0.000218701
-0.000146404
-0.00034252
-0.000691826
-0.000917799
-0.000951989
-0.000929462
-0.000994347
9.28987e-05
8.3205e-05
5.77552e-05
-3.8906e-05
-2.7633e-05
0.000173677
0.000208265
9.34316e-05
0.000174546
0.000273129
5.48433e-05
-0.00024935
-0.000304118
-0.000260295
-0.000404944
-0.000711396
-0.000960768
-0.0010422
-0.00101946
-0.00103487
0.000109545
9.73867e-05
7.58468e-05
-1.71758e-05
-3.867e-05
0.000125045
0.000172089
6.38131e-05
9.83426e-05
0.000189179
2.96257e-05
-0.000257569
-0.000369258
-0.000363912
-0.000479154
-0.000739243
-0.00098921
-0.00111448
-0.00110735
-0.0010794
0.000126063
0.000110744
8.96049e-05
1.23598e-06
-4.69486e-05
7.8222e-05
0.000131478
3.49037e-05
3.11776e-05
0.000102278
-1.07311e-05
-0.00026822
-0.000419034
-0.000452082
-0.000555595
-0.000780448
-0.00101097
-0.00116355
-0.00118993
-0.00113277
0.000141999
0.000123191
9.95479e-05
1.57931e-05
-5.3066e-05
3.38998e-05
8.71115e-05
5.27698e-06
-2.72058e-05
1.7446e-05
-6.3645e-05
-0.000285445
-0.000457537
-0.000526397
-0.00062544
-0.000829047
-0.00103915
-0.00119165
-0.00125523
-0.00119573
0.000156934
0.000134582
0.000106145
2.61936e-05
-5.7816e-05
-7.2082e-06
3.98475e-05
-2.66213e-05
-7.8243e-05
-6.11708e-05
-0.000125097
-0.000312053
-0.000488631
-0.000589547
-0.00068704
-0.000872974
-0.00107783
-0.00121423
-0.00129493
-0.00125789
0.000170461
0.000144765
0.000109771
3.23863e-05
-6.22199e-05
-4.46191e-05
-8.81904e-06
-6.20103e-05
-0.000124149
-0.000131585
-0.000189774
-0.000348581
-0.000516783
-0.000641299
-0.000745222
-0.000906305
-0.0011134
-0.00124495
-0.00131599
-0.00130452
0.000182184
0.000153508
0.000110971
3.44594e-05
-6.7192e-05
-7.84644e-05
-5.75605e-05
-0.000101015
-0.000166978
-0.000194401
-0.000252448
-0.000391208
-0.000546925
-0.000681515
-0.000800073
-0.000937108
-0.00113333
-0.00127864
-0.00133263
-0.00132914
0.00019178
0.000160587
0.000110131
3.25739e-05
-7.35222e-05
-0.000109027
-0.000105345
-0.000143214
-0.000208488
-0.00025103
-0.000311376
-0.000435303
-0.000580164
-0.000713346
-0.000845264
-0.000971822
-0.00114057
-0.0013019
-0.00135267
-0.00133728
0.000198983
0.000164015
0.000107513
2.71544e-05
-8.21624e-05
-0.000137224
-0.000151205
-0.000187707
-0.000250378
-0.000302394
-0.000366445
-0.0004785
-0.000613879
-0.000741269
-0.000876603
-0.0010058
-0.00114519
-0.00130665
-0.00137171
-0.00133979
0.000203721
0.000166791
0.000103312
1.87037e-05
-9.36249e-05
-0.000164041
-0.000194787
-0.000233499
-0.000293902
-0.000350207
-0.000416822
-0.000519736
-0.000645888
-0.000767085
-0.000896421
-0.00103008
-0.00115034
-0.00129435
-0.00137849
-0.00134143
0.000205863
0.000167152
9.75463e-05
7.69846e-06
-0.000108033
-0.000190631
-0.000236455
-0.000279491
-0.000339092
-0.000397414
-0.000463299
-0.000557754
-0.000674744
-0.000788954
-0.000907914
-0.0010405
-0.00115175
-0.00127059
-0.00136337
-0.00133621
0.000205374
0.000164889
9.00826e-05
-5.41239e-06
-0.000125113
-0.000217979
-0.000277409
-0.000325815
-0.000385226
-0.00044503
-0.000508242
-0.000592437
-0.000699658
-0.000805153
-0.000910522
-0.00103617
-0.0011429
-0.00123768
-0.00132287
-0.00131078
0.000202354
0.000160101
8.07128e-05
-2.05023e-05
-0.000144814
-0.000246335
-0.000318109
-0.000373559
-0.000434036
-0.000493806
-0.000553448
-0.000625621
-0.00071996
-0.000815046
-0.000902465
-0.00101461
-0.00111708
-0.00119172
-0.00125675
-0.001252
0.000196885
0.000152798
6.93595e-05
-3.70629e-05
-0.000166852
-0.00027677
-0.00035943
-0.00042241
-0.000486724
-0.000547085
-0.00060234
-0.000661917
-0.000737423
-0.000818225
-0.000883332
-0.000970378
-0.00106444
-0.00112122
-0.00115913
-0.00114798
0.000189369
0.000142893
5.58482e-05
-5.51441e-05
-0.000190677
-0.000309038
-0.000402751
-0.000473857
-0.000543832
-0.000606139
-0.000659086
-0.000710142
-0.000761156
-0.000818376
-0.000855859
-0.000900117
-0.000966043
-0.00100217
-0.00101037
-0.000980272
0.000180068
0.000130575
4.05107e-05
-7.45006e-05
-0.000216304
-0.000343549
-0.00044796
-0.000528089
-0.000607281
-0.000673503
-0.000724849
-0.000775834
-0.000807452
-0.000835967
-0.00083926
-0.00081318
-0.00080447
-0.000779685
-0.00073161
-0.000666796
0.000168575
0.000116428
2.37486e-05
-9.52313e-05
-0.000242893
-0.000379466
-0.000496528
-0.000587021
-0.000675869
-0.000750994
-0.000801779
-0.000855812
-0.000883192
-0.000895223
-0.000885718
-0.000794452
-0.000651453
-0.000450872
-0.000181281
8.54529e-05
0.000155781
0.000101574
5.89e-06
-0.000117084
-0.000270807
-0.000416123
-0.00054548
-0.000651253
-0.000753609
-0.000841632
-0.000893255
-0.000930351
-0.000923806
-0.000872213
-0.000798222
-0.000624603
-0.000356625
-5.56583e-05
0.000232814
0.000439746
0.000142292
8.62686e-05
-1.26544e-05
-0.000139284
-0.000300123
-0.000454479
-0.000592773
-0.000709189
-0.00082765
-0.000940243
-0.00101453
-0.00106004
-0.00101133
-0.000822892
-0.00056368
-0.000246837
0.000104791
0.00040631
0.000611256
0.000699474
0.000129414
7.11608e-05
-3.08844e-05
-0.000162119
-0.00032961
-0.000494472
-0.000647152
-0.000768862
-0.000878362
-0.000971357
-0.000992504
-0.000980518
-0.000934224
-0.000779944
-0.000568944
-0.000306904
3.68086e-05
0.000388965
0.00065519
0.00077024
0.000117577
5.79507e-05
-4.58713e-05
-0.0001797
-0.000352036
-0.000521035
-0.000681532
-0.000818558
-0.000931878
-0.00104393
-0.0010937
-0.00103692
-0.000913131
-0.000664325
-0.000310564
3.74964e-05
0.000355103
0.000624031
0.000815584
0.000877948
0.000105763
4.44336e-05
-6.43785e-05
-0.000203674
-0.000382625
-0.00056076
-0.000726651
-0.000873942
-0.000987135
-0.00107533
-0.00111455
-0.00103686
-0.000872822
-0.000627982
-0.000280712
7.89694e-05
0.000392808
0.000641712
0.000812906
0.000868431
0.0145722
0.00825419
1.04556e-06
-0.00599534
-0.00758027
-0.00674583
-0.00572073
-0.00490801
-0.00418719
-0.00362114
-0.00332634
-0.00324725
-0.00320336
-0.00319153
-0.00325411
-0.00315202
-0.00285104
-0.00268104
-0.00267701
-0.00266163
-0.00265697
-0.00262511
-0.00249387
-0.00238196
-0.00232852
-0.00224742
-0.002117
-0.00198499
-0.00191603
-0.00187066
-0.00176664
-0.00165105
-0.00158267
-0.00150615
-0.00139909
-0.00131304
-0.00125895
-0.0012186
-0.00117607
-0.00113434
-0.0010973
-0.00104736
-0.000984388
-0.00091543
-0.000829451
-0.000737175
-0.000652481
-0.000552299
-0.000434398
-0.000340864
-0.000276097
-0.000212437
-0.000144807
-6.57598e-05
2.56684e-05
0.000127936
0.000237796
0.000344728
0.000434232
0.000516259
0.000611745
0.000722561
0.000835369
0.00095794
0.00108639
0.00120238
0.00131334
0.0014372
0.00158148
0.00171788
0.00184751
0.00200808
0.00218982
0.00234326
0.00249311
0.00267241
0.00286164
0.0030573
0.00326395
0.00347008
0.00366801
0.00387728
0.00410363
0.00433833
0.00458148
0.00482354
0.00506993
0.00531132
0.00555925
0.00581662
0.00607491
0.00634509
0.00661634
0.00690556
0.00719943
0.00750035
0.00780252
0.0081061
0.00834815
0.00859038
0.0137941
0.00811493
9.21058e-05
-0.00584431
-0.00749047
-0.00670383
-0.00569714
-0.00489293
-0.00417557
-0.00361078
-0.00331687
-0.00323888
-0.00319598
-0.00318508
-0.00324911
-0.00314819
-0.00284733
-0.0026774
-0.00267388
-0.0026588
-0.00265443
-0.002623
-0.00249184
-0.00237992
-0.00232668
-0.00224576
-0.00211543
-0.00198342
-0.00191451
-0.00186932
-0.0017654
-0.00164979
-0.00158149
-0.00150509
-0.00139806
-0.00131203
-0.00125799
-0.0012177
-0.00117522
-0.00113353
-0.00109652
-0.00104663
-0.000983693
-0.000914778
-0.000828839
-0.000736583
-0.000651926
-0.00055179
-0.000433901
-0.000340369
-0.00027563
-0.000211999
-0.000144392
-6.53685e-05
2.60406e-05
0.00012829
0.000238137
0.000345063
0.000434556
0.000516563
0.000612028
0.00072283
0.000835626
0.000958181
0.00108662
0.0012026
0.00131355
0.00143739
0.00158166
0.00171806
0.00184766
0.00200822
0.00218995
0.00234339
0.00249323
0.00267251
0.00286174
0.00305739
0.00326403
0.00347016
0.00366808
0.00387734
0.00410369
0.00433838
0.00458152
0.00482358
0.00506997
0.00531135
0.00555928
0.00581665
0.00607493
0.00634511
0.00661636
0.00690558
0.00719944
0.00750036
0.00780254
0.00810611
0.00834817
0.00859036
0.0131083
0.00797254
0.00026734
-0.00556959
-0.00733949
-0.00664772
-0.00566851
-0.00487311
-0.00416161
-0.0036006
-0.00330873
-0.00323174
-0.00318907
-0.00317831
-0.00324334
-0.00314363
-0.00284334
-0.002674
-0.0026711
-0.0026562
-0.00265214
-0.00262116
-0.00249007
-0.0023782
-0.00232517
-0.00224437
-0.00211408
-0.00198208
-0.00191325
-0.00186824
-0.00176435
-0.00164872
-0.00158052
-0.00150422
-0.00139717
-0.00131117
-0.00125718
-0.00121695
-0.00117452
-0.00113286
-0.0010959
-0.00104605
-0.000983128
-0.000914247
-0.000828336
-0.000736092
-0.000651473
-0.000551373
-0.000433475
-0.000339944
-0.000275242
-0.000211642
-0.000144058
-6.50549e-05
2.63407e-05
0.000128578
0.000238421
0.000345345
0.000434826
0.000516807
0.000612254
0.000723049
0.000835834
0.000958378
0.00108682
0.00120278
0.00131371
0.00143754
0.00158181
0.0017182
0.00184779
0.00200833
0.00219007
0.0023435
0.00249332
0.00267259
0.00286181
0.00305746
0.0032641
0.00347023
0.00366814
0.00387738
0.00410373
0.00433842
0.00458156
0.00482361
0.00507
0.00531138
0.0055593
0.00581667
0.00607495
0.00634513
0.00661638
0.00690559
0.00719946
0.00750037
0.00780255
0.00810613
0.00834821
0.00859035
0.0124549
0.00781357
0.000482513
-0.00522224
-0.00712562
-0.00655963
-0.00561933
-0.00483868
-0.00413893
-0.00358637
-0.00329913
-0.00322411
-0.0031816
-0.00316977
-0.00323436
-0.00313592
-0.00283764
-0.00266977
-0.00266733
-0.00265234
-0.00264867
-0.0026185
-0.00248792
-0.00237628
-0.00232338
-0.00224265
-0.00211252
-0.00198064
-0.0019119
-0.00186701
-0.00176317
-0.00164755
-0.00157945
-0.00150322
-0.00139617
-0.00131022
-0.0012563
-0.00121613
-0.00117376
-0.00113214
-0.00109523
-0.00104542
-0.000982517
-0.000913673
-0.000827789
-0.000735557
-0.000650978
-0.000550912
-0.000433003
-0.000339478
-0.000274823
-0.000211259
-0.000143704
-6.47239e-05
2.66584e-05
0.000128884
0.000238725
0.000345651
0.000435115
0.000517065
0.000612493
0.000723282
0.000836055
0.000958591
0.00108703
0.00120299
0.00131389
0.00143771
0.00158197
0.00171836
0.00184792
0.00200844
0.0021902
0.00234362
0.00249341
0.00267268
0.0028619
0.00305754
0.00326418
0.0034703
0.0036682
0.00387743
0.00410378
0.00433846
0.0045816
0.00482365
0.00507003
0.00531141
0.00555933
0.00581669
0.00607497
0.00634515
0.00661639
0.0069056
0.00719947
0.00750039
0.00780257
0.00810616
0.00834827
0.00859035
0.0118004
0.00763181
0.000706651
-0.00485268
-0.0068853
-0.00645521
-0.00555843
-0.00479323
-0.00410784
-0.00356726
-0.00328683
-0.0032149
-0.00317308
-0.00315913
-0.00322121
-0.00312405
-0.00282997
-0.00266488
-0.0026625
-0.00264666
-0.002643
-0.00261401
-0.00248482
-0.00237387
-0.00232093
-0.00224021
-0.00211054
-0.00197904
-0.00191036
-0.00186552
-0.00176179
-0.00164628
-0.00157822
-0.00150197
-0.00139496
-0.0013091
-0.00125523
-0.00121511
-0.00117285
-0.00113131
-0.00109446
-0.00104468
-0.000981806
-0.000913004
-0.000827154
-0.000734933
-0.000650387
-0.000550353
-0.000432445
-0.000338938
-0.000274336
-0.000210815
-0.000143299
-6.43452e-05
2.70225e-05
0.000129234
0.000239073
0.000346
0.000435443
0.000517361
0.00061277
0.00072355
0.000836309
0.000958839
0.00108729
0.00120323
0.0013141
0.0014379
0.00158216
0.00171854
0.00184807
0.00200859
0.00219035
0.00234377
0.00249353
0.00267279
0.002862
0.00305763
0.00326427
0.00347039
0.00366827
0.00387749
0.00410384
0.00433852
0.00458165
0.0048237
0.00507008
0.00531145
0.00555936
0.00581672
0.006075
0.00634517
0.00661641
0.00690561
0.00719949
0.0075004
0.00780259
0.00810619
0.00834837
0.00859035
0.0111502
0.0074295
0.000924578
-0.00447917
-0.00663235
-0.00634398
-0.00549447
-0.00474344
-0.00407198
-0.00354442
-0.00327182
-0.00320369
-0.00316326
-0.00314664
-0.00320444
-0.00310849
-0.00282067
-0.00265968
-0.00265703
-0.00263941
-0.0026349
-0.00260707
-0.00248023
-0.0023706
-0.00231747
-0.00223669
-0.00210789
-0.00197715
-0.0019085
-0.0018636
-0.00176021
-0.00164498
-0.00157685
-0.00150049
-0.00139354
-0.00130779
-0.00125392
-0.00121383
-0.00117169
-0.00113027
-0.00109352
-0.00104379
-0.000980955
-0.000912213
-0.000826417
-0.000734205
-0.000649663
-0.000549654
-0.00043177
-0.000338299
-0.00027375
-0.000210284
-0.000142821
-6.38979e-05
2.74545e-05
0.00012965
0.00023948
0.000346403
0.000435825
0.000517711
0.000613099
0.000723867
0.000836612
0.000959138
0.00108759
0.00120352
0.00131437
0.00143814
0.00158239
0.00171877
0.00184828
0.00200878
0.00219055
0.00234395
0.00249368
0.00267293
0.00286213
0.00305775
0.0032644
0.00347051
0.00366837
0.00387758
0.00410392
0.00433859
0.00458172
0.00482376
0.00507014
0.0053115
0.0055594
0.00581676
0.00607503
0.0063452
0.00661643
0.00690563
0.00719951
0.00750042
0.00780262
0.00810624
0.00834849
0.00859036
0.0105145
0.00720604
0.00112747
-0.00410691
-0.00636809
-0.00622653
-0.00542945
-0.00469195
-0.00403317
-0.00351871
-0.00325445
-0.00319059
-0.00315209
-0.00313276
-0.00318545
-0.00309069
-0.00281043
-0.00265449
-0.00265147
-0.00263138
-0.00262498
-0.00259788
-0.00247397
-0.00236613
-0.00231271
-0.00223189
-0.00210443
-0.00197485
-0.00190611
-0.00186104
-0.00175829
-0.00164366
-0.00157541
-0.00149882
-0.00139199
-0.00130636
-0.00125238
-0.00121222
-0.0011702
-0.00112893
-0.00109228
-0.00104263
-0.000979876
-0.000911247
-0.000825566
-0.000733377
-0.000648796
-0.000548791
-0.000430955
-0.000337524
-0.000273017
-0.000209621
-0.000142239
-6.33579e-05
2.79795e-05
0.000130159
0.000239974
0.000346882
0.000436281
0.000518138
0.000613503
0.000724254
0.000836986
0.00095951
0.00108798
0.00120389
0.00131471
0.00143845
0.00158269
0.00171907
0.00184856
0.00200903
0.0021908
0.00234418
0.00249389
0.00267311
0.0028623
0.00305791
0.00326456
0.00347066
0.0036685
0.00387769
0.00410403
0.00433869
0.00458182
0.00482385
0.00507022
0.00531157
0.00555946
0.00581682
0.00607508
0.00634524
0.00661647
0.00690566
0.00719954
0.00750044
0.00780266
0.0081063
0.00834865
0.0085904
0.00989893
0.00695881
0.00131055
-0.00373581
-0.00609
-0.00610098
-0.00536364
-0.00463997
-0.00399226
-0.00349049
-0.00323497
-0.00317584
-0.00313968
-0.00311787
-0.00316527
-0.00307169
-0.00279958
-0.00264924
-0.002646
-0.0026232
-0.00261421
-0.00258731
-0.0024664
-0.00236042
-0.00230655
-0.00222579
-0.00210018
-0.00197212
-0.0019031
-0.00185767
-0.00175588
-0.0016422
-0.00157386
-0.00149704
-0.00139046
-0.00130497
-0.00125073
-0.00121036
-0.0011684
-0.00112724
-0.00109063
-0.00104107
-0.000978429
-0.000909998
-0.000824553
-0.000732446
-0.000647801
-0.000547794
-0.000430025
-0.000336604
-0.000272089
-0.000208769
-0.000141505
-6.26969e-05
2.86151e-05
0.000130782
0.00024058
0.000347469
0.000436844
0.000518672
0.000614004
0.000724729
0.000837453
0.000959981
0.00108846
0.00120437
0.00131517
0.00143886
0.00158308
0.00171947
0.00184894
0.00200939
0.00219113
0.0023445
0.00249417
0.00267337
0.00286252
0.00305813
0.00326478
0.00347086
0.00366867
0.00387784
0.00410418
0.00433883
0.00458195
0.00482397
0.00507033
0.00531167
0.00555954
0.00581689
0.00607514
0.0063453
0.00661652
0.0069057
0.00719958
0.00750047
0.00780271
0.00810637
0.00834884
0.00859047
0.00930562
0.00669029
0.00147409
-0.00336478
-0.00579731
-0.00596693
-0.00529771
-0.00458851
-0.00394977
-0.00345983
-0.00321336
-0.00315949
-0.00312615
-0.00310222
-0.00314438
-0.00305192
-0.00278815
-0.00264371
-0.00264044
-0.00261497
-0.00260315
-0.00257614
-0.00245808
-0.00235379
-0.00229921
-0.00221859
-0.00209525
-0.00196901
-0.00189957
-0.00185355
-0.00175288
-0.00164044
-0.0015721
-0.00149513
-0.00138899
-0.00130373
-0.00124915
-0.00120843
-0.00116644
-0.00112529
-0.0010886
-0.00103902
-0.000976478
-0.000908316
-0.000823267
-0.000731358
-0.00064668
-0.00054672
-0.000429071
-0.00033561
-0.000270977
-0.000207679
-0.000140552
-6.18658e-05
2.9377e-05
0.000131518
0.000241302
0.000348184
0.000437554
0.000519358
0.00061463
0.000725307
0.000838029
0.000960571
0.00108906