/*--------------------------------*- C++ -*----------------------------------*\
| =========                 |                                                 |
| \\      /  F ield         | OpenFOAM: The Open Source CFD Toolbox           |
|  \\    /   O peration     | Version:  v1912                                 |
|   \\  /    A nd           | Website:  www.openfoam.com                      |
|    \\/     M anipulation  |                                                 |
\*---------------------------------------------------------------------------*/
FoamFile
{
    version     2.0;
    format      ascii;
    class       surfaceScalarField;
    location    "3.35";
    object      phi;
}
// * * * * * * * * * * * * * * * * * * * * * * * * * * * * * * * * * * * * * //

dimensions      [0 3 -1 0 0 0 0];
oriented        oriented;


internalField   nonuniform List<scalar> 
19000
(
1.19329e-06
-1.70855e-06
1.28509e-06
2.29509e-07
1.21696e-06
1.49846e-06
1.04416e-06
7.8097e-07
1.15717e-06
-3.08312e-06
1.26184e-06
-1.67867e-06
1.21252e-06
-7.44294e-07
1.22493e-06
6.53659e-07
1.22678e-06
-8.50784e-08
1.21844e-06
2.30009e-07
1.19861e-06
-3.34064e-07
1.14194e-06
-6.12886e-09
1.18327e-06
1.51278e-07
1.17667e-06
1.57722e-07
1.18116e-06
2.00838e-07
1.18329e-06
5.58641e-07
1.16554e-06
1.41279e-07
1.1937e-06
4.32573e-07
1.18911e-06
2.33974e-07
4.21966e-07
1.20302e-06
1.25975e-06
-1.74404e-06
1.35303e-06
1.36231e-07
1.28519e-06
1.5663e-06
1.14874e-06
9.17424e-07
1.24737e-06
-3.18176e-06
1.32379e-06
-1.75509e-06
1.27609e-06
-6.96589e-07
1.29756e-06
6.32184e-07
1.30382e-06
-9.13337e-08
1.30378e-06
2.30052e-07
1.28518e-06
-3.15468e-07
1.21758e-06
6.14747e-08
1.25103e-06
1.17819e-07
1.24533e-06
1.63426e-07
1.23873e-06
2.07435e-07
1.26176e-06
5.35615e-07
1.22138e-06
1.81663e-07
1.27354e-06
3.80406e-07
1.24144e-06
2.66074e-07
3.76995e-07
1.28641e-06
1.32249e-06
-1.78375e-06
1.42737e-06
3.13536e-08
1.37622e-06
1.61745e-06
1.26406e-06
1.02958e-06
1.33294e-06
-3.25064e-06
1.39125e-06
-1.8134e-06
1.34632e-06
-6.51659e-07
1.37983e-06
5.98675e-07
1.39141e-06
-1.02906e-07
1.40836e-06
2.13098e-07
1.38498e-06
-2.92091e-07
1.31796e-06
1.28503e-07
1.32923e-06
1.06544e-07
1.33718e-06
1.55478e-07
1.30493e-06
2.39684e-07
1.34086e-06
4.99687e-07
1.28988e-06
2.32644e-07
1.32551e-06
3.44777e-07
1.3137e-06
2.77877e-07
3.70106e-07
1.32059e-06
1.37932e-06
-1.81897e-06
1.50294e-06
-9.22592e-08
1.48213e-06
1.63826e-06
1.39144e-06
1.12027e-06
1.41386e-06
-3.27306e-06
1.45878e-06
-1.85832e-06
1.42178e-06
-6.14656e-07
1.46628e-06
5.54174e-07
1.48281e-06
-1.19431e-07
1.51518e-06
1.80723e-07
1.48513e-06
-2.62037e-07
1.42567e-06
1.87961e-07
1.41413e-06
1.1808e-07
1.4288e-06
1.40807e-07
1.38556e-06
2.82929e-07
1.40917e-06
4.76078e-07
1.37092e-06
2.70894e-07
1.37938e-06
3.36317e-07
1.38268e-06
2.74576e-07
3.69547e-07
1.38324e-06
1.42924e-06
-1.83986e-06
1.57256e-06
-2.35577e-07
1.59291e-06
1.61791e-06
1.51643e-06
1.19675e-06
1.47967e-06
-3.23631e-06
1.51857e-06
-1.89722e-06
1.50027e-06
-5.96355e-07
1.55195e-06
5.02499e-07
1.57309e-06
-1.40573e-07
1.61145e-06
1.42356e-07
1.57669e-06
-2.27272e-07
1.52526e-06
2.39393e-07
1.49876e-06
1.44578e-07
1.51075e-06
1.28817e-07
1.47439e-06
3.19285e-07
1.48095e-06
4.69525e-07
1.45659e-06
2.95252e-07
1.45043e-06
3.42471e-07
1.45244e-06
2.72573e-07
3.65388e-07
1.4566e-06
1.47429e-06
-1.83847e-06
1.63347e-06
-3.9476e-07
1.70042e-06
1.55096e-06
1.63045e-06
1.26672e-06
1.53163e-06
-3.13748e-06
1.56637e-06
-1.93196e-06
1.57952e-06
-6.09515e-07
1.63671e-06
4.4531e-07
1.66095e-06
-1.64809e-07
1.69418e-06
1.09127e-07
1.65719e-06
-1.90286e-07
1.61214e-06
2.84444e-07
1.57924e-06
1.77484e-07
1.58535e-06
1.22704e-07
1.56257e-06
3.42065e-07
1.5612e-06
4.70895e-07
1.54405e-06
3.12405e-07
1.53257e-06
3.53947e-07
1.52838e-06
2.76762e-07
3.61039e-07
1.53273e-06
1.52029e-06
-1.81254e-06
1.68815e-06
-5.62621e-07
1.79909e-06
1.44002e-06
1.73037e-06
1.33544e-06
1.57948e-06
-2.98658e-06
1.60642e-06
-1.9589e-06
1.6574e-06
-6.60492e-07
1.7228e-06
3.79903e-07
1.74632e-06
-1.8833e-07
1.7663e-06
8.91546e-08
1.7271e-06
-1.51085e-07
1.68765e-06
3.2389e-07
1.65433e-06
2.10802e-07
1.6567e-06
1.20338e-07
1.64595e-06
3.52811e-07
1.6464e-06
4.70444e-07
1.63433e-06
3.24482e-07
1.621e-06
3.67274e-07
1.61074e-06
2.87022e-07
3.60123e-07
1.61166e-06
1.57483e-06
-1.76724e-06
1.74144e-06
-7.29229e-07
1.88474e-06
1.29672e-06
1.8177e-06
1.40248e-06
1.63466e-06
-2.80355e-06
1.64865e-06
-1.97289e-06
1.73215e-06
-7.43992e-07
1.80921e-06
3.02839e-07
1.82775e-06
-2.06871e-07
1.83073e-06
8.61745e-08
1.78745e-06
-1.07806e-07
1.75359e-06
3.57757e-07
1.7238e-06
2.40588e-07
1.72657e-06
1.17565e-07
1.7251e-06
3.54283e-07
1.7325e-06
4.63041e-07
1.72718e-06
3.29803e-07
1.71454e-06
3.79915e-07
1.69978e-06
3.01788e-07
3.64361e-07
1.69554e-06
1.64285e-06
-1.71252e-06
1.79639e-06
-8.82764e-07
1.95449e-06
1.13861e-06
1.89491e-06
1.46206e-06
1.70233e-06
-2.61096e-06
1.7011e-06
-1.97167e-06
1.80297e-06
-8.4586e-07
1.89094e-06
2.14871e-07
1.90207e-06
-2.18001e-07
1.8888e-06
9.94438e-08
1.84013e-06
-5.91402e-08
1.81207e-06
3.85827e-07
1.78805e-06
2.64598e-07
1.79464e-06
1.10984e-07
1.80144e-06
3.47481e-07
1.81693e-06
4.47552e-07
1.81996e-06
3.26769e-07
1.81106e-06
3.88821e-07
1.79503e-06
3.17817e-07
3.72865e-07
1.78652e-06
1.72406e-06
-1.65786e-06
1.85292e-06
-1.01163e-06
2.00802e-06
9.83515e-07
1.96402e-06
1.50605e-06
1.78099e-06
-2.42793e-06
1.76613e-06
-1.95681e-06
1.8696e-06
-9.49324e-07
1.96215e-06
1.22315e-07
1.96599e-06
-2.21837e-07
1.94138e-06
1.24047e-07
1.8885e-06
-6.25573e-09
1.86677e-06
4.07553e-07
1.84885e-06
2.82524e-07
1.86002e-06
9.98165e-08
1.87519e-06
3.32306e-07
1.89777e-06
4.24967e-07
1.90905e-06
3.1549e-07
1.90646e-06
3.91413e-07
1.8934e-06
3.30877e-07
3.81965e-07
1.8843e-06
1.81457e-06
-1.60868e-06
1.9104e-06
-1.10746e-06
2.04911e-06
8.44801e-07
2.02732e-06
1.52785e-06
1.86675e-06
-2.26736e-06
1.84192e-06
-1.93198e-06
1.93221e-06
-1.03962e-06
2.02021e-06
3.43202e-08
2.01882e-06
-2.2045e-07
1.99056e-06
1.52312e-07
1.93736e-06
4.69419e-08
1.92288e-06
4.2203e-07
1.90962e-06
2.95782e-07
1.92306e-06
8.63755e-08
1.94593e-06
3.09439e-07
1.9735e-06
3.97397e-07
1.99142e-06
2.97571e-07
1.99648e-06
3.86351e-07
1.98991e-06
3.37452e-07
3.86771e-07
1.9851e-06
1.91033e-06
-1.56617e-06
1.97056e-06
-1.16769e-06
2.08601e-06
7.29356e-07
2.08875e-06
1.52511e-06
1.95666e-06
-2.13528e-06
1.9259e-06
-1.90121e-06
1.99303e-06
-1.10675e-06
2.06846e-06
-4.11116e-08
2.06458e-06
-2.16572e-07
2.04028e-06
1.76614e-07
1.99189e-06
9.53265e-08
1.98542e-06
4.28499e-07
1.97477e-06
3.06441e-07
1.98637e-06
7.47694e-08
2.01425e-06
2.81559e-07
2.0438e-06
3.67846e-07
2.06575e-06
2.75625e-07
2.07838e-06
3.7372e-07
2.07983e-06
3.35997e-07
3.83541e-07
2.08306e-06
2.00912e-06
-1.52911e-06
2.03748e-06
-1.19604e-06
2.12896e-06
6.37874e-07
2.15371e-06
1.50035e-06
2.04954e-06
-2.0311e-06
2.01659e-06
-1.86826e-06
2.05704e-06
-1.14719e-06
2.11568e-06
-9.97508e-08
2.11124e-06
-2.12131e-07
2.09557e-06
1.92275e-07
2.05604e-06
1.34858e-07
2.0575e-06
4.27042e-07
2.04811e-06
3.15829e-07
2.05436e-06
6.85166e-08
2.08294e-06
2.52978e-07
2.111e-06
3.39789e-07
2.13375e-06
2.52881e-07
2.15234e-06
3.55127e-07
2.16102e-06
3.27314e-07
3.71355e-07
2.17321e-06
2.11053e-06
-1.49563e-06
2.11496e-06
-1.20047e-06
2.18613e-06
5.66705e-07
2.22727e-06
1.4592e-06
2.14551e-06
-1.94934e-06
2.11337e-06
-1.83612e-06
2.12986e-06
-1.16369e-06
2.17174e-06
-1.41623e-07
2.16717e-06
-2.0756e-07
2.16073e-06
1.98707e-07
2.13147e-06
1.64121e-07
2.13967e-06
4.18844e-07
2.13164e-06
3.23861e-07
2.13147e-06
6.86791e-08
2.15656e-06
2.27887e-07
2.1803e-06
3.16058e-07
2.20076e-06
2.32419e-07
2.22238e-06
3.33504e-07
2.23553e-06
3.14163e-07
3.52353e-07
2.25453e-06
2.21508e-06
-1.46422e-06
2.20448e-06
-1.18987e-06
2.26074e-06
5.10446e-07
2.31215e-06
1.40778e-06
2.24532e-06
-1.88251e-06
2.21566e-06
-1.80645e-06
2.21464e-06
-1.16267e-06
2.24282e-06
-1.69804e-07
2.23754e-06
-2.0228e-07
2.23799e-06
1.98259e-07
2.21784e-06
1.84273e-07
2.23085e-06
4.05835e-07
2.22517e-06
3.29535e-07
2.2201e-06
7.37508e-08
2.2395e-06
2.08493e-07
2.25783e-06
2.97726e-07
2.27411e-06
2.16135e-07
2.29547e-06
3.12151e-07
2.30949e-06
3.00143e-07
3.30544e-07
2.33129e-06
2.32352e-06
-1.43387e-06
2.30509e-06
-1.17144e-06
2.35133e-06
4.64203e-07
2.40835e-06
1.35077e-06
2.34978e-06
-1.82394e-06
2.32281e-06
-1.77948e-06
2.31112e-06
-1.15098e-06
2.32986e-06
-1.8854e-07
2.32328e-06
-1.95698e-07
2.3275e-06
1.94039e-07
2.31394e-06
1.97832e-07
2.32973e-06
3.90038e-07
2.32731e-06
3.31959e-07
2.31996e-06
8.10972e-08
2.33396e-06
1.94498e-07
2.34773e-06
2.8395e-07
2.35967e-06
2.04198e-07
2.37846e-06
2.93362e-07
2.39038e-06
2.88221e-07
3.09907e-07
2.41102e-06
2.43648e-06
-1.40396e-06
2.41484e-06
-1.14979e-06
2.45441e-06
4.24625e-07
2.5143e-06
1.29088e-06
2.45958e-06
-1.76921e-06
2.43447e-06
-1.75438e-06
2.41716e-06
-1.13367e-06
2.43032e-06
-2.017e-07
2.42244e-06
-1.87826e-07
2.42815e-06
1.88331e-07
2.41869e-06
2.07297e-07
2.43571e-06
3.73019e-07
2.43675e-06
3.30915e-07
2.42925e-06
8.85943e-08
2.43959e-06
1.84163e-07
2.45062e-06
2.72919e-07
2.45932e-06
1.955e-07
2.47497e-06
2.7771e-07
2.48349e-06
2.797e-07
2.92895e-07
2.5005e-06
2.55439e-06
-1.37405e-06
2.53198e-06
-1.12738e-06
2.56684e-06
3.89763e-07
2.62836e-06
1.22935e-06
2.5752e-06
-1.71605e-06
2.55073e-06
-1.72991e-06
2.5306e-06
-1.11353e-06
2.54094e-06
-2.12043e-07
2.53238e-06
-1.79265e-07
2.53857e-06
1.82138e-07
2.53152e-06
2.14349e-07
2.54886e-06
3.5568e-07
2.55304e-06
3.26737e-07
2.54629e-06
9.53471e-08
2.55463e-06
1.75815e-07
2.56448e-06
2.63073e-07
2.57128e-06
1.88697e-07
2.58453e-06
2.64466e-07
2.59e-06
2.74231e-07
2.80085e-07
2.60281e-06
2.67756e-06
-1.34378e-06
2.65548e-06
-1.1053e-06
2.68681e-06
3.58435e-07
2.74954e-06
1.16662e-06
2.69701e-06
-1.66352e-06
2.6721e-06
-1.705e-06
2.6503e-06
-1.09173e-06
2.6594e-06
-2.21146e-07
2.65099e-06
-1.70857e-07
2.65764e-06
1.75493e-07
2.65225e-06
2.19733e-07
2.66955e-06
3.38378e-07
2.67633e-06
3.19963e-07
2.67022e-06
1.0145e-07
2.67739e-06
1.68652e-07
2.68673e-06
2.53736e-07
2.69241e-06
1.83015e-07
2.70427e-06
2.52607e-07
2.70789e-06
2.70608e-07
2.70834e-07
2.71714e-06
2.80627e-06
-1.31278e-06
2.78496e-06
-1.08399e-06
2.81366e-06
3.29737e-07
2.8775e-06
1.10278e-06
2.82524e-06
-1.61125e-06
2.79917e-06
-1.67894e-06
2.77607e-06
-1.06863e-06
2.7846e-06
-2.29678e-07
2.77706e-06
-1.6332e-07
2.78458e-06
1.67977e-07
2.78076e-06
2.23551e-07
2.79795e-06
3.21192e-07
2.80675e-06
3.11159e-07
2.80082e-06
1.07386e-07
2.80683e-06
1.62636e-07
2.81554e-06
2.45026e-07
2.82015e-06
1.78403e-07
2.83123e-06
2.41535e-07
2.83419e-06
2.67646e-07
2.64154e-07
2.84087e-06
2.94084e-06
-1.28073e-06
2.92049e-06
-1.06364e-06
2.94733e-06
3.02896e-07
3.01223e-06
1.03788e-06
2.96008e-06
-1.5591e-06
2.93247e-06
-1.65133e-06
2.90825e-06
-1.0444e-06
2.91637e-06
-2.37793e-07
2.91011e-06
-1.57068e-07
2.91895e-06
1.59137e-07
2.91685e-06
2.25658e-07
2.93388e-06
3.0416e-07
2.94413e-06
3.00906e-07
2.93795e-06
1.13567e-07
2.94258e-06
1.58002e-07
2.95023e-06
2.37377e-07
2.95344e-06
1.75201e-07
2.96375e-06
2.31225e-07
2.96678e-06
2.64615e-07
2.59272e-07
2.97166e-06
3.08167e-06
-1.24739e-06
3.0624e-06
-1.04437e-06
3.08795e-06
2.77347e-07
3.15379e-06
9.72032e-07
3.10171e-06
-1.50702e-06
3.07241e-06
-1.62203e-06
3.04731e-06
-1.0193e-06
3.05499e-06
-2.45473e-07
3.05012e-06
-1.52201e-07
3.06052e-06
1.48744e-07
3.0602e-06
2.25973e-07
3.07696e-06
2.87399e-07
3.08808e-06
2.89788e-07
3.08148e-06
1.20171e-07
3.08466e-06
1.54819e-07
3.09094e-06
2.31093e-07
3.09243e-06
1.73718e-07
3.10169e-06
2.21957e-07
3.10505e-06
2.61258e-07
2.55751e-07
3.10857e-06
3.22916e-06
-1.21264e-06
3.21116e-06
-1.02637e-06
3.23571e-06
2.52801e-07
3.30221e-06
9.0553e-07
3.25032e-06
-1.45514e-06
3.2193e-06
-1.591e-06
3.1936e-06
-9.93611e-07
3.20086e-06
-2.52728e-07
3.19727e-06
-1.48614e-07
3.20916e-06
1.36859e-07
3.21054e-06
2.2459e-07
3.22685e-06
2.71089e-07
3.23832e-06
2.78319e-07
3.23133e-06
1.27156e-07
3.23329e-06
1.52867e-07
3.23824e-06
2.26138e-07
3.23795e-06
1.7401e-07
3.24591e-06
2.14e-07
3.24959e-06
2.57577e-07
2.53373e-07
3.25197e-06
3.38373e-06
-1.17644e-06
3.36722e-06
-1.00986e-06
3.39082e-06
2.29198e-07
3.45755e-06
8.388e-07
3.40613e-06
-1.40371e-06
3.37342e-06
-1.55828e-06
3.34739e-06
-9.67585e-07
3.3543e-06
-2.59643e-07
3.35181e-06
-1.46122e-07
3.36489e-06
1.23786e-07
3.36774e-06
2.2174e-07
3.38342e-06
2.55405e-07
3.39488e-06
2.66856e-07
3.38768e-06
1.34358e-07
3.38879e-06
1.51761e-07
3.39276e-06
2.22169e-07
3.39089e-06
1.75873e-07
3.39744e-06
2.07454e-07
3.40142e-06
2.53597e-07
2.51973e-07
3.40282e-06
3.54576e-06
-1.13879e-06
3.53094e-06
-9.95042e-07
3.55358e-06
2.06559e-07
3.62004e-06
7.72346e-07
3.5694e-06
-1.35308e-06
3.53508e-06
-1.52396e-06
3.50889e-06
-9.41394e-07
3.51559e-06
-2.66344e-07
3.51402e-06
-1.44553e-07
3.52785e-06
1.09955e-07
3.53189e-06
2.17696e-07
3.54683e-06
2.40465e-07
3.55813e-06
2.55553e-07
3.55091e-06
1.41581e-07
3.55152e-06
1.51149e-07
3.55498e-06
2.18708e-07
3.55191e-06
1.78948e-07
3.55709e-06
2.02273e-07
3.56142e-06
2.49272e-07
2.51308e-07
3.56208e-06
3.71563e-06
-1.09972e-06
3.70262e-06
-9.82023e-07
3.72434e-06
1.84834e-07
3.79004e-06
7.06651e-07
3.74043e-06
-1.30348e-06
3.7046e-06
-1.48813e-06
3.67835e-06
-9.15143e-07
3.68495e-06
-2.72937e-07
3.68419e-06
-1.43794e-07
3.69833e-06
9.58156e-08
3.70332e-06
2.127e-07
3.71746e-06
2.26324e-07
3.7286e-06
2.44413e-07
3.72153e-06
1.48656e-07
3.72187e-06
1.50813e-07
3.72527e-06
2.15305e-07
3.72141e-06
1.82802e-07
3.72534e-06
1.98352e-07
3.73009e-06
2.44515e-07
2.50979e-07
3.73042e-06
3.89375e-06
-1.05928e-06
3.88246e-06
-9.70726e-07
3.90346e-06
1.63829e-07
3.96804e-06
6.42076e-07
3.91958e-06
-1.25502e-06
3.88236e-06
-1.45091e-06
3.85614e-06
-8.88924e-07
3.86265e-06
-2.79444e-07
3.86265e-06
-1.43794e-07
3.87672e-06
8.17445e-08
3.88249e-06
2.06929e-07
3.89582e-06
2.12995e-07
3.90687e-06
2.33367e-07
3.90007e-06
1.55451e-07
3.9002e-06
1.50688e-07
3.90388e-06
2.11625e-07
3.89969e-06
1.86986e-07
3.90243e-06
1.95616e-07
3.9077e-06
2.39243e-07
2.50463e-07
3.90822e-06
4.08056e-06
-1.01759e-06
4.07068e-06
-9.60848e-07
4.09128e-06
1.4323e-07
4.15456e-06
5.78799e-07
4.10722e-06
-1.20768e-06
4.06874e-06
-1.41243e-06
4.04268e-06
-8.62863e-07
4.04901e-06
-2.85772e-07
4.04974e-06
-1.4452e-07
4.06348e-06
6.80067e-08
4.0699e-06
2.00505e-07
4.08242e-06
2.00476e-07
4.09346e-06
2.22326e-07
4.08708e-06
1.61832e-07
4.08693e-06
1.50836e-07
4.09107e-06
2.07482e-07
4.08702e-06
1.91038e-07
4.08863e-06
1.94009e-07
4.09442e-06
2.33448e-07
2.49204e-07
4.09568e-06
4.27654e-06
-9.74833e-07
4.26756e-06
-9.51866e-07
4.2881e-06
1.22687e-07
4.35009e-06
5.16812e-07
4.30378e-06
-1.16137e-06
4.26415e-06
-1.37281e-06
4.23843e-06
-8.37142e-07
4.24439e-06
-2.91726e-07
4.24579e-06
-1.45923e-07
4.25904e-06
5.47556e-08
4.26602e-06
1.93526e-07
4.27775e-06
1.88748e-07
4.28887e-06
2.11205e-07
4.28306e-06
1.67639e-07
4.28251e-06
1.51383e-07
4.28716e-06
2.02832e-07
4.28369e-06
1.94514e-07
4.28432e-06
1.93374e-07
4.29049e-06
2.27286e-07
2.4675e-07
4.29294e-06
4.4822e-06
-9.31257e-07
4.47345e-06
-9.43121e-07
4.49421e-06
1.01931e-07
4.55504e-06
4.55981e-07
4.50969e-06
-1.11602e-06
4.46903e-06
-1.33214e-06
4.44386e-06
-8.11975e-07
4.4492e-06
-2.97063e-07
4.45117e-06
-1.47902e-07
4.46388e-06
4.20522e-08
4.47131e-06
1.86094e-07
4.48227e-06
1.77783e-07
4.49354e-06
1.99942e-07
4.4885e-06
1.72673e-07
4.48739e-06
1.52499e-07
4.49252e-06
1.97704e-07
4.49001e-06
1.97018e-07
4.48994e-06
1.93446e-07
4.49618e-06
2.21042e-07
2.42879e-07
4.50006e-06
4.69802e-06
-8.87166e-07
4.68885e-06
-9.3395e-07
4.70994e-06
8.08406e-08
4.76976e-06
3.96162e-07
4.72545e-06
-1.07172e-06
4.6838e-06
-1.29049e-06
4.65938e-06
-7.87553e-07
4.66389e-06
-3.0158e-07
4.66631e-06
-1.50313e-07
4.67847e-06
2.98918e-08
4.68623e-06
1.78326e-07
4.69647e-06
1.67543e-07
4.70789e-06
1.88522e-07
4.70389e-06
1.76682e-07
4.70201e-06
1.54376e-07
4.70756e-06
1.92153e-07
4.70633e-06
1.9825e-07
4.70588e-06
1.93892e-07
4.71191e-06
2.15017e-07
2.37655e-07
4.71713e-06
4.9245e-06
-8.42865e-07
4.91436e-06
-9.23817e-07
4.93575e-06
5.94564e-08
4.99459e-06
3.37319e-07
4.95155e-06
-1.02867e-06
4.90896e-06
-1.2479e-06
4.88538e-06
-7.6398e-07
4.88897e-06
-3.05171e-07
4.89166e-06
-1.52994e-07
4.90333e-06
1.82188e-08
4.91133e-06
1.70322e-07
4.92086e-06
1.58016e-07
4.9324e-06
1.76983e-07
4.92967e-06
1.79406e-07
4.927e-06
1.57049e-07
4.93277e-06
1.86387e-07
4.93299e-06
1.98027e-07
4.93246e-06
1.94418e-07
4.93808e-06
2.09402e-07
2.31327e-07
4.94441e-06
5.16207e-06
-7.98616e-07
5.15067e-06
-9.12417e-07
5.17219e-06
3.79341e-08
5.22991e-06
2.79598e-07
5.18847e-06
-9.87231e-07
5.14502e-06
-1.20445e-06
5.12228e-06
-7.41241e-07
5.12493e-06
-3.07825e-07
5.12775e-06
-1.5581e-07
5.13902e-06
6.95112e-09
5.14722e-06
1.62122e-07
5.15598e-06
1.49249e-07
5.16757e-06
1.65397e-07
5.16631e-06
1.80664e-07
5.16296e-06
1.60401e-07
5.16858e-06
1.80764e-07
5.17038e-06
1.96232e-07
5.17003e-06
1.94766e-07
5.17509e-06
2.04346e-07
2.24216e-07
5.1822e-06
5.41118e-06
-7.54608e-07
5.39846e-06
-8.99695e-07
5.41993e-06
1.64603e-08
5.47619e-06
2.23341e-07
5.43672e-06
-9.47761e-07
5.39255e-06
-1.16027e-06
5.37051e-06
-7.1921e-07
5.3723e-06
-3.09609e-07
5.37515e-06
-1.58659e-07
5.38609e-06
-3.98799e-09
5.39454e-06
1.5367e-07
5.40245e-06
1.41337e-07
5.41397e-06
1.53873e-07
5.4143e-06
1.80334e-07
5.41046e-06
1.64244e-07
5.41549e-06
1.75739e-07
5.41889e-06
1.92833e-07
5.41899e-06
1.94663e-07
5.42334e-06
1.99993e-07
2.16633e-07
5.43093e-06
5.67231e-06
-7.10956e-07
5.6584e-06
-8.85792e-07
5.67969e-06
-4.82671e-09
5.734e-06
1.69036e-07
5.69679e-06
-9.10559e-07
5.65212e-06
-1.11561e-06
5.63061e-06
-6.97697e-07
5.63163e-06
-3.10623e-07
5.63443e-06
-1.61461e-07
5.64509e-06
-1.46533e-08
5.65391e-06
1.44853e-07
5.66088e-06
1.34362e-07
5.67217e-06
1.42583e-07
5.67422e-06
1.78287e-07
5.67016e-06
1.68306e-07
5.67421e-06
1.71685e-07
5.67896e-06
1.88084e-07
5.67983e-06
1.93795e-07
5.6834e-06
1.96425e-07
2.08842e-07
5.69119e-06
5.94596e-06
-6.67724e-07
5.93111e-06
-8.70946e-07
5.95217e-06
-2.58827e-08
6.00399e-06
1.17212e-07
5.96918e-06
-8.75748e-07
5.92435e-06
-1.07078e-06
5.90317e-06
-6.76515e-07
5.90351e-06
-3.10958e-07
5.9062e-06
-1.64159e-07
5.9166e-06
-2.50514e-08
5.92591e-06
1.35541e-07
5.93194e-06
1.28335e-07
5.94274e-06
1.31782e-07
5.94662e-06
1.74413e-07
5.94274e-06
1.72187e-07
5.9455e-06
1.68917e-07
5.95124e-06
1.82351e-07
5.95315e-06
1.91878e-07
5.95594e-06
1.93634e-07
2.0121e-07
5.96358e-06
6.23272e-06
-6.2496e-07
6.21716e-06
-8.55386e-07
6.23803e-06
-4.67504e-08
6.2869e-06
6.83418e-08
6.25443e-06
-8.43275e-07
6.20982e-06
-1.02616e-06
6.18883e-06
-6.5553e-07
6.18857e-06
-3.10692e-07
6.19108e-06
-1.66677e-07
6.20118e-06
-3.5152e-08
6.21109e-06
1.25635e-07
6.21628e-06
1.23148e-07
6.22628e-06
1.21784e-07
6.23201e-06
1.68679e-07
6.22869e-06
1.75502e-07
6.23012e-06
1.67485e-07
6.23636e-06
1.76118e-07
6.23954e-06
1.88697e-07
6.2418e-06
1.91377e-07
1.94225e-07
6.24878e-06
6.53324e-06
-5.82731e-07
6.51712e-06
-8.3927e-07
6.5379e-06
-6.75245e-08
6.58344e-06
2.28013e-08
6.55314e-06
-8.12977e-07
6.50912e-06
-9.82144e-07
6.48826e-06
-6.34667e-07
6.48745e-06
-3.09884e-07
6.48972e-06
-1.68946e-07
6.49946e-06
-4.48979e-08
6.50999e-06
1.15109e-07
6.51455e-06
1.1859e-07
6.52343e-06
1.12903e-07
6.53093e-06
1.61181e-07
6.52863e-06
1.77797e-07
6.52885e-06
1.67274e-07
6.53494e-06
1.70021e-07
6.53948e-06
1.84164e-07
6.54162e-06
1.89232e-07
1.88178e-07
6.54767e-06
6.84821e-06
-5.41146e-07
6.83157e-06
-8.2263e-07
6.85238e-06
-8.83361e-08
6.89433e-06
-1.91526e-08
6.86596e-06
-7.84609e-07
6.82287e-06
-9.39054e-07
6.80213e-06
-6.13921e-07
6.80081e-06
-3.08569e-07
6.80278e-06
-1.70911e-07
6.81209e-06
-5.42126e-08
6.82319e-06
1.04012e-07
6.82741e-06
1.1437e-07
6.83494e-06
1.05368e-07
6.84392e-06
1.52207e-07
6.84319e-06
1.78529e-07
6.84236e-06
1.68098e-07
6.84781e-06
1.64572e-07
6.85356e-06
1.7841e-07
6.85605e-06
1.86742e-07
1.83129e-07
6.8611e-06
7.17835e-06
-5.00364e-07
7.16112e-06
-8.05396e-07
7.18208e-06
-1.09294e-07
7.2203e-06
-5.73789e-08
7.19364e-06
-7.57942e-07
7.15172e-06
-8.9714e-07
7.13111e-06
-5.93308e-07
7.12932e-06
-3.06779e-07
7.13098e-06
-1.7257e-07
7.13977e-06
-6.30025e-08
7.15131e-06
9.24733e-08
7.15549e-06
1.10185e-07
7.16166e-06
9.91968e-08
7.17157e-06
1.42301e-07
7.17286e-06
1.77238e-07
7.17128e-06
1.69678e-07
7.17574e-06
1.60115e-07
7.18246e-06
1.7169e-07
7.18575e-06
1.83448e-07
1.78919e-07
7.18996e-06
7.52444e-06
-4.60575e-07
7.50646e-06
-7.87416e-07
7.52767e-06
-1.30509e-07
7.56209e-06
-9.17989e-08
7.5369e-06
-7.32752e-07
7.49639e-06
-8.56623e-07
7.47594e-06
-5.72857e-07
7.47366e-06
-3.04499e-07
7.47503e-06
-1.73942e-07
7.48322e-06
-7.11943e-08
7.49507e-06
8.06227e-08
7.49942e-06
1.05838e-07
7.50441e-06
9.42097e-08
7.51474e-06
1.31965e-07
7.51824e-06
1.73744e-07
7.51651e-06
1.71404e-07
7.51944e-06
1.57188e-07
7.52633e-06
1.64796e-07
7.53104e-06
1.78739e-07
1.75189e-07
7.53477e-06
7.88725e-06
-4.22015e-07
7.86831e-06
-7.68473e-07
7.88984e-06
-1.52038e-07
7.92048e-06
-1.22441e-07
7.89659e-06
-7.08862e-07
7.85759e-06
-8.17623e-07
7.83732e-06
-5.52592e-07
7.83458e-06
-3.01759e-07
7.83569e-06
-1.75049e-07
7.84322e-06
-7.87245e-08
7.85523e-06
6.86162e-08
7.85992e-06
1.01147e-07
7.86388e-06
9.02509e-08
7.87423e-06
1.21616e-07
7.88004e-06
1.67932e-07
7.87908e-06
1.72358e-07
7.88003e-06
1.56243e-07
7.8851e-06
1.59731e-07
7.89059e-06
1.73245e-07
1.70482e-07
7.8953e-06
8.26759e-06
-3.84921e-07
8.24745e-06
-7.48336e-07
8.26936e-06
-1.73947e-07
8.29623e-06
-1.49314e-07
8.27346e-06
-6.86094e-07
8.23619e-06
-7.80346e-07
8.21611e-06
-5.3251e-07
8.21282e-06
-2.98469e-07
8.2137e-06
-1.75928e-07
8.22059e-06
-8.56169e-08
8.23255e-06
5.66498e-08
8.23772e-06
9.59802e-08
8.24092e-06
8.70524e-08
8.25084e-06
1.11694e-07
8.25896e-06
1.59815e-07
8.26071e-06
1.70611e-07
8.2623e-06
1.54651e-07
8.26991e-06
1.52118e-07
8.27875e-06
1.64406e-07
1.66981e-07
8.28225e-06
8.6663e-06
-3.49556e-07
8.64469e-06
-7.26733e-07
8.667e-06
-1.96251e-07
8.69026e-06
-1.72578e-07
8.66839e-06
-6.64225e-07
8.63292e-06
-7.44875e-07
8.61314e-06
-5.12724e-07
8.60923e-06
-2.94562e-07
8.60986e-06
-1.76556e-07
8.61614e-06
-9.18999e-08
8.62795e-06
4.48407e-08
8.63359e-06
9.03344e-08
8.63625e-06
8.4395e-08
8.64544e-06
1.02504e-07
8.65541e-06
1.49846e-07
8.66133e-06
1.64691e-07
8.66639e-06
1.4959e-07
8.67785e-06
1.40663e-07
8.68851e-06
1.53741e-07
1.65226e-07
8.69027e-06
9.08422e-06
-3.16156e-07
9.06092e-06
-7.03435e-07
9.0836e-06
-2.18929e-07
9.10347e-06
-1.9245e-07
9.0821e-06
-6.42855e-07
9.04875e-06
-7.11521e-07
9.02928e-06
-4.93257e-07
9.02465e-06
-2.89932e-07
9.02498e-06
-1.76881e-07
9.0307e-06
-9.7627e-08
9.04227e-06
3.32705e-08
9.04846e-06
8.41498e-08
9.05082e-06
8.20332e-08
9.05937e-06
9.39517e-08
9.07012e-06
1.39096e-07
9.07626e-06
1.5855e-07
9.07809e-06
1.47762e-07
9.0848e-06
1.33957e-07
9.09456e-06
1.43975e-07
1.6001e-07
9.09978e-06
9.52226e-06
-2.8496e-07
9.49702e-06
-6.78193e-07
9.51999e-06
-2.41892e-07
9.53692e-06
-2.09389e-07
9.51553e-06
-6.21456e-07
9.48443e-06
-6.80425e-07
9.46547e-06
-4.74296e-07
9.46009e-06
-2.84551e-07
9.45995e-06
-1.76742e-07
9.46519e-06
-1.02871e-07
9.47646e-06
2.20035e-08
9.48318e-06
7.74248e-08
9.48537e-06
7.98504e-08
9.49299e-06
8.63284e-08
9.50339e-06
1.28692e-07
9.50919e-06
1.52755e-07
9.50883e-06
1.48116e-07
9.5087e-06
1.34095e-07
9.51499e-06
1.37686e-07
1.48818e-07
9.52618e-06
9.98134e-06
-2.56169e-07
9.95406e-06
-6.50907e-07
9.97712e-06
-2.64956e-07
9.9916e-06
-2.23863e-07
9.96959e-06
-5.99446e-07
9.94091e-06
-6.51745e-07
9.92273e-06
-4.56125e-07
9.91648e-06
-2.78292e-07
9.91567e-06
-1.75934e-07
9.92041e-06
-1.07614e-07
9.9314e-06
1.10172e-08
9.93866e-06
7.01639e-08
9.9406e-06
7.7912e-08
9.94693e-06
7.99985e-08
9.95687e-06
1.18752e-07
9.96351e-06
1.46115e-07
9.96537e-06
1.46252e-07
9.96745e-06
1.3202e-07
9.97501e-06
1.3012e-07
1.40356e-07
9.98347e-06
1.04624e-05
-2.29956e-07
1.04331e-05
-6.21567e-07
1.04559e-05
-2.87781e-07
1.04686e-05
-2.36546e-07
1.04454e-05
-5.76277e-07
1.0419e-05
-6.25298e-07
1.0402e-05
-4.3914e-07
1.03949e-05
-2.71172e-07
1.03932e-05
-1.74223e-07
1.03973e-05
-1.1177e-07
1.04079e-05
4.1827e-10
1.04156e-05
6.25292e-08
1.04173e-05
7.61827e-08
1.04224e-05
7.48518e-08
1.0432e-05
1.09188e-07
1.04396e-05
1.3853e-07
1.04425e-05
1.43308e-07
1.04439e-05
1.30612e-07
1.04489e-05
1.25176e-07
1.31379e-07
1.04579e-05
1.09665e-05
-2.06424e-07
1.09353e-05
-5.90382e-07
1.09573e-05
-3.09813e-07
1.09689e-05
-2.48072e-07
1.09443e-05
-5.51697e-07
1.09196e-05
-6.00636e-07
1.09043e-05
-4.23773e-07
1.08964e-05
-2.63354e-07
1.08934e-05
-1.71205e-07
1.08967e-05
-1.15069e-07
1.09067e-05
-9.57199e-09
1.09146e-05
5.4599e-08
1.09164e-05
7.43685e-08
1.09204e-05
7.08947e-08
1.09295e-05
1.00104e-07
1.09376e-05
1.30409e-07
1.09413e-05
1.3959e-07
1.09429e-05
1.29033e-07
1.09465e-05
1.21565e-07
1.23262e-07
1.09546e-05
1.14946e-05
-1.8563e-07
1.14619e-05
-5.5767e-07
1.14823e-05
-3.30234e-07
1.14934e-05
-2.59185e-07
1.14677e-05
-5.26025e-07
1.14438e-05
-5.76684e-07
1.14303e-05
-4.10353e-07
1.14223e-05
-2.55289e-07
1.14178e-05
-1.66714e-07
1.14197e-05
-1.1698e-07
1.14289e-05
-1.87271e-08
1.14371e-05
4.6388e-08
1.14392e-05
7.21939e-08
1.1442e-05
6.81521e-08
1.14504e-05
9.16796e-08
1.14589e-05
1.21877e-07
1.14635e-05
1.34992e-07
1.14659e-05
1.26638e-07
1.14691e-05
1.18377e-07
1.1645e-07
1.14759e-05
1.20477e-05
-1.67538e-07
1.2014e-05
-5.239e-07
1.2032e-05
-3.48273e-07
1.20432e-05
-2.70369e-07
1.20169e-05
-4.99753e-07
1.19926e-05
-5.52368e-07
1.19813e-05
-3.99053e-07
1.19736e-05
-2.47628e-07
1.19676e-05
-1.60716e-07
1.19677e-05
-1.17008e-07
1.19758e-05
-2.68325e-08
1.19843e-05
3.78608e-08
1.19872e-05
6.92903e-08
1.1989e-05
6.63016e-08
1.19963e-05
8.44262e-08
1.20052e-05
1.12948e-07
1.20108e-05
1.29446e-07
1.20141e-05
1.23318e-07
1.20173e-05
1.15149e-07
1.10827e-07
1.20229e-05
1.26271e-05
-1.52047e-07
1.25928e-05
-4.89604e-07
1.26078e-05
-3.6324e-07
1.26193e-05
-2.81888e-07
1.25931e-05
-4.73543e-07
1.25675e-05
-5.26829e-07
1.2558e-05
-3.89504e-07
1.25516e-05
-2.41185e-07
1.25443e-05
-1.53492e-07
1.25423e-05
-1.1495e-07
1.25488e-05
-3.34082e-08
1.25576e-05
2.91205e-08
1.25615e-05
6.5418e-08
1.25629e-05
6.48595e-08
1.25687e-05
7.85802e-08
1.25778e-05
1.03892e-07
1.25842e-05
1.23024e-07
1.25883e-05
1.19269e-07
1.25917e-05
1.11747e-07
1.05926e-07
1.25966e-05
1.32339e-05
-1.38977e-07
1.31996e-05
-4.55326e-07
1.3211e-05
-3.74627e-07
1.32228e-05
-2.93737e-07
1.31973e-05
-4.48068e-07
1.31704e-05
-4.99933e-07
1.31616e-05
-3.80621e-07
1.3157e-05
-2.36642e-07
1.31493e-05
-1.4575e-07
1.3145e-05
-1.10716e-07
1.31497e-05
-3.80214e-08
1.31583e-05
2.0463e-08
1.31632e-05
6.05261e-08
1.31647e-05
6.33227e-08
1.31691e-05
7.41809e-08
1.31778e-05
9.51919e-08
1.31851e-05
1.15753e-07
1.31899e-05
1.14527e-07
1.31936e-05
1.08054e-07
1.01409e-07
1.31981e-05
1.38693e-05
-1.28077e-07
1.38356e-05
-4.2171e-07
1.3843e-05
-3.8195e-07
1.38549e-05
-3.05676e-07
1.38309e-05
-4.24042e-07
1.3803e-05
-4.72001e-07
1.37933e-05
-3.7099e-07
1.3791e-05
-2.343e-07
1.37836e-05
-1.38394e-07
1.37776e-05
-1.04707e-07
1.378e-05
-4.04395e-08
1.37881e-05
1.24375e-08
1.37938e-05
5.47888e-08
1.37958e-05
6.12915e-08
1.37992e-05
7.08418e-08
1.3807e-05
8.73134e-08
1.38149e-05
1.07927e-07
1.38204e-05
1.09036e-07
1.38244e-05
1.04018e-07
9.72917e-08
1.38285e-05
1.45346e-05
-1.19027e-07
1.45023e-05
-3.89443e-07
1.45052e-05
-3.84806e-07
1.45167e-05
-3.17145e-07
1.44949e-05
-4.02232e-07
1.44664e-05
-4.43526e-07
1.44549e-05
-3.59482e-07
1.44543e-05
-2.33731e-07
1.44485e-05
-1.32617e-07
1.44413e-05
-9.7494e-08
1.44414e-05
-4.05641e-08
1.44483e-05
5.55713e-09
1.44546e-05
4.84821e-08
1.44574e-05
5.84803e-08
1.44603e-05
6.80205e-08
1.44671e-05
8.05002e-08
1.44749e-05
1.00094e-07
1.4481e-05
1.0297e-07
1.44855e-05
9.95124e-08
9.34174e-08
1.44894e-05
1.52313e-05
-1.11455e-07
1.5201e-05
-3.59129e-07
1.51991e-05
-3.82913e-07
1.52095e-05
-3.27589e-07
1.51904e-05
-3.83087e-07
1.5162e-05
-4.15124e-07
1.51482e-05
-3.45651e-07
1.51482e-05
-2.33767e-07
1.51448e-05
-1.29232e-07
1.51374e-05
-9.00594e-08
1.51354e-05
-3.8593e-08
1.51407e-05
2.35255e-10
1.51472e-05
4.19673e-08
1.51509e-05
5.48153e-08
1.51536e-05
6.53705e-08
1.51594e-05
7.46818e-08
1.51669e-05
9.26088e-08
1.51732e-05
9.66664e-08
1.51783e-05
9.43952e-08
8.94091e-08
1.51823e-05
1.59608e-05
-1.04973e-07
1.5933e-05
-3.3123e-07
1.59265e-05
-3.76424e-07
1.59351e-05
-3.36218e-07
1.59187e-05
-3.66699e-07
1.5891e-05
-3.87371e-07
1.58748e-05
-3.29466e-07
1.5874e-05
-2.33031e-07
1.58733e-05
-1.28494e-07
1.58669e-05
-8.37094e-08
1.58635e-05
-3.51319e-08
1.58669e-05
-3.22051e-09
1.58732e-05
3.57411e-08
1.58776e-05
5.03684e-08
1.58804e-05
6.26022e-08
1.58855e-05
6.96047e-08
1.58925e-05
8.55423e-08
1.58987e-05
9.05184e-08
1.59041e-05
8.89886e-08
8.49642e-08
1.59085e-05
1.67248e-05
-9.92169e-08
1.66996e-05
-3.06e-07
1.66893e-05
-3.66069e-07
1.6695e-05
-3.41954e-07
1.66812e-05
-3.52876e-07
1.66548e-05
-3.6097e-07
1.66366e-05
-3.11339e-07
1.66339e-05
-2.30292e-07
1.66352e-05
-1.29755e-07
1.6631e-05
-7.95254e-08
1.6627e-05
-3.11696e-08
1.66286e-05
-4.80129e-09
1.66341e-05
3.02913e-08
1.6639e-05
4.53834e-08
1.66422e-05
5.94235e-08
1.66466e-05
6.51751e-08
1.66533e-05
7.88897e-08
1.66593e-05
8.45437e-08
1.66644e-05
8.38695e-08
8.00057e-08
1.66693e-05
1.7525e-05
-9.38788e-08
1.75025e-05
-2.83455e-07
1.74891e-05
-3.52739e-07
1.74911e-05
-3.43946e-07
1.74795e-05
-3.41241e-07
1.74552e-05
-3.36669e-07
1.74359e-05
-2.92019e-07
1.74305e-05
-2.24873e-07
1.74323e-05
-1.31574e-07
1.74307e-05
-7.79423e-08
1.74273e-05
-2.77594e-08
1.74274e-05
-4.93598e-09
1.74318e-05
2.5955e-08
1.74368e-05
4.03776e-08
1.74406e-05
5.5637e-08
1.74445e-05
6.12103e-08
1.74506e-05
7.27755e-08
1.74567e-05
7.84548e-08
1.74613e-05
7.92416e-08
7.48962e-08
1.74665e-05
1.83632e-05
-8.87221e-08
1.83432e-05
-2.63448e-07
1.83277e-05
-3.37287e-07
1.83255e-05
-3.41731e-07
1.83155e-05
-3.31239e-07
1.82938e-05
-3.14993e-07
1.82742e-05
-2.7237e-07
1.82662e-05
-2.16846e-07
1.8267e-05
-1.32399e-07
1.82676e-05
-7.85212e-08
1.82656e-05
-2.57472e-08
1.82649e-05
-4.31398e-09
1.82681e-05
2.27941e-08
1.82727e-05
3.57435e-08
1.8277e-05
5.14055e-08
1.82809e-05
5.7235e-08
1.82862e-05
6.74762e-08
1.82924e-05
7.22549e-08
1.82969e-05
7.47809e-08
7.02873e-08
1.83015e-05
1.92413e-05
-8.35913e-08
1.92235e-05