/*--------------------------------*- C++ -*----------------------------------*\
| =========                 |                                                 |
| \\      /  F ield         | OpenFOAM: The Open Source CFD Toolbox           |
|  \\    /   O peration     | Version:  v1912                                 |
|   \\  /    A nd           | Website:  www.openfoam.com                      |
|    \\/     M anipulation  |                                                 |
\*---------------------------------------------------------------------------*/
FoamFile
{
    version     2.0;
    format      ascii;
    class       volScalarField;
    location    "2.85";
    object      p;
}
// * * * * * * * * * * * * * * * * * * * * * * * * * * * * * * * * * * * * * //

dimensions      [0 2 -2 0 0 0 0];


internalField   nonuniform List<scalar> 
9600
(
3.09229e-11
0.00432363
0.00413219
0.00420192
0.00130932
0.00465793
0.00840261
0.013455
0.0128933
0.0105881
0.0083632
0.00698524
0.00761366
0.00556804
0.0085187
0.00810347
0.0077686
0.00719474
0.00537384
0.00654195
-3.73429e-06
0.00432763
0.00413419
0.00421535
0.00130196
0.00466626
0.00840674
0.0132681
0.012881
0.0105735
0.00836925
0.00699704
0.00762701
0.00555074
0.00855355
0.00803042
0.00779972
0.00691157
0.00542581
0.00622216
-5.80652e-06
0.00433609
0.00413873
0.00422549
0.0012936
0.00468889
0.00840725
0.0132505
0.0128679
0.0105588
0.00839003
0.00701015
0.00764579
0.00552786
0.00858813
0.00792114
0.00781076
0.00671009
0.00546033
0.00585611
-3.61491e-06
0.00434051
0.00414179
0.00423411
0.00129987
0.00471957
0.00840609
0.0132348
0.0128476
0.0105401
0.00841763
0.00702861
0.00767165
0.00550444
0.00862359
0.00776944
0.00778923
0.00650884
0.00542907
0.00556081
3.29669e-06
0.00433904
0.0041402
0.00424327
0.00131973
0.00475134
0.00840408
0.0132205
0.012825
0.0105179
0.00844796
0.00705165
0.00770011
0.00548418
0.00866506
0.00757887
0.00776107
0.00629693
0.00536837
0.00534989
1.45003e-05
0.00433308
0.00413194
0.00425399
0.00135115
0.00478312
0.00840424
0.0132049
0.012799
0.0104911
0.00847866
0.0070759
0.00772721
0.00546647
0.00870497
0.00736976
0.00772824
0.00608931
0.00529477
0.00516067
2.88142e-05
0.00432582
0.004118
0.00426538
0.00137846
0.00481566
0.0084063
0.0131849
0.0127687
0.0104593
0.00850837
0.00709849
0.00775117
0.00544469
0.00874046
0.0071477
0.00767638
0.00589989
0.0051779
0.00498548
4.48495e-05
0.00432131
0.00410163
0.00427645
0.00140217
0.00484805
0.0084075
0.0131581
0.0127326
0.0104224
0.00853701
0.00711895
0.007771
0.00541557
0.00876719
0.00691519
0.00760112
0.00572244
0.00500927
0.00483521
6.15723e-05
0.00432311
0.00408618
0.00428716
0.00142263
0.00487885
0.00840449
0.0131223
0.0126889
0.0103801
0.00856482
0.00713798
0.0077871
0.00538
0.00878154
0.00667701
0.00750006
0.00555869
0.00479465
0.0047008
7.85718e-05
0.00433311
0.00407337
0.00429812
0.00144391
0.00490825
0.00839457
0.0130757
0.012636
0.0103325
0.00859196
0.00715684
0.00779952
0.00534382
0.00878129
0.00644151
0.00737524
0.00541082
0.00453795
0.00456883
9.60291e-05
0.00435119
0.00406312
0.00430977
0.00147239
0.00493798
0.00837582
0.0130167
0.0125722
0.0102793
0.00861823
0.00717653
0.00780788
0.00531569
0.00876152
0.00622214
0.00723379
0.00527891
0.00425022
0.0044331
0.000114507
0.00437567
0.00405431
0.00432195
0.00151431
0.00496988
0.00834775
0.0129445
0.0124963
0.01022
0.00864322
0.00719756
0.00781194
0.00530359
0.00872057
0.00603418
0.00708486
0.00516475
0.00395181
0.00429383
0.000134667
0.00440417
0.00404552
0.00433427
0.00157376
0.00500484
0.00831105
0.0128587
0.0124081
0.0101544
0.00866621
0.00721969
0.00781129
0.00531197
0.00865433
0.00589011
0.00693537
0.00507287
0.00366787
0.00415606
0.000157029
0.00443451
0.0040357
0.00434653
0.00165213
0.00504252
0.00826712
0.0127595
0.0123082
0.0100821
0.00868654
0.00724233
0.00780558
0.00534026
0.00856273
0.00579538
0.00678911
0.00500952
0.00342174
0.00402871
0.000181847
0.0044652
0.00402453
0.00435874
0.00174842
0.00508182
0.00821779
0.0126479
0.0121986
0.0100032
0.00870395
0.00726535
0.00779487
0.00538442
0.00844824
0.00574741
0.00664831
0.00497865
0.00322883
0.00392189
0.000209138
0.00449544
0.00401231
0.00437096
0.00186
0.00512162
0.00816483
0.0125249
0.0120816
0.00991802
0.00871822
0.00728903
0.00777914
0.00543948
0.00831517
0.00573757
0.00651287
0.00497792
0.00309358
0.00384051
0.000238794
0.00452488
0.00399966
0.00438316
0.00198357
0.00516095
0.00810968
0.0123916
0.0119594
0.00982704
0.00872902
0.00731374
0.00775819
0.00550145
0.008168
0.00575446
0.00638206
0.00499907
0.00301097
0.00378201
0.000270679
0.00455337
0.00398733
0.00439534
0.00211587
0.00519891
0.00805347
0.012249
0.0118339
0.00973093
0.00873596
0.00733999
0.00773149
0.00556796
0.00801006
0.00578672
0.00625515
0.00503106
0.00297002
0.00373763
0.000304704
0.00458074
0.00397596
0.00440743
0.00225428
0.00523467
0.0079969
0.0120976
0.0117063
0.00963036
0.0087384
0.00736827
0.00769845
0.0056373
0.00784407
0.00582504
0.00613287
0.00506359
0.00295893
0.00369708
0.000340836
0.00460679
0.00396612
0.00441929
0.00239691
0.00526758
0.00794041
0.0119381
0.0115772
0.00952601
0.00873555
0.00739887
0.00765881
0.00570761
0.0076726
0.0058628
0.00601593
0.0050882
0.00296869
0.00365276
0.000379108
0.00463121
0.00395827
0.00443074
0.00254255
0.00529709
0.00788418
0.0117708
0.0114469
0.00941862
0.00872653
0.00743178
0.00761247
0.00577709
0.00749862
0.00589506
0.00590415
0.00510016
0.00299292
0.0036003
0.000419611
0.00465365
0.00395278
0.0044416
0.00269041
0.00532261
0.00782819
0.0115963
0.0113154
0.00930906
0.00871039
0.00746684
0.00755963
0.00584407
0.00732474
0.00591805
0.00579798
0.00509833
0.00302679
0.0035389
0.000462481
0.00467378
0.00394996
0.0044517
0.00283997
0.00534367
0.00777231
0.011415
0.0111821
0.00919823
0.0086862
0.00750375
0.00750087
0.0059064
0.00715316
0.00592914
0.00569863
0.0050828
0.00306679
0.00347011
0.000507888
0.00469116
0.00395011
0.00446082
0.00299077
0.00535985
0.00771618
0.0112276
0.0110464
0.00908695
0.00865326
0.00754186
0.00743719
0.0059616
0.00698609
0.00592675
0.00560651
0.00505487
0.00311005
0.00339568
0.000556032
0.00470534
0.00395349
0.00446886
0.00314237
0.0053708
0.00765927
0.0110351
0.0109077
0.00897597
0.00861115
0.00758019
0.00736987
0.00600738
0.00682567
0.00591019
0.00552046
0.00501732
0.00315535
0.00331655
0.000607141
0.00471584
0.00396027
0.00447572
0.00329442
0.00537632
0.00760079
0.0108384
0.0107649
0.00886578
0.00855969
0.00761758
0.00730028
0.00604184
0.00667355
0.0058797
0.00543899
0.00497269
0.00320272
0.00323369
0.000661461
0.0047221
0.00397059
0.00448127
0.0034465
0.00537646
0.00753978
0.0106387
0.0106175
0.00875658
0.00849904
0.00765254
0.00722993
0.00606335
0.00653034
0.00583669
0.00536092
0.00492185
0.00325135
0.00314959
0.000719235
0.00472354
0.00398456
0.0044854
0.00359806
0.00537161
0.00747518
0.0104371
0.0104649
0.00864841
0.00842982
0.00768337
0.00715991
0.00607054
0.00639595
0.00578339
0.00528449
0.00486578
0.00330111
0.00306712
0.000780713
0.00471963
0.00400227
0.00448811
0.00374834
0.00536242
0.00740593
0.0102348
0.0103069
0.00854086
0.00835283
0.00770854
0.0070909
0.00606265
0.00626999
0.00572215
0.00520808
0.00480518
0.00335177
0.00298979
0.000846135
0.00470987
0.00402385
0.00448954
0.00389641
0.00534965
0.00733093
0.0100328
0.0101438
0.00843338
0.00826861
0.00772666
0.00702341
0.00603946
0.00615169
0.00565566
0.00513094
0.00473955
0.00340109
0.00292214
0.000915735
0.00469378
0.0040493
0.00448999
0.00404127
0.00533443
0.00724926
0.0098316
0.00997627
0.00832543
0.00817768
0.00773681
0.00695753
0.00600099
0.00603947
0.0055869
0.00505308
0.00466745
0.00344659
0.00286842
0.000989768
0.00467096
0.00407839
0.00448985
0.00418178
0.0053183
0.00716048
0.00963122
0.00980475
0.00821613
0.00808078
0.00773844
0.00689321
0.00594769
0.00593118
0.00551849
0.00497512
0.00458729
0.00348562
0.00283267
0.00106848
0.00464107
0.00411081
0.00448965
0.00431662
0.0053026
0.0070644
0.00943138
0.00963019
0.0081044
0.00797796
0.0077311
0.00683057
0.00588023
0.00582456
0.0054527
0.00489834
0.00449892
0.00351408
0.00281505
0.00115209
0.00460393
0.00414607
0.00449009
0.00444444
0.00528855
0.00696105
0.00923151
0.009454
0.00799002
0.00786847
0.00771444
0.00676987
0.00579904
0.00571683
0.00539101
0.00482572
0.00440414
0.00352609
0.00281099
0.00124079
0.00455948
0.00418345
0.00449201
0.00456376
0.00527734
0.00685096
0.00903224
0.00927692
0.00787324
0.00775177
0.0076877
0.00671203
0.00570484
0.00560455
0.00533381
0.00476099
0.00430535
0.00351786
0.00281576
0.00133476
0.00450787
0.00422185
0.00449627
0.00467346
0.00526973
0.00673487
0.00883127
0.00909952
0.00775412
0.00762754
0.0076498
0.00665758
0.00559941
0.00548415
0.00528046
0.00470669
0.004205
0.00348891
0.00282311
0.00143411
0.00444962
0.00425968
0.00450356
0.004773
0.00526626
0.00661356
0.00862648
0.0089226
0.00763343
0.00749524
0.00759982
0.00660658
0.00548492
0.00535226
0.00522896
0.00466523
0.00410697
0.00343911
0.00282313
0.00153886
0.00438553
0.00429515
0.00451442
0.00486208
0.00526715
0.0064886
0.00841695
0.00874574
0.00751261
0.00735499
0.00753556
0.00655962
0.0053651
0.00520522
0.00517436
0.00463909
0.00401738
0.00337087
0.00280678
0.00164899
0.00431686
0.00432603
0.00452888
0.00494135
0.00527176
0.00636118
0.0082033
0.00856804
0.00739215
0.00720851
0.00745472
0.00651499
0.00524522
0.00504225
0.00510958
0.00462781
0.00394166
0.00328944
0.00277256
0.00176434
0.00424531
0.00435033
0.00454629
0.00501154
0.00527975
0.00623233
0.0079853
0.00838954
0.00727224
0.00705696
0.00735712
0.00647006
0.0051287
0.00486373
0.00502884
0.00462957
0.00388473
0.00319961
0.00271691
0.0018846
0.00417263
0.0043663
0.00456565
0.00507342
0.00529074
0.00610403
0.00776252
0.00820912
0.00715401
0.00690104
0.00724197
0.00642334
0.00502015
0.00466978
0.00492389
0.00464111
0.00385502
0.0031117
0.00263958
0.00200935
0.00410059
0.00437238
0.00458553
0.00512815
0.00530356
0.0059775
0.00753586
0.00802512
0.00703728
0.00674358
0.00710891
0.00637078
0.00492459
0.00446671
0.00478426
0.00464909
0.00388151
0.00304134
0.00255751
0.00213795
0.00403095
0.00436762
0.00460464
0.00517623
0.00531781
0.00585391
0.00730576
0.00783705
0.00692123
0.00658594
0.00696015
0.00630897
0.00484198
0.0042665
0.00461022
0.0046265
0.00390062
0.0029931
0.0024843
0.00226954
0.00396561
0.00435123
0.00462146
0.0052182
0.00533276
0.00573589
0.00707343
0.00764355
0.00680644
0.00642874
0.00679637
0.00623694
0.00477252
0.00407735
0.00441525
0.00457753
0.00391465
0.00295559
0.0023925
0.00240287
0.00390613
0.00432369
0.00463394
0.005254
0.00534825
0.00562379
0.00684036
0.00744367
0.00669159
0.00627452
0.00661902
0.00615219
0.00471576
0.0039053
0.00421282
0.00452582
0.00396486
0.00292618
0.00221138
0.00253627
0.00385504
0.00428699
0.00463963
0.00528347
0.00536358
0.00551833
0.00660818
0.00723703
0.0065749
0.00612496
0.00643106
0.00605236
0.00466835
0.00375596
0.00400723
0.00442932
0.0039788
0.00289951
0.00206915
0.00266763
0.00381374
0.0042441
0.00463598
0.00530561
0.00537868
0.00542086
0.00637828
0.00702296
0.0064559
0.00598046
0.00623592
0.00593583
0.00462449
0.00363137
0.00379357
0.00427787
0.00396472
0.00290561
0.00199045
0.00279508
0.00378373
0.00419826
0.00462108
0.00531869
0.00539373
0.0053324
0.00615142
0.00680197
0.00633298
0.00584116
0.00603708
0.00580085
0.0045796
0.00352968
0.00357227
0.00408412
0.00393216
0.00293479
0.00194267
0.00291716
0.00376538
0.00415266
0.00459392
0.00532058
0.00540795
0.00525401
0.00592973
0.00657418
0.00620437
0.00570827
0.00583638
0.00564695
0.00452807
0.00344626
0.00336077
0.00385838
0.00386073
0.00295743
0.00191544
0.00303273
0.00375827
0.00411036
0.00455469
0.00530827
0.00542022
0.00518714
0.00571474
0.00633936
0.00606937
0.00558198
0.00563635
0.0054745
0.00446312
0.00337995
0.00317364
0.00360985
0.00373369
0.00298194
0.00192031
0.00314108
0.00376101
0.00407381
0.00450457
0.00527884
0.00542901
0.00513269
0.00550771
0.00609875
0.00592652
0.00546051
0.00544058
0.005286
0.00438168
0.00332461
0.00301181
0.00335668
0.00355595
0.00299064
0.00197229
0.00324176
0.00377211
0.00404484
0.00444576
0.00523017
0.00543183
0.00509085
0.00531171
0.00585376
0.00577294
0.00534227
0.00525237
0.00508703
0.00428116
0.003272
0.00287348
0.00311749
0.00334485
0.002952
0.00203478
0.00333462
0.00378947
0.00402465
0.00438172
0.00516115
0.00542437
0.00506123
0.00513014
0.00560463
0.00560628
0.0052259
0.00507509
0.00488433
0.00416063
0.00321655
0.00275623
0.00289667
0.00311882
0.00286469
0.00209446
0.00341987
0.00381077
0.00401392
0.0043162
0.00507173
0.00540227
0.00504108
0.00496554
0.00535384
0.00542488
0.0051083
0.00491215
0.00468533
0.00402219
0.00314967
0.00265465
0.00269761
0.00289346
0.00274257
0.0021233
0.00349786
0.00383388
0.00401207
0.00425334
0.00496388
0.00536034
0.00502575
0.00482156
0.00510665
0.00522598
0.0049839
0.00476545
0.00449865
0.00387257
0.00306356
0.00256032
0.0025249
0.00267717
0.00259717
0.00211535
0.00356913
0.00385675
0.00401792
0.0041969
0.0048408
0.00529372
0.00501035
0.00470131
0.00486759
0.00500937
0.00484766
0.00463193
0.00433126
0.00372045
0.00295853
0.00246233
0.0023744
0.00247811
0.00243722
0.00207575
0.00363433
0.00387815
0.00402928
0.00414925
0.00470793
0.00520003
0.00498815
0.00460488
0.00464331
0.00477893
0.00469292
0.00450527
0.00418577
0.00357569
0.00284316
0.00235432
0.00223527
0.00230013
0.00227418
0.00200832
0.00369402
0.00389747
0.00404256
0.00411159
0.00457209
0.00507933
0.00495101
0.00452866
0.00444351
0.00454145
0.00451301
0.00437608
0.00406009
0.00344821
0.00272717
0.00223854
0.00209687
0.00213633
0.00211747
0.0019203
0.00374868
0.00391412
0.00405417
0.00408404
0.00443966
0.00493437
0.00489249
0.00446713
0.0042741
0.0043064
0.00430795
0.00423013
0.00394797
0.00334481
0.00262017
0.00211976
0.00195606
0.00197862
0.00196869
0.00182321
0.00379851
0.003928
0.00406073
0.00406497
0.00431603
0.0047695
0.00480891
0.00441398
0.00413366
0.00408805
0.00408656
0.00405546
0.00383582
0.00326434
0.00253336
0.00200465
0.00181387
0.001824
0.00182391
0.00172258
0.00384356
0.00393931
0.00406018
0.00405144
0.0042055
0.00459277
0.00469871
0.00436054
0.00401794
0.00389408
0.00386147
0.00385407
0.00370361
0.00319836
0.00247504
0.00190569
0.00167216
0.00166963
0.00168103
0.00161698
0.00388355
0.0039479
0.00405245
0.00403855
0.00411035
0.00441455
0.00456348
0.0042976
0.00392296
0.00372524
0.0036496
0.00363708
0.00354094
0.00312611
0.0024404
0.00183675
0.00153973
0.001512
0.00153948
0.00150611
0.00391792
0.00395402
0.00403815
0.00402148
0.00402975
0.0042446
0.00440722
0.00421807
0.00384078
0.00357944
0.00345777
0.00341998
0.00335484
0.00302921
0.00241444
0.0018002
0.00143365
0.00135487
0.00139506
0.0013925
0.00394491
0.00395787
0.00401822
0.0039975
0.00396081
0.00408929
0.00423667
0.00411767
0.00376302
0.00345462
0.00328836
0.00321626
0.00315565
0.00290402
0.00237503
0.00178455
0.00136608
0.00121263
0.00124531
0.00127769
0.00396681
0.00395942
0.00399375
0.00396526
0.00389981
0.0039519
0.00406189
0.00399613
0.00368257
0.00334595
0.00313994
0.00303316
0.002956
0.00275767
0.00231366
0.00177032
0.0013312
0.00110255
0.0010961
0.00115803
0.00398198
0.00395836
0.0039661
0.00392508
0.00384207
0.0038318
0.00389257
0.00385768
0.00359368
0.00324873
0.00300926
0.00287234
0.0027684
0.0025974
0.00223152
0.00174406
0.00131485
0.00103272
0.000961593
0.00103163
0.00399033
0.00395392
0.00393655
0.00387825
0.00378385
0.0037265
0.00373443
0.00370761
0.00349147
0.00316003
0.00289513
0.00273018
0.00260094
0.0024336
0.00213044
0.00170206
0.00129824
0.000995963
0.000858654
0.000906373
0.00399196
0.00394574
0.00390585
0.00382636
0.00372207
0.00363266
0.0035917
0.00355414
0.00337384
0.0030724
0.00279786
0.00260474
0.0024547
0.00228166
0.00201826
0.00164445
0.00126848
0.000974576
0.000791444
0.00079424
0.00398717
0.00393331
0.00387455
0.00377158
0.00365557
0.0035456
0.00346446
0.00340686
0.00324718
0.00297781
0.00271145
0.00249632
0.00232619
0.00214904
0.0019084
0.00158066
0.00122813
0.000950367
0.000753724
0.00070898
0.00397639
0.00391637
0.0038421
0.00371533
0.00358557
0.00346217
0.00334966
0.00326842
0.00311796
0.00287872
0.00262841
0.00240279
0.00221357
0.00203029
0.00180754
0.00151865
0.00118829
0.000922094
0.000734028
0.00066125
0.00396006
0.0038894
0.00380828
0.0036584
0.00351207
0.0033798
0.00324628
0.00313935
0.00298813
0.00277901
0.00255097
0.00232277
0.00212194
0.00192777
0.00171183
0.00145664
0.0011519
0.000891296
0.000714886
0.000635654
0.00393937
0.00386502
0.00377394
0.00360262
0.00343728
0.00329539
0.0031499
0.00302164
0.00285988
0.00267442
0.00247934
0.00225734
0.00205362
0.00185558
0.00163272
0.00139895
0.00112351
0.000866899
0.00069178
0.000611372
0.00391495
0.00383608
0.00373937
0.00354732
0.00336311
0.003211
0.00305672
0.00291294
0.00273934
0.00256451
0.00240467
0.00220165
0.00200201
0.00181796
0.00159233
0.00136306
0.00111369
0.000864848
0.000686903
0.000600344
0.00388796
0.00380303
0.00368567
0.00349147
0.00328828
0.0031273
0.0029669
0.00280903
0.0026281
0.00245638
0.00231888
0.00215216
0.00196971
0.00181248
0.0016044
0.001377
0.00115442
0.000925769
0.000751131
0.000660291
0.00385884
0.00377099
0.00365161
0.00343859
0.00321458
0.00304162
0.00287924
0.00271122
0.00251905
0.00233902
0.00219828
0.00205391
0.00188688
0.00175027
0.00158205
0.00136325
0.00115463
0.00095538
0.000794913
0.00071161
0.0038307
0.00373208
0.00360742
0.00338311
0.00314172
0.00295318
0.00279137
0.00263676
0.00247623
0.00233794
0.00224683
0.00215456
0.00202347
0.00190051
0.00175244
0.00153286
0.00130004
0.0010659
0.000832534
0.000647172
0.0038077
0.00370707
0.00357048
0.00333277
0.00306399
0.00284761
0.00263205
0.00240743
0.00217134
0.00196651
0.00186212
0.00186631
0.00189569
0.00191886
0.00189235
0.0018088
0.00174645
0.0017544
0.00178968
0.00180016
0.00377035
0.00365569
0.00352659
0.00330316
0.00304359
0.00284046
0.00267203
0.00250205
0.0023536
0.00222275
0.00213732
0.00211302
0.0020592
0.00197862
0.00188175
0.00171938
0.00148458
0.00121877
0.000957344
0.000733237
0.00376237
0.00364033
0.00348971
0.00322642
0.00291532
0.00266193
0.00243341
0.00224563
0.00213373
0.00205592
0.00199709
0.00201536
0.00201775
0.00197866
0.00195149
0.00194154
0.00194136
0.00195384
0.00197115
0.00194964
0.00372442
0.00359653
0.00346585
0.00324095
0.00297101
0.00274865
0.00254662
0.00231222
0.00209863
0.00191783
0.0018029
0.00187459
0.00202944
0.00212081
0.00216478
0.00218721
0.00217137
0.00210016
0.00197607
0.00178849
0.0089021
0.00819303
0.00201563
-0.00285916
-0.00434678
-0.00338935
-0.00215451
-0.00201342
-0.00255294
-0.00271292
-0.00246704
-0.00233919
-0.0023336
-0.00232243
-0.00241326
-0.00252603
-0.00240858
-0.0020602
-0.00178836
-0.00180299
-0.00209914
-0.00259028
-0.00301245
-0.00313619
-0.00303571
-0.00287966
-0.00274554
-0.00266324
-0.00265875
-0.00269664
-0.00269658
-0.00271578
-0.00286069
-0.00301195
-0.00301109
-0.00295285
-0.00297706
-0.00303446
-0.00308032
-0.00314125
-0.00320868
-0.00327088
-0.00334704
-0.00343114
-0.00350579
-0.00358062
-0.00367599
-0.00378419
-0.00385749
-0.00388844
-0.00392312
-0.0039905
-0.00407955
-0.00414749
-0.00422464
-0.00435705
-0.00445129
-0.00453331
-0.00464021
-0.00474023
-0.00481457
-0.00489445
-0.00494252
-0.00496088
-0.00500549
-0.00518863
-0.00544672
-0.00557362
-0.00560335
-0.00564775
-0.00572485
-0.00581171
-0.00591685
-0.0060163
-0.00616158
-0.00629344
-0.00640684
-0.00651552
-0.00664608
-0.00678225
-0.00690021
-0.00703562
-0.00716911
-0.00728351
-0.0073955
-0.00750964
-0.00765653
-0.00775837
-0.00789394
-0.00802215
-0.00815789
-0.00828057
-0.00841042
-0.00858573
-0.00873012
-0.00890627
-0.00898396
-0.00923286
-0.00911845
-0.00891418
0.00835343
0.00805999
0.00209769
-0.00272725
-0.0042405
-0.00332151
-0.00210798
-0.00198474
-0.00253695
-0.00270194
-0.00245694
-0.00232978
-0.00232517
-0.00231451
-0.00240623
-0.00252041
-0.00240396
-0.00205575
-0.00178389
-0.00179879
-0.00209534
-0.00258716
-0.00301013
-0.00313417
-0.00303364
-0.00287766
-0.0027437
-0.00266151
-0.00265711
-0.00269519
-0.00269528
-0.00271447
-0.00285949
-0.00301103
-0.00301028
-0.00295195
-0.0029762
-0.00303371
-0.00307959
-0.00314056
-0.00320802
-0.00327024
-0.00334641
-0.00343054
-0.00350521
-0.00358004
-0.00367542
-0.00378366
-0.00385701
-0.00388797
-0.00392265
-0.00399003
-0.00407911
-0.00414708
-0.00422421
-0.00435664
-0.00445092
-0.00453294
-0.00463986
-0.0047399
-0.00481425
-0.00489416
-0.00494226
-0.00496062
-0.00500518
-0.00518832
-0.00544647
-0.00557343
-0.00560314
-0.00564754
-0.00572465
-0.00581152
-0.00591666
-0.00601612
-0.0061614
-0.00629328
-0.00640668
-0.00651537
-0.00664593
-0.00678211
-0.00690007
-0.00703548
-0.00716898
-0.00728338
-0.00739537
-0.00750951
-0.00765641
-0.00775826
-0.00789383
-0.00802204
-0.00815778
-0.00828047
-0.00841032
-0.00858563
-0.00873002
-0.00890619
-0.00898389
-0.00923279
-0.00911844
-0.00891389
0.00787486
0.00804648
0.00234868
-0.0024535
-0.00406605
-0.00325696
-0.0020847
-0.00196175
-0.00251484
-0.00268522
-0.00244492
-0.00232078
-0.00231788
-0.00230797
-0.00240034
-0.0025153
-0.00239933
-0.00205109
-0.00177926
-0.00179462
-0.00209182
-0.00258462
-0.00300853
-0.00313275
-0.00303192
-0.0028758
-0.00274198
-0.00265997
-0.00265571
-0.00269393
-0.00269407
-0.00271326
-0.0028585
-0.00301036
-0.00300961
-0.00295113
-0.00297544
-0.00303307
-0.00307898
-0.00313998
-0.00320749
-0.00326971
-0.0033459
-0.00343006
-0.00350473
-0.00357957
-0.00367496
-0.00378325
-0.00385664
-0.00388759
-0.00392224
-0.00398963
-0.00407875
-0.00414674
-0.00422384
-0.00435633
-0.00445063
-0.00453263
-0.00463958
-0.00473965
-0.00481399
-0.00489392
-0.00494206
-0.00496039
-0.00500488
-0.00518803
-0.00544632
-0.00557331
-0.00560297
-0.00564736
-0.00572448
-0.00581136
-0.00591651
-0.00601596
-0.00616126
-0.00629316
-0.00640656
-0.00651524
-0.00664581
-0.006782
-0.00689996
-0.00703537
-0.00716888
-0.00728328
-0.00739527
-0.00750941
-0.00765632
-0.00775817
-0.00789373
-0.00802196
-0.00815769
-0.00828038
-0.00841023
-0.00858556
-0.00872995
-0.00890614
-0.00898382
-0.00923277
-0.00911852
-0.00891349
0.00742958
0.00800546
0.00262334
-0.00215024
-0.00387319
-0.00319168
-0.00206253
-0.00193181
-0.0024809
-0.00265836
-0.00242628
-0.00230689
-0.00230726
-0.00230022
-0.00239433
-0.00250977
-0.00239376
-0.00204534
-0.0017734
-0.00178896
-0.00208688
-0.00258111
-0.00300644
-0.00313097
-0.00302968
-0.00287339
-0.0027399
-0.00265818
-0.00265398
-0.00269225
-0.00269249
-0.00271183
-0.00285736
-0.00300953
-0.00300877
-0.00295016
-0.00297456
-0.00303233
-0.00307828
-0.00313935
-0.00320692
-0.00326916
-0.00334536
-0.00342955
-0.00350424
-0.00357908
-0.00367449
-0.00378283
-0.00385625
-0.0038872
-0.00392182
-0.00398921
-0.00407837
-0.00414639
-0.00422346
-0.004356
-0.00445033
-0.0045323
-0.00463928
-0.00473938
-0.00481372
-0.00489368
-0.00494186
-0.00496014
-0.00500453
-0.00518771
-0.0054462
-0.00557322
-0.00560277
-0.00564715
-0.0057243
-0.00581119
-0.00591635
-0.0060158
-0.00616111
-0.00629304
-0.00640643
-0.00651511
-0.00664568
-0.00678189
-0.00689984
-0.00703526
-0.00716878
-0.00728318
-0.00739517
-0.0075093
-0.00765623
-0.00775808
-0.00789363
-0.00802187
-0.0081576
-0.0082803
-0.00841013
-0.00858548
-0.00872987
-0.00890609
-0.00898375
-0.00923278
-0.00911869
-0.00891293
0.00694351
0.00787732
0.00289962
-0.00181883
-0.00365544
-0.00311744
-0.00204228
-0.00190189
-0.00244018
-0.002623
-0.00240057
-0.00228622
-0.00229075
-0.00228895
-0.00238641
-0.00250253
-0.00238681
-0.00203911
-0.0017674
-0.00178249
-0.00208019
-0.00257551
-0.00300261
-0.00312783
-0.00302614
-0.00286992
-0.00273729
-0.0026561
-0.00265167
-0.00268972
-0.00269025
-0.00271004
-0.00285589
-0.00300825
-0.00300753
-0.00294891
-0.00297344
-0.00303134
-0.00307738
-0.00313859
-0.00320625
-0.00326854
-0.00334476
-0.00342899
-0.00350372
-0.00357859
-0.003674
-0.00378236
-0.00385582
-0.00388676
-0.00392136
-0.00398872
-0.00407794
-0.00414599
-0.00422304
-0.00435564
-0.00445
-0.00453193
-0.00463897
-0.0047391
-0.00481341
-0.00489341
-0.00494164
-0.00495987
-0.00500411
-0.00518733
-0.00544608
-0.00557313
-0.00560255
-0.00564691
-0.0057241
-0.00581099
-0.00591616
-0.00601561
-0.00616095
-0.00629291
-0.00640628
-0.00651496
-0.00664554
-0.00678178
-0.00689971
-0.00703514
-0.00716867
-0.00728307
-0.00739506
-0.00750919
-0.00765613
-0.00775798
-0.00789352
-0.00802178
-0.00815751
-0.00828021
-0.00841002
-0.0085854
-0.00872978
-0.00890602
-0.00898369
-0.00923279
-0.00911898
-0.00891221
0.00642191
0.00770872
0.00320662
-0.00145228
-0.00342207
-0.00303988
-0.00202701
-0.00187707
-0.00240053
-0.00258616
-0.00237192
-0.00226048
-0.00226838
-0.00227309
-0.00237516
-0.00249264
-0.00237828
-0.00203288
-0.00176243
-0.00177672
-0.00207291
-0.00256808
-0.00299648
-0.00312237
-0.00302017
-0.00286448
-0.00273386
-0.00265382
-0.00264873
-0.00268605
-0.00268712
-0.00270781
-0.00285389
-0.00300622
-0.00300571
-0.00294729
-0.00297196
-0.00302998
-0.00307618
-0.00313761
-0.00320543
-0.0032678
-0.00334403
-0.00342829
-0.00350313
-0.00357809
-0.00367349
-0.00378182
-0.00385531
-0.0038863
-0.00392085
-0.00398815
-0.00407741
-0.00414554
-0.00422258
-0.00435524
-0.00444962
-0.00453154
-0.00463863
-0.00473878
-0.00481306
-0.0048931
-0.00494139
-0.00495955
-0.00500363
-0.00518691
-0.00544597
-0.00557304
-0.00560229
-0.00564664
-0.00572387
-0.00581077
-0.00591595
-0.00601539
-0.00616077
-0.00629276
-0.00640612
-0.0065148
-0.00664539
-0.00678165
-0.00689957
-0.00703501
-0.00716857
-0.00728296
-0.00739494
-0.00750907
-0.00765602
-0.00775787
-0.00789341
-0.00802168
-0.0081574
-0.00828011
-0.0084099
-0.00858531
-0.00872968
-0.00890595
-0.00898362
-0.00923281
-0.00911937
-0.00891136
0.00590639
0.00750898
0.00352272
-0.00107163
-0.00318409
-0.00296192
-0.00201549
-0.00185519
-0.00236171
-0.00254957
-0.00234284
-0.00223232
-0.0022422
-0.00225346
-0.00236062
-0.00247997
-0.00236807
-0.00202669
-0.00175895
-0.00177285
-0.00206675
-0.00256033
-0.00298892
-0.00311459
-0.00301105
-0.00285606
-0.00272887
-0.00265111
-0.00264517
-0.00268122
-0.00268312
-0.00270516
-0.00285118
-0.00300316
-0.00300312
-0.00294526
-0.00297005
-0.00302813
-0.00307457
-0.00313631
-0.00320437
-0.00326687
-0.00334309
-0.00342735
-0.0035024
-0.00357757
-0.00367297
-0.0037812
-0.00385472
-0.00388582
-0.00392032
-0.00398746
-0.00407676
-0.00414501
-0.00422206
-0.00435476
-0.00444917
-0.00453111
-0.00463826
-0.00473843
-0.00481268
-0.00489274
-0.0049411
-0.00495918
-0.00500306
-0.00518642
-0.00544584
-0.00557293
-0.00560198
-0.00564632
-0.00572361
-0.00581051
-0.00591569
-0.00601514
-0.00616056
-0.00629259
-0.00640593
-0.00651461
-0.00664521
-0.00678151
-0.00689942
-0.00703487
-0.00716845
-0.00728283
-0.00739482
-0.00750894
-0.00765591
-0.00775775
-0.00789329
-0.00802158
-0.0081573
-0.00828
-0.00840976
-0.00858521
-0.00872956
-0.00890585
-0.00898355
-0.00923279
-0.00911986
-0.00891039
0.00540942
0.00725382
0.00382588
-0.000683434
-0.00294047
-0.00287998
-0.00200447
-0.00183412
-0.00232149
-0.00251134
-0.00231301
-0.00220299
-0.00221386
-0.00223131
-0.00234361
-0.0024651
-0.00235637
-0.00202018
-0.0017564
-0.00177086
-0.00206266
-0.00255405
-0.0029818
-0.00310577
-0.00299916
-0.00284433
-0.00272164
-0.0026474
-0.00264082
-0.0026754
-0.00267855
-0.00270234
-0.00284781
-0.00299893
-0.00299963
-0.00294271
-0.00296766
-0.00302577
-0.00307254
-0.00313466
-0.00320303
-0.00326574
-0.00334186
-0.00342605
-0.00350139
-0.00357691
-0.00367233
-0.00378043
-0.00385405
-0.00388537
-0.00391978
-0.00398665
-0.00407593
-0.00414437
-0.00422145
-0.00435413
-0.0044486
-0.00453061
-0.00463785
-0.00473806
-0.00481227
-0.00489235
-0.00494076
-0.00495874
-0.00500238
-0.00518586
-0.00544569
-0.00557278
-0.00560162
-0.00564597
-0.00572331
-0.00581019
-0.00591538
-0.00601484
-0.0061603
-0.00629236
-0.00640569
-0.00651439
-0.00664501
-0.00678134
-0.00689924
-0.00703471
-0.00716832
-0.00728269
-0.00739468
-0.0075088
-0.00765579
-0.00775763
-0.00789316
-0.00802148
-0.00815718
-0.00827989
-0.0084096
-0.00858511
-0.00872941
-0.00890571
-0.00898349
-0.00923273
-0.00912044
-0.00890934
0.00493156
0.006941
0.00411059
-0.000289132
-0.00269032
-0.00279312
-0.00199295
-0.00181324
-0.00227837
-0.00246934
-0.00228127
-0.00217268
-0.00218398
-0.00220719
-0.00232469
-0.00244851
-0.00234335
-0.00201296
-0.00175395
-0.00176981
-0.0020602
-0.00254979
-0.00297657
-0.00309764
-0.00298589
-0.00282993
-0.00271204
-0.0026422
-0.00263539
-0.00266868
-0.00267373
-0.00269973
-0.00284413
-0.00299372
-0.00299522
-0.00293957
-0.00296473
-0.00302289
-0.00307012
-0.00313272
-0.00320147
-0.00326442
-0.00334037
-0.00342437
-0.0035
-0.00357594
-0.00367142
-0.00377939
-0.00385323
-0.00388497
-0.0039193
-0.00398573
-0.00407494
-0.00414363
-0.00422072
-0.0043533
-0.00444784
-0.00452997
-0.00463733
-0.00473764
-0.00481188
-0.00489198
-0.00494044
-0.00495826
-0.00500158
-0.00518516
-0.00544546
-0.00557257
-0.00560121
-0.00564559
-0.00572298
-0.00580984
-0.00591502
-0.00601449
-0.00616
-0.00629208
-0.00640539
-0.00651411
-0.00664476
-0.00678113
-0.00689903
-0.00703453
-0.00716816
-0.00728253
-0.00739453
-0.00750865
-0.00765566
-0.00775749
-0.00789303
-0.00802136
-0.00815705
-0.00827977
-0.00840943
-0.008585
-0.00872924
-0.00890553
-0.00898345
-0.00923258
-0.00912108
-0.00890821
0.00448432
0.00658207
0.00436771
0.000105698
-0.00243439
-0.00270169
-0.0019813
-0.00179279
-0.00223195
-0.00242207
-0.00224624
-0.00214087
-0.00215258
-0.0021812
-0.00230399
-0.00243032
-0.00232887
-0.00200447
-0.00175067
-0.0017686
-0.00205828
-0.00254683
-0.0029733
-0.00309118
-0.00297268
-0.00281403
-0.0027006
-0.00263548
-0.00262871
-0.00266104
-0.00266873
-0.00269753
-0.00284057
-0.002988
-0.00299013
-0.00293584
-0.00296121
-0.00301948
-0.00306732
-0.00313056
-0.00319978
-0.00326302
-0.00333872
-0.0034224
-0.00349828
-0.00357462
-0.00367007
-0.00377789
-0.00385215
-0.0038846
-0.00391894
-0.00398479
-0.00407383
-0.00414282
-0.0042199
-0.00435226
-0.00444686
-0.00452913
-0.00463659
-0.00473706
-0.00481144
-0.00489168
-0.00494025
-0.00495786
-0.0050007
-0.0051843
-0.00544509
-0.00557226
-0.00560073
-0.0056452
-0.00572267
-0.00580946
-0.0059146
-0.0060141
-0.00615965
-0.00629172
-0.00640502
-0.00651377
-0.00664445
-0.00678085
-0.00689876
-0.0070343
-0.00716797
-0.00728233
-0.00739435
-0.00750848
-0.0076555