/*--------------------------------*- C++ -*----------------------------------*\
| =========                 |                                                 |
| \\      /  F ield         | OpenFOAM: The Open Source CFD Toolbox           |
|  \\    /   O peration     | Version:  v1912                                 |
|   \\  /    A nd           | Website:  www.openfoam.com                      |
|    \\/     M anipulation  |                                                 |
\*---------------------------------------------------------------------------*/
FoamFile
{
    version     2.0;
    format      ascii;
    class       surfaceScalarField;
    location    "2.85";
    object      phi;
}
// * * * * * * * * * * * * * * * * * * * * * * * * * * * * * * * * * * * * * //

dimensions      [0 3 -1 0 0 0 0];
oriented        oriented;


internalField   nonuniform List<scalar> 
19000
(
1.14197e-06
-6.20134e-07
1.17302e-06
1.36235e-06
1.19622e-06
-2.34017e-06
1.2772e-06
-9.96614e-07
1.27276e-06
9.68317e-08
1.30995e-06
2.43296e-06
1.30215e-06
5.12618e-07
1.24184e-06
2.74725e-08
1.19199e-06
-1.75468e-06
1.16165e-06
-1.75094e-06
1.17298e-06
-1.66122e-06
1.21987e-06
-9.50764e-07
1.2361e-06
-5.26939e-07
1.24284e-06
-5.09351e-07
1.28887e-06
6.00174e-07
1.23992e-06
-4.45789e-07
1.30073e-06
9.32214e-07
1.22948e-06
1.21346e-07
1.24807e-06
5.02108e-07
2.53281e-07
1.2047e-06
1.20458e-06
-6.00456e-07
1.23497e-06
1.33196e-06
1.2515e-06
-2.3567e-06
1.33505e-06
-1.08016e-06
1.33225e-06
9.96315e-08
1.38687e-06
2.37833e-06
1.37102e-06
5.28469e-07
1.31985e-06
7.86426e-08
1.24423e-06
-1.67906e-06
1.19863e-06
-1.70535e-06
1.2095e-06
-1.67209e-06
1.25944e-06
-1.00071e-06
1.28485e-06
-5.5235e-07
1.30222e-06
-5.26715e-07
1.3438e-06
5.58588e-07
1.31113e-06
-4.1312e-07
1.34775e-06
8.95599e-07
1.3186e-06
1.50492e-07
1.29152e-06
5.29187e-07
2.37185e-07
1.30762e-06
1.27036e-06
-5.88037e-07
1.2887e-06
1.31362e-06
1.28751e-06
-2.35551e-06
1.38137e-06
-1.17402e-06
1.39651e-06
8.44942e-08
1.45904e-06
2.31581e-06
1.44347e-06
5.44034e-07
1.38595e-06
1.36164e-07
1.30007e-06
-1.59318e-06
1.25233e-06
-1.6576e-06
1.2494e-06
-1.66916e-06
1.29426e-06
-1.04558e-06
1.33078e-06
-5.88863e-07
1.3567e-06
-5.52636e-07
1.4065e-06
5.08786e-07
1.38985e-06
-3.96475e-07
1.42202e-06
8.63431e-07
1.4147e-06
1.57812e-07
1.39325e-06
5.50643e-07
2.40858e-07
1.38957e-06
1.33752e-06
-5.8145e-07
1.33988e-06
1.31126e-06
1.31435e-06
-2.32998e-06
1.41617e-06
-1.27584e-06
1.46587e-06
3.4798e-08
1.53418e-06
2.2475e-06
1.51971e-06
5.58501e-07
1.45731e-06
1.98569e-07
1.36628e-06
-1.50216e-06
1.3127e-06
-1.60402e-06
1.29704e-06
-1.6535e-06
1.33248e-06
-1.08102e-06
1.37577e-06
-6.32153e-07
1.4099e-06
-5.86768e-07
1.46591e-06
4.52779e-07
1.46629e-06
-3.96853e-07
1.50089e-06
8.28829e-07
1.50091e-06
1.5779e-07
1.49396e-06
5.57598e-07
2.61059e-07
1.47376e-06
1.4061e-06
-5.79194e-07
1.39205e-06
1.3253e-06
1.34331e-06
-2.28123e-06
1.44628e-06
-1.37881e-06
1.53827e-06
-5.71866e-08
1.61481e-06
2.17095e-06
1.59729e-06
5.76022e-07
1.52944e-06
2.66421e-07
1.43694e-06
-1.40965e-06
1.38043e-06
-1.54752e-06
1.35548e-06
-1.62855e-06
1.38179e-06
-1.10733e-06
1.42606e-06
-6.76428e-07
1.4659e-06
-6.26603e-07
1.52903e-06
3.89646e-07
1.54105e-06
-4.08876e-07
1.58332e-06
7.86563e-07
1.58678e-06
1.54324e-07
1.59018e-06
5.54202e-07
2.89278e-07
1.56196e-06
1.47682e-06
-5.80338e-07
1.45109e-06
1.35103e-06
1.38648e-06
-2.21662e-06
1.48269e-06
-1.47502e-06
1.61108e-06
-1.85571e-07
1.69789e-06
2.08414e-06
1.674e-06
5.99914e-07
1.60265e-06
3.3777e-07
1.51002e-06
-1.31702e-06
1.45321e-06
-1.49071e-06
1.42286e-06
-1.5982e-06
1.44303e-06
-1.1275e-06
1.48589e-06
-7.19291e-07
1.52884e-06
-6.69545e-07
1.59844e-06
3.20036e-07
1.61818e-06
-4.2861e-07
1.66793e-06
7.3681e-07
1.6737e-06
1.48558e-07
1.68494e-06
5.42962e-07
3.2134e-07
1.65288e-06
1.55013e-06
-5.84254e-07
1.52082e-06
1.38035e-06
1.4487e-06
-2.1445e-06
1.53227e-06
-1.5586e-06
1.6832e-06
-3.36501e-07
1.77895e-06
1.98838e-06
1.74793e-06
6.30939e-07
1.67618e-06
4.09517e-07
1.58471e-06
-1.22555e-06
1.52975e-06
-1.43575e-06
1.49674e-06
-1.56519e-06
1.51322e-06
-1.14398e-06
1.55422e-06
-7.60295e-07
1.59935e-06
-7.14671e-07
1.67404e-06
2.45346e-07
1.69917e-06
-4.53743e-07
1.75591e-06
6.80075e-07
1.76305e-06
1.41413e-07
1.78006e-06
5.25956e-07
3.55784e-07
1.74561e-06
1.6261e-06
-5.90221e-07
1.60185e-06
1.40459e-06
1.52783e-06
-2.07049e-06
1.59482e-06
-1.62558e-06
1.75399e-06
-4.95677e-07
1.85514e-06
1.88724e-06
1.8183e-06
6.67781e-07
1.74994e-06
4.77871e-07
1.6613e-06
-1.1369e-06
1.60943e-06
-1.38388e-06
1.575e-06
-1.53075e-06
1.5884e-06
-1.15738e-06
1.62637e-06
-7.98266e-07
1.67417e-06
-7.62467e-07
1.75303e-06
1.66486e-07
1.78249e-06
-4.83203e-07
1.84654e-06
6.16021e-07
1.85407e-06
1.33883e-07
1.87512e-06
5.04912e-07
3.92382e-07
1.83852e-06
1.70471e-06
-5.9736e-07
1.69186e-06
1.41745e-06
1.61858e-06
-1.99721e-06
1.66607e-06
-1.67307e-06
1.82192e-06
-6.51532e-07
1.92502e-06
1.78414e-06
1.88508e-06
7.07719e-07
1.82394e-06
5.39012e-07
1.74008e-06
-1.05304e-06
1.69213e-06
-1.33593e-06
1.65651e-06
-1.49514e-06
1.66573e-06
-1.1666e-06
1.69773e-06
-8.30273e-07
1.74795e-06
-8.12683e-07
1.83004e-06
8.43976e-08
1.86348e-06
-5.16645e-07
1.93619e-06
5.43306e-07
1.94358e-06
1.26493e-07
1.96748e-06
4.81013e-07
4.30623e-07
1.92924e-06
1.78612e-06
-6.04754e-07
1.78706e-06
1.41651e-06
1.71588e-06
-1.92603e-06
1.74235e-06
-1.69954e-06
1.88569e-06
-7.94869e-07
1.98824e-06
1.68159e-06
1.94893e-06
7.47029e-07
1.89823e-06
5.89713e-07
1.82102e-06
-9.75833e-07
1.77765e-06
-1.29257e-06
1.74104e-06
-1.45853e-06
1.74449e-06
-1.17005e-06
1.7669e-06
-8.52674e-07
1.81661e-06
-8.624e-07
1.89941e-06
1.60188e-09
1.93602e-06
-5.53258e-07
2.01856e-06
4.6077e-07
2.02623e-06
1.18824e-07
2.05256e-06
4.54682e-07
4.68844e-07
2.01434e-06
1.87054e-06
-6.11543e-07
1.88402e-06
1.40302e-06
1.81632e-06
-1.85833e-06
1.8227e-06
-1.70592e-06
1.94611e-06
-9.18278e-07
2.04589e-06
1.5818e-06
2.01124e-06
7.81684e-07
1.97318e-06
6.27775e-07
1.90402e-06
-9.06673e-07
1.86571e-06
-1.25426e-06
1.82871e-06
-1.42153e-06
1.82588e-06
-1.16721e-06
1.83656e-06
-8.63357e-07
1.88038e-06
-9.06217e-07
1.95931e-06
-7.73286e-08
1.99636e-06
-5.9031e-07
2.08756e-06
3.69573e-07
2.09643e-06
1.09953e-07
2.12531e-06
4.25799e-07
5.04138e-07
2.09002e-06
1.95825e-06
-6.16957e-07
1.98092e-06
1.38035e-06
1.9181e-06
-1.79551e-06
1.90795e-06
-1.69577e-06
2.00625e-06
-1.01658e-06
2.10086e-06
1.4872e-06
2.07428e-06
8.08263e-07
2.04987e-06
6.52186e-07
1.98944e-06
-8.46246e-07
1.9562e-06
-1.22102e-06
1.91965e-06
-1.38498e-06
1.91153e-06
-1.1591e-06
1.91132e-06
-8.63144e-07
1.94368e-06
-9.38577e-07
2.01362e-06
-1.47265e-07
2.04617e-06
-6.22859e-07
2.14126e-06
2.74477e-07
2.15163e-06
9.95872e-08
2.18292e-06
3.94514e-07
5.33094e-07
2.15396e-06
2.0496e-06
-6.20366e-07
2.07781e-06
1.35214e-06
2.02076e-06
-1.73846e-06
1.99908e-06
-1.67409e-06
2.07007e-06
-1.08756e-06
2.15724e-06
1.40003e-06
2.14084e-06
8.24666e-07
2.12998e-06
6.6305e-07
2.07814e-06
-7.9441e-07
2.04944e-06
-1.19232e-06
2.01391e-06
-1.34944e-06
2.00242e-06
-1.14761e-06
1.99451e-06
-8.55229e-07
2.0122e-06
-9.56264e-07
2.06964e-06
-2.04709e-07
2.09201e-06
-6.45231e-07
2.18366e-06
1.82833e-07
2.19441e-06
8.88366e-08
2.22699e-06
3.61926e-07
5.52959e-07
2.20713e-06
2.14501e-06
-6.21376e-07
2.17603e-06
1.32113e-06
2.12479e-06
-1.68722e-06
2.09626e-06
-1.64557e-06
2.14084e-06
-1.13214e-06
2.21936e-06
1.32152e-06
2.21364e-06
8.30384e-07
2.21532e-06
6.61369e-07
2.17118e-06
-7.50268e-07
2.14609e-06
-1.16723e-06
2.11166e-06
-1.31502e-06
2.09859e-06
-1.13455e-06
2.0868e-06
-8.43437e-07
2.08984e-06
-9.59298e-07
2.13406e-06
-2.48933e-07
2.14206e-06
-6.53234e-07
2.22299e-06
1.01909e-07
2.23191e-06
7.99096e-08
2.26373e-06
3.30108e-07
5.62448e-07
2.25424e-06
2.24499e-06
-6.19878e-07
2.27738e-06
1.28874e-06
2.23111e-06
-1.64095e-06
2.19903e-06
-1.61349e-06
2.22051e-06
-1.15362e-06
2.29063e-06
1.25139e-06
2.29473e-06
8.26284e-07
2.30733e-06
6.48766e-07
2.26945e-06
-7.12391e-07
2.24685e-06
-1.14463e-06
2.21325e-06
-1.28142e-06
2.19965e-06
-1.12095e-06
2.18699e-06
-8.30772e-07
2.17786e-06
-9.50165e-07
2.21052e-06
-2.81596e-07
2.20298e-06
-6.45691e-07
2.26846e-06
3.64247e-08
2.27335e-06
7.50234e-08
2.30202e-06
3.01439e-07
5.61927e-07
2.30254e-06
2.35002e-06
-6.1602e-07
2.38337e-06
1.25539e-06
2.34072e-06
-1.59831e-06
2.30688e-06
-1.57964e-06
2.30978e-06
-1.15653e-06
2.37304e-06
1.18814e-06
2.38521e-06
8.14115e-07
2.40678e-06
6.27196e-07
2.37353e-06
-6.79143e-07
2.35231e-06
-1.12341e-06
2.31918e-06
-1.24829e-06
2.3053e-06
-1.10707e-06
2.29339e-06
-8.18866e-07
2.27557e-06
-9.32348e-07
2.29953e-06
-3.05555e-07
2.27835e-06
-6.24508e-07
2.32723e-06
-1.24525e-08
2.32694e-06
7.53103e-08
2.35061e-06
2.77774e-07
5.53028e-07
2.35951e-06
2.46049e-06
-6.10113e-07
2.49493e-06
1.22094e-06
2.45444e-06
-1.55782e-06
2.4196e-06
-1.5448e-06
2.40863e-06
-1.14556e-06
2.46718e-06
1.12959e-06
2.48533e-06
7.95961e-07
2.51383e-06
5.98693e-07
2.48369e-06
-6.49003e-07
2.46289e-06
-1.1026e-06
2.42997e-06
-1.21537e-06
2.41556e-06
-1.09266e-06
2.40487e-06
-8.08168e-07
2.3816e-06
-9.09087e-07
2.39972e-06
-3.23674e-07
2.36874e-06
-5.93528e-07
2.40284e-06
-4.65542e-08
2.3978e-06
8.03527e-08
2.41574e-06
2.59837e-07
5.37974e-07
2.43079e-06
2.57669e-06
-6.02509e-07
2.61248e-06
1.18515e-06
2.57288e-06
-1.51822e-06
2.53734e-06
-1.50926e-06
2.51658e-06
-1.1248e-06
2.57253e-06
1.07364e-06
2.59471e-06
7.73783e-07
2.62826e-06
5.6514e-07
2.60005e-06
-6.2079e-07
2.57887e-06
-1.08142e-06
2.54607e-06
-1.18257e-06
2.53076e-06
-1.07735e-06
2.52107e-06
-7.98475e-07
2.49476e-06
-8.82781e-07
2.50916e-06
-3.38074e-07
2.47265e-06
-5.5701e-07
2.49536e-06
-6.92674e-08
2.48719e-06
8.85264e-08
2.49988e-06
2.47145e-07
5.18906e-07
2.51895e-06
2.69884e-06
-5.93516e-07
2.73617e-06
1.14782e-06
2.6965e-06
-1.47854e-06
2.66044e-06
-1.4732e-06
2.63296e-06
-1.09733e-06
2.68802e-06
1.01859e-06
2.71269e-06
7.49109e-07
2.74973e-06
5.28108e-07
2.72269e-06
-5.93749e-07
2.70052e-06
-1.05926e-06
2.66784e-06
-1.14988e-06
2.65132e-06
-1.06084e-06
2.64226e-06
-7.8941e-07
2.61443e-06
-8.54957e-07
2.62635e-06
-3.4999e-07
2.58784e-06
-5.18499e-07
2.60262e-06
-8.4047e-08
2.59335e-06
9.77914e-08
2.60207e-06
2.38428e-07
4.97465e-07
2.62351e-06
2.82711e-06
-5.83361e-07
2.86609e-06
1.10883e-06
2.82571e-06
-1.43816e-06
2.78925e-06
-1.43674e-06
2.75715e-06
-1.06522e-06
2.8125e-06
9.63239e-07
2.83867e-06
7.22931e-07
2.87796e-06
4.88823e-07
2.85172e-06
-5.67506e-07
2.82814e-06
-1.03569e-06
2.7956e-06
-1.11734e-06
2.77767e-06
-1.04291e-06
2.76894e-06
-7.80683e-07
2.74051e-06
-8.26525e-07
2.75049e-06
-3.59972e-07
2.7124e-06
-4.80412e-07
2.72189e-06
-9.35303e-08
2.71325e-06
1.06425e-07
2.71942e-06
2.32259e-07
4.74723e-07
2.74216e-06
2.96171e-06
-5.72178e-07
3.0024e-06
1.06815e-06
2.9609e-06
-1.39667e-06
2.92414e-06
-1.39998e-06
2.8887e-06
-1.02979e-06
2.94507e-06
9.06872e-07
2.97223e-06
6.95771e-07
3.01282e-06
4.48236e-07
2.98729e-06
-5.41978e-07
2.96207e-06
-1.01046e-06
2.9297e-06
-1.08497e-06
2.91017e-06
-1.02338e-06
2.90162e-06
-7.72132e-07
2.87315e-06
-7.98047e-07
2.88136e-06
-3.68187e-07
2.84513e-06
-4.44179e-07
2.85095e-06
-9.93573e-08
2.84402e-06
1.13361e-07
2.84879e-06
2.2749e-07
4.51355e-07
2.87216e-06
3.10286e-06
-5.60028e-07
3.14529e-06
1.02572e-06
3.10244e-06
-1.35382e-06
3.06547e-06
-1.363e-06
3.0275e-06
-9.91816e-07
3.08524e-06
8.49125e-07
3.11316e-06
6.67855e-07
3.15428e-06
4.07116e-07
3.12957e-06
-5.17266e-07
3.10265e-06
-9.8355e-07
3.07048e-06
-1.0528e-06
3.04923e-06
-1.00213e-06
3.04074e-06
-7.63644e-07
3.0126e-06
-7.69908e-07
3.01906e-06
-3.74645e-07
2.98543e-06
-4.10556e-07
2.98853e-06
-1.02454e-07
2.98374e-06
1.1815e-07
2.98786e-06
2.23374e-07
4.27808e-07
3.01141e-06
3.2508e-06
-5.46915e-07
3.29502e-06
9.81496e-07
3.2507e-06
-1.3095e-06
3.21362e-06
-1.32592e-06
3.17363e-06
-9.51825e-07
3.2328e-06
7.89949e-07
3.2614e-06
6.39261e-07
3.3024e-06
3.66114e-07
3.27872e-06
-4.93583e-07
3.25025e-06
-9.55088e-07
3.21829e-06
-1.02083e-06
3.19523e-06
-9.79071e-07
3.18663e-06
-7.55043e-07
3.15911e-06
-7.42387e-07
3.16375e-06
-3.79289e-07
3.1331e-06
-3.79908e-07
3.13406e-06
-1.0341e-07
3.13144e-06
1.20769e-07
3.13538e-06
2.19437e-07
4.04404e-07
3.15878e-06
3.40582e-06
-5.32802e-07
3.45183e-06
9.35485e-07
3.406e-06
-1.26367e-06
3.36898e-06
-1.28891e-06
3.32735e-06
-9.10198e-07
3.38772e-06
7.29588e-07
3.41697e-06
6.1001e-07
3.4573e-06
3.25779e-07
3.43492e-06
-4.71202e-07
3.4052e-06
-9.25366e-07
3.37349e-06
-9.89119e-07
3.34861e-06
-9.54201e-07
3.33961e-06
-7.46034e-07
3.31286e-06
-7.15645e-07
3.31562e-06
-3.82047e-07
3.28808e-06
-3.52367e-07
3.28739e-06
-1.02719e-07
3.28679e-06
1.21373e-07
3.29084e-06
2.15383e-07
3.81317e-07
3.31393e-06
3.56826e-06
-5.17646e-07
3.61596e-06
8.87777e-07
3.56865e-06
-1.21636e-06
3.53193e-06
-1.25218e-06
3.48902e-06
-8.67287e-07
3.55007e-06
6.68531e-07
3.57998e-06
5.80097e-07
3.61921e-06
2.86556e-07
3.5984e-06
-4.50398e-07
3.5678e-06
-8.9476e-07
3.53641e-06
-9.57731e-07
3.50981e-06
-9.27601e-07
3.49999e-06
-7.36211e-07
3.47408e-06
-6.89738e-07
3.47486e-06
-3.82827e-07
3.45041e-06
-3.27913e-07
3.44851e-06
-1.00824e-07
3.44977e-06
1.20113e-07
3.45415e-06
2.11002e-07
3.58624e-07
3.47685e-06
3.73848e-06
-5.01425e-07
3.78769e-06
8.38574e-07
3.73896e-06
-1.16763e-06
3.7028e-06
-1.21602e-06
3.65899e-06
-8.2347e-07
3.72008e-06
6.0744e-07
3.75068e-06
5.49498e-07
3.78844e-06
2.48793e-07
3.76943e-06
-4.31386e-07
3.73835e-06
-8.63686e-07
3.70736e-06
-9.26741e-07
3.6792e-06
-8.99443e-07
3.66814e-06
-7.25149e-07
3.64301e-06
-6.6461e-07
3.64174e-06
-3.81557e-07
3.62019e-06
-3.0636e-07
3.61755e-06
-9.81832e-08
3.62051e-06
1.17151e-07
3.62543e-06
2.06081e-07
3.36382e-07
3.64767e-06
3.91693e-06
-4.84162e-07
3.96733e-06
7.88172e-07
3.91725e-06
-1.11756e-06
3.88194e-06
-1.1807e-06
3.83766e-06
-7.79192e-07
3.89805e-06
5.47052e-07
3.92938e-06
5.18161e-07
3.96542e-06
2.12756e-07
3.9483e-06
-4.14269e-07
3.91715e-06
-8.32536e-07
3.88663e-06
-8.96215e-07
3.85717e-06
-8.69981e-07
3.84449e-06
-7.12475e-07
3.82004e-06
-6.40159e-07
3.81668e-06
-3.78195e-07
3.79772e-06
-2.87401e-07
3.79473e-06
-9.51965e-08
3.79923e-06
1.12658e-07
3.80489e-06
2.00413e-07
3.14651e-07
3.82663e-06
4.10402e-06
-4.65935e-07
4.15528e-06
7.36911e-07
4.10392e-06
-1.06619e-06
4.06965e-06
-1.14644e-06
4.02543e-06
-7.34966e-07
4.0844e-06
4.88078e-07
4.11656e-06
4.85999e-07
4.15066e-06
1.78655e-07
4.1354e-06
-3.99003e-07
4.1045e-06
-8.01639e-07
4.07447e-06
-8.66184e-07
4.04404e-06
-8.39554e-07
4.02951e-06
-6.9794e-07
4.00561e-06
-6.1626e-07
4.0002e-06
-3.72783e-07
3.98343e-06
-2.70637e-07
3.98039e-06
-9.21558e-08
3.98625e-06
1.06796e-07
3.99281e-06
1.93858e-07
2.93488e-07
4.01397e-06
4.30023e-06
-4.46859e-07
4.35203e-06
6.85112e-07
4.29942e-06
-1.01358e-06
4.26629e-06
-1.11331e-06
4.22266e-06
-6.91343e-07
4.2796e-06
4.31145e-07
4.3127e-06
4.52892e-07
4.34471e-06
1.46652e-07
4.33113e-06
-3.85425e-07
4.30071e-06
-7.71222e-07
4.27118e-06
-8.36652e-07
4.24014e-06
-8.08518e-07
4.22367e-06
-6.81468e-07
4.20022e-06
-5.92813e-07
4.19291e-06
-3.6547e-07
4.17788e-06
-2.55607e-07
4.17497e-06
-8.92432e-08
4.18201e-06
9.97493e-08
4.18956e-06
1.86308e-07
2.73075e-07
4.20998e-06
4.50598e-06
-4.27065e-07
4.55806e-06
6.33034e-07
4.50429e-06
-9.59819e-07
4.47222e-06
-1.08123e-06
4.42973e-06
-6.48859e-07
4.48411e-06
3.76771e-07
4.51831e-06
4.1869e-07
4.54811e-06
1.16852e-07
4.53597e-06
-3.73287e-07
4.50617e-06
-7.41416e-07
4.47709e-06
-8.07572e-07
4.44578e-06
-7.77206e-07
4.42746e-06
-6.63157e-07
4.40442e-06
-5.69765e-07
4.3954e-06
-3.56455e-07
4.38168e-06
-2.41886e-07
4.379e-06
-8.65631e-08
4.38702e-06
9.17272e-08
4.39555e-06
1.77785e-07
2.53481e-07
4.41514e-06
4.72172e-06
-4.0667e-07
4.77389e-06
5.80863e-07
4.71913e-06
-9.05061e-07
4.68787e-06
-1.04997e-06
4.647e-06
-6.07985e-07
4.69838e-06
3.25385e-07
4.73381e-06
3.83266e-07
4.76142e-06
8.92447e-08
4.75044e-06
-3.62312e-07
4.7213e-06
-7.1228e-07
4.6926e-06
-7.78866e-07
4.66127e-06
-7.45878e-07
4.64136e-06
-6.43249e-07
4.6187e-06
-5.47097e-07
4.60823e-06
-3.45988e-07
4.59546e-06
-2.29112e-07
4.59305e-06
-8.41607e-08
4.60179e-06
8.2986e-08
4.61128e-06
1.68302e-07
2.34826e-07
4.62993e-06
4.94789e-06
-3.85766e-07
5.00002e-06
5.28734e-07
4.94454e-06
-8.49583e-07
4.91373e-06
-1.01916e-06
4.87484e-06
-5.69095e-07
4.92286e-06
2.77362e-07
4.95957e-06
3.46562e-07
4.98515e-06
6.36647e-08
4.97506e-06
-3.52222e-07
4.9466e-06
-6.83822e-07
4.9182e-06
-7.50463e-07
4.88701e-06
-7.14689e-07
4.86579e-06
-6.22028e-07
4.84353e-06
-5.2484e-07
4.83193e-06
-3.34394e-07
4.81978e-06
-2.16962e-07
4.81766e-06
-8.20347e-08
4.82689e-06
7.37506e-08
4.83729e-06
1.57908e-07
2.17143e-07
4.85497e-06
5.18497e-06
-3.64422e-07
5.23693e-06
4.76779e-07
5.18114e-06
-7.93795e-07
5.15031e-06
-9.88331e-07
5.11368e-06
-5.32466e-07
5.15815e-06
2.32896e-07
5.196e-06
3.08707e-07
5.21981e-06
3.98601e-08
5.21036e-06
-3.42771e-07
5.18255e-06
-6.56014e-07
5.15443e-06
-7.22344e-07
5.12345e-06
-6.8371e-07
5.10115e-06
-5.99723e-07
5.07939e-06
-5.03087e-07
5.06701e-06
-3.22015e-07
5.05532e-06
-2.05264e-07
5.05335e-06
-8.00729e-08
5.06289e-06
6.42127e-08
5.07409e-06
1.46709e-07
2.00338e-07
5.0909e-06
5.43346e-06
-3.42696e-07
5.48508e-06
4.25166e-07
5.42952e-06
-7.38243e-07
5.39818e-06
-9.56989e-07
5.36401e-06
-4.98296e-07
5.40493e-06
1.91979e-07
5.44358e-06
2.70052e-07
5.46591e-06
1.75385e-08
5.45689e-06
-3.33757e-07
5.42969e-06
-6.28812e-07
5.40187e-06
-6.94525e-07
5.37119e-06
-6.53034e-07
5.34792e-06
-5.76444e-07
5.32683e-06
-4.82005e-07
5.314e-06
-3.09187e-07
5.30264e-06
-1.93898e-07
5.30072e-06
-7.81506e-08
5.3104e-06
5.45282e-08
5.3223e-06
1.34811e-07
1.84316e-07
5.33832e-06
5.69392e-06
-3.20662e-07
5.74496e-06
3.74125e-07
5.69033e-06
-6.83609e-07
5.65794e-06
-9.24595e-07
5.62636e-06
-4.66716e-07
5.66384e-06
1.54499e-07
5.70283e-06
2.3106e-07
5.72395e-06
-3.581e-09
5.71521e-06
-3.25017e-07
5.68858e-06
-6.02185e-07
5.6611e-06
-6.67046e-07
5.63084e-06
-6.22771e-07
5.60672e-06
-5.52329e-07
5.58632e-06
-4.61595e-07
5.57345e-06
-2.96325e-07
5.56234e-06
-1.8279e-07
5.56034e-06
-7.61434e-08
5.57001e-06
4.48512e-08
5.58245e-06
1.22371e-07
1.68888e-07
5.59788e-06
5.96695e-06
-2.98419e-07
6.01711e-06
3.2396e-07
5.96421e-06
-6.30705e-07
5.93021e-06
-8.90595e-07
5.90127e-06
-4.37773e-07
5.93548e-06
1.20283e-07
5.9743e-06
1.92243e-07
5.99447e-06
-2.37472e-08
5.9859e-06
-3.16448e-07
5.95981e-06
-5.76099e-07
5.93272e-06
-6.39957e-07
5.90305e-06
-5.93096e-07
5.87821e-06
-5.27487e-07
5.8584e-06
-4.41786e-07
5.8459e-06
-2.83831e-07
5.83506e-06
-1.7195e-07
5.83285e-06
-7.39266e-08
5.8423e-06
3.54016e-08
5.85513e-06
1.0954e-07
1.53771e-07
5.87024e-06
6.25317e-06
-2.76095e-07
6.3021e-06
2.75028e-07
6.25176e-06
-5.80363e-07
6.21567e-06
-8.54505e-07
6.18933e-06
-4.11433e-07
6.22048e-06
8.91275e-08
6.25863e-06
1.54097e-07
6.27803e-06
-4.31464e-08
6.26958e-06
-3.07998e-07
6.24399e-06
-5.50514e-07
6.21733e-06
-6.13297e-07
6.18848e-06
-5.64245e-07
6.16302e-06
-5.02032e-07
6.14366e-06
-4.22424e-07
6.13186e-06
-2.72028e-07
6.12149e-06
-1.61577e-07
6.11889e-06
-7.13321e-08
6.1279e-06
2.63962e-08
6.14099e-06
9.64479e-08
1.38947e-07
6.15581e-06
6.55323e-06
-2.53854e-07
6.60052e-06
2.2774e-07
6.55349e-06
-5.3334e-07
6.515e-06
-8.16011e-07
6.49112e-06
-3.87552e-07
6.51945e-06
6.07967e-08
6.55646e-06
1.17091e-07
6.57522e-06
-6.19159e-08
6.56689e-06
-2.99668e-07
6.54178e-06
-5.25397e-07
6.51556e-06
-5.87083e-07
6.48775e-06
-5.36435e-07
6.4619e-06
-4.76176e-07
6.44277e-06
-4.03298e-07
6.43186e-06
-2.6112e-07
6.42222e-06
-1.51933e-07
6.41913e-06
-6.82438e-08
6.42754e-06
1.79849e-08
6.44069e-06
8.33051e-08
1.24453e-07
6.45518e-06
6.86782e-06
-2.31882e-07
6.91302e-06
1.82539e-07
6.86985e-06
-4.90171e-07
6.82893e-06
-7.75095e-07
6.80728e-06
-3.65899e-07
6.83304e-06
3.50406e-08
6.86848e-06
8.16468e-08
6.88671e-06
-8.01426e-08
6.87852e-06
-2.91483e-07
6.85387e-06
-5.00745e-07
6.8281e-06
-5.61306e-07
6.80149e-06
-5.09828e-07
6.77553e-06
-4.50219e-07
6.75643e-06
-3.84193e-07
6.74654e-06
-2.51231e-07
6.73782e-06
-1.43215e-07
6.73432e-06
-6.47406e-08
6.7419e-06
1.04016e-08
6.75475e-06
7.04502e-08
1.10131e-07
6.76908e-06
7.19763e-06
-2.10373e-07
7.24028e-06
1.39884e-07
7.20114e-06
-4.51031e-07
7.1582e-06
-7.32151e-07
7.13851e-06
-3.46208e-07
7.16192e-06
1.16283e-08
7.19546e-06
4.81044e-08
7.21316e-06
-9.78379e-08
7.20518e-06
-2.83505e-07
7.18099e-06
-4.76554e-07
7.15563e-06
-5.35947e-07
7.13032e-06
-4.84523e-07
7.10464e-06
-4.24533e-07
7.08546e-06
-3.65012e-07
7.07644e-06
-2.42212e-07
7.06884e-06
-1.35617e-07
7.06504e-06
-6.09445e-08
7.07167e-06
3.77633e-09
7.08407e-06
5.80513e-08
9.61814e-08
7.09802e-06
7.54339e-06
-1.89534e-07
7.583e-06
1.00273e-07
7.54765e-06
-4.15682e-07
7.50356e-06
-6.88059e-07
7.48552e-06
-3.2817e-07
7.5068e-06
-9.64961e-09
7.53815e-06
1.67564e-08
7.55528e-06
-1.14968e-07
7.54759e-06
-2.7582e-07
7.5239e-06
-4.52858e-07
7.49891e-06
-5.10962e-07
7.47492e-06
-4.60535e-07
7.44989e-06
-3.99498e-07
7.43073e-06
-3.45857e-07
7.42239e-06
-2.33869e-07
7.41619e-06
-1.29417e-07
7.41201e-06
-5.67656e-08
7.41735e-06
-1.56413e-09
7.42912e-06
4.62801e-08
8.24793e-08
7.44282e-06
7.90584e-06
-1.69564e-07
7.9419e-06
6.42184e-08
7.91017e-06
-3.83953e-07
7.86578e-06
-6.43675e-07
7.84908e-06
-3.11469e-07
7.8684e-06
-2.89692e-08
7.89733e-06
-1.21696e-08
7.91382e-06
-1.31463e-07
7.90653e-06
-2.68532e-07
7.88336e-06
-4.29689e-07
7.85873e-06
-4.86332e-07
7.83603e-06
-4.37835e-07
7.81196e-06
-3.7542e-07
7.79293e-06
-3.26833e-07
7.78534e-06
-2.26281e-07
7.78099e-06
-1.25061e-07
7.77659e-06
-5.23652e-08
7.77937e-06
-4.34609e-09
7.78964e-06
3.60109e-08
6.82375e-08
7.80388e-06
8.28578e-06
-1.50668e-07
8.3177e-06
3.22988e-08
8.28954e-06
-3.55791e-07
8.24569e-06
-5.99823e-07
8.23003e-06
-2.9581e-07
8.24747e-06
-4.64105e-08
8.27385e-06
-3.85449e-08
8.28957e-06
-1.47183e-07
8.28279e-06
-2.61757e-07
8.26021e-06
-4.07106e-07
8.23591e-06
-4.62036e-07
8.21439e-06
-4.16315e-07
8.19161e-06
-3.52633e-07
8.17275e-06
-3.0798e-07
8.16562e-06
-2.19146e-07
8.16459e-06
-1.24033e-07
8.16357e-06
-5.1349e-08
8.16713e-06
-7.89852e-09
8.17684e-06
2.62971e-08
5.50301e-08
8.19005e-06
8.68402e-06
-1.33025e-07
8.7112e-06
5.12035e-09
8.68667e-06
-3.31263e-07
8.64408e-06
-5.57237e-07
8.62922e-06
-2.80947e-07
8.64483e-06
-6.20241e-08
8.66856e-06
-6.22744e-08
8.68335e-06
-1.61973e-07
8.67718e-06
-2.55587e-07
8.65529e-06
-3.85209e-07
8.63133e-06
-4.38083e-07
8.61091e-06
-3.9589e-07
8.58953e-06
-3.31255e-07
8.57109e-06
-2.89544e-07
8.56404e-06
-2.1209e-07
8.56526e-06
-1.25255e-07
8.56917e-06
-5.52629e-08
8.57629e-06
-1.50192e-08
8.58679e-06
1.58033e-08
4.59026e-08
8.59592e-06
9.10139e-06
-1.16797e-07
9.12316e-06
-1.66531e-08
9.10239e-06
-3.10486e-07
9.06184e-06
-5.16689e-07
9.04753e-06
-2.66637e-07
9.06136e-06
-7.58511e-08
9.08236e-06
-8.32747e-08
9.09609e-06
-1.75708e-07
9.09053e-06
-2.50019e-07
9.0695e-06
-3.64186e-07
9.04585e-06
-4.14428e-07
9.02646e-06
-3.76505e-07
9.00662e-06
-3.11416e-07
8.98885e-06
-2.71771e-07
8.98154e-06
-2.04781e-07
8.98235e-06
-1.26064e-07
8.98393e-06
-5.68388e-08
8.9858e-06
-1.68882e-08
8.99226e-06
9.33994e-09
3.47901e-08
9.00337e-06
9.53876e-06
-1.02099e-07
9.555e-06
-3.28931e-08
9.53767e-06
-2.93157e-07
9.49974e-06
-4.7876e-07
9.48586e-06
-2.52759e-07
9.49796e-06
-8.79419e-08
9.51616e-06
-1.01476e-07
9.52871e-06
-1.88264e-07
9.5237e-06
-2.45003e-07
9.5037e-06
-3.44189e-07
9.48045e-06
-3.9118e-07
9.46193e-06
-3.57984e-07
9.44365e-06
-2.93137e-07
9.4265e-06
-2.54617e-07
9.41809e-06
-1.96376e-07
9.41765e-06
-1.2562e-07
9.41869e-06
-5.78844e-08
9.41981e-06
-1.80025e-08
9.42502e-06
4.12531e-09
2.52188e-08
9.43459e-06
9.99704e-06
-8.90055e-08
1.00083e-05
-4.41502e-08
9.99347e-06
-2.78326e-07
9.95866e-06
-4.43957e-07
9.94522e-06
-2.39312e-07
9.95551e-06
-9.82339e-08
9.97096e-06
-1.16927e-07
9.98212e-06
-1.99428e-07
9.97765e-06
-2.40528e-07
9.95874e-06
-3.2528e-07
9.936e-06
-3.68437e-07
9.91823e-06
-3.40221e-07
9.90135e-06
-2.76248e-07
9.88465e-06
-2.37917e-07
9.87525e-06
-1.86977e-07
9.87427e-06
-1.2464e-07
9.87659e-06
-6.02121e-08
9.87842e-06
-1.98301e-08
9.88288e-06
-3.33175e-10
1.75383e-08
9.89056e-06
1.04772e-05
-7.75176e-08
1.04842e-05
-5.12294e-08
1.04708e-05
-2.64914e-07
1.04395e-05
-4.12589e-07
1.04266e-05
-2.26428e-07
1.0435e-05
-1.06659e-07
1.04477e-05
-1.29666e-07
1.04573e-05
-2.09038e-07
1.04533e-05
-2.36529e-07
1.04356e-05
-3.07495e-07
1.04134e-05
-3.46248e-07
1.03962e-05
-3.23049e-07
1.03804e-05
-2.60471e-07
1.03644e-05
-2.21913e-07
1.03546e-05
-1.77157e-07
1.03534e-05
-1.23414e-07
1.03567e-05
-6.35352e-08
1.03589e-05
-2.20662e-08
1.03621e-05
-3.53328e-09
1.05584e-08
1.03691e-05
1.09801e-05
-6.75739e-08
1.09839e-05
-5.50997e-08
1.09708e-05
-2.5179e-07
1.0943e-05
-3.84746e-07
1.0931e-05
-2.1445e-07
1.09375e-05
-1.1319e-07
1.09475e-05
-1.39651e-07
1.09553e-05
-2.16864e-07
1.09518e-05
-2.32995e-07
1.09351e-05
-2.90776e-07
1.09135e-05
-3.24618e-07
1.08966e-05
-3.06237e-07
1.08819e-05
-2.45724e-07
1.08671e-05
-2.07154e-07
1.08573e-05
-1.67317e-07
1.08554e-05
-1.21498e-07
1.08589e-05
-6.70449e-08
1.08621e-05
-2.52375e-08
1.08644e-05
-5.88506e-09
4.22469e-09
1.08708e-05
1.15068e-05
-5.90403e-08
1.15084e-05
-5.6648e-08
1.14948e-05
-2.38171e-07
1.14702e-05
-3.60226e-07
1.14596e-05
-2.03764e-07
1.14642e-05
-1.17867e-07
1.14714e-05
-1.46861e-07
1.14773e-05
-2.2271e-07
1.14741e-05
-2.29791e-07
1.14585e-05
-2.75152e-07
1.14374e-05
-3.03563e-07
1.14207e-05
-2.89543e-07
1.14071e-05
-2.32111e-07
1.13938e-05
-1.93834e-07
1.13841e-05
-1.57644e-07
1.13813e-05
-1.18669e-07
1.13843e-05
-7.01156e-08
1.13887e-05
-2.96275e-08
1.13911e-05
-8.20234e-09
-7.28526e-10
1.1396e-05
1.20585e-05
-5.17353e-08
1.20585e-05
-5.65876e-08
1.20439e-05
-2.23656e-07
1.20223e-05
-3.38584e-07
1.20133e-05
-1.94741e-07
1.20163e-05
-1.20903e-07
1.20208e-05
-1.51391e-07
1.20245e-05
-2.26322e-07
1.20213e-05
-2.26662e-07
1.20069e-05
-2.60749e-07
1.19864e-05
-2.83082e-07
1.19698e-05
-2.72911e-07
1.19573e-05
-2.1958e-07
1.19455e-05
-1.82018e-07
1.19361e-05
-1.4829e-07
1.19326e-05
-1.15118e-07
1.19347e-05
-7.22997e-08
1.19398e-05
-3.47037e-08
1.19431e-05
-1.14916e-08
-4.19722e-09
1.19466e-05
1.26363e-05
-4.5432e-08
1.26352e-05
-5.55286e-08
1.26197e-05
-2.08139e-07
1.26003e-05
-3.19204e-07
1.25932e-05
-1.87608e-07
1.2595e-05
-1.22708e-07
1.25969e-05
-1.53306e-07
1.25982e-05
-2.27594e-07
1.25949e-05
-2.23384e-07
1.25817e-05
-2.47512e-07
1.2562e-05
-2.63359e-07
1.25455e-05
-2.56406e-07
1.25337e-05
-2.07876e-07
1.25234e-05
-1.71698e-07
1.25146e-05
-1.39449e-07
1.25105e-05
-1.11021e-07
1.25119e-05
-7.36939e-08
1.25168e-05
-3.96381e-08
1.25213e-05
-1.59766e-08
-7.07908e-09
1.25242e-05
1.32414e-05
-3.98856e-08
1.32399e-05
-5.40008e-08
1.32234e-05
-1.91684e-07
1.32056e-05
-3.01388e-07
1.32004e-05
-1.82438e-07
1.32016e-05
-1.23882e-07
1.32009e-05
-1.52652e-07
1.32e-05
-2.26652e-07
1.31963e-05
-2.1968e-07
1.31841e-05
-2.35337e-07
1.31654e-05
-2.44632e-07
1.31492e-05
-2.40179e-07
1.3138e-05
-1.96719e-07
1.3129e-05
-1.62678e-07
1.3121e-05
-1.31456e-07
1.31166e-05
-1.06662e-07
1.31173e-05
-7.43844e-08
1.31216e-05
-4.39576e-08
1.31266e-05
-2.09308e-08
-1.03956e-08
1.31299e-05
1.38751e-05
-3.48675e-08
1.38735e-05
-5.23796e-08
1.38565e-05
-1.74609e-07
1.38394e-05
-2.84353e-07
1.3836e-05
-1.79054e-07
1.38372e-05
-1.251e-07
1.38343e-05
-1.4966e-07
1.38311e-05
-2.23516e-07
1.3827e-05
-2.1554e-07
1.38159e-05
-2.24215e-07
1.37982e-05
-2.26956e-07
1.37824e-05
-2.24351e-07
1.37716e-05
-1.85917e-07
1.37636e-05
-1.54717e-07
1.37567e-05
-1.24543e-07
1.37523e-05
-1.02274e-07
1.37522e-05
-7.43083e-08
1.37558e-05
-4.75786e-08
1.37606e-05
-2.56947e-08
-1.42496e-08
1.37645e-05
1.4539e-05
-3.01877e-08
1.45375e-05
-5.08751e-08
1.45203e-05
-1.5743e-07
1.45032e-05
-2.67276e-07
1.45013e-05
-1.77118e-07
1.45031e-05
-1.26916e-07
1.44982e-05
-1.4479e-07
1.44929e-05
-2.18146e-07
1.44883e-05
-2.10943e-07
1.44784e-05
-2.14357e-07
1.44619e-05
-2.10455e-07
1.44465e-05
-2.08892e-07
1.44358e-05
-1.75296e-07
1.44286e-05
-1.47495e-07
1.44227e-05
-1.18653e-07
1.44187e-05
-9.82091e-08
1.44179e-05
-7.35171e-08
1.44207e-05
-5.04615e-08
1.44251e-05
-3.00296e-08
-1.81975e-08
1.4429e-05
1.52344e-05
-2.57144e-08
1.52331e-05
-4.95312e-08
1.52163e-05
-1.40674e-07
1.51986e-05
-2.49581e-07
1.51975e-05
-1.76045e-07
1.52002e-05
-1.29597e-07
1.51941e-05
-1.38712e-07
1.51867e-05
-2.10667e-07
1.51814e-05
-2.05686e-07
1.51729e-05
-2.05859e-07
1.51579e-05
-1.95476e-07
1.5143e-05
-1.93956e-07
1.51323e-05
-1.64581e-07
1.51255e-05
-1.4074e-07
1.51204e-05
-1.13537e-07
1.51169e-05
-9.46802e-08
1.51157e-05
-7.23589e-08
1.51177e-05
-5.24485e-08
1.51215e-05
-3.38356e-08
-2.19558e-08
1.51253e-05
1.5963e-05
-2.13796e-08
1.59617e-05
-4.82702e-08
1.59458e-05
-1.24783e-07
1.59272e-05
-2.30945e-07
1.59261e-05
-1.74971e-07
1.59297e-05
-1.3312e-07
1.59232e-05
-1.32266e-07
1.59141e-05
-2.01522e-07
1.59078e-05
-1.99441e-07
1.59006e-05
-1.986e-07
1.58875e-05
-1.82411e-07
1.58733e-05
-1.79801e-07
1.58625e-05
-1.53753e-07
1.58558e-05
-1.34047e-07
1.58513e-05
-1.08986e-07
1.58483e-05
-9.16608e-08
1.58471e-05
-7.11659e-08
1.58482e-05
-5.36372e-08
1.58514e-05
-3.69454e-08
-2.54559e-08
1.58549e-05
1.67264e-05
-1.71775e-08
1.6725e-05
-4.68907e-08
1.67104e-05
-1.10124e-07
1.66908e-05
-2.11409e-07
1.66888e-05
-1.7293e-07
1.66929e-05
-1.37205e-07
1.66868e-05
-1.26201e-07
1.66766e-05
-1.9131e-07
1.66692e-05
-1.92051e-07
1.66627e-05
-1.92126e-07
1.66519e-05
-1.71557e-07
1.66389e-05
-1.66806e-07
1.66281e-05
-1.4297e-07
1.66211e-05
-1.27098e-07
1.66169e-05
-1.04748e-07
1.66143e-05
-8.90359e-08
1.66132e-05
-7.01127e-08
1.66139e-05
-5.43146e-08
1.66163e-05
-3.92907e-08
-2.85579e-08
1.66194e-05
1.75263e-05
-1.31463e-08
1.75245e-05
-4.50883e-08
1.75114e-05
-9.70088e-08
1.74915e-05
-1.91487e-07
1.74876e-05
-1.69026e-07
1.7492e-05
-1.41598e-07
1.74867e-05
-1.20968e-07
1.74759e-05
-1.80432e-07
1.74673e-05
-1.83511e-07
1.74611e-05
-1.85923e-07
1.74523e-05
-1.62687e-07
1.74411e-05
-1.55649e-07
1.74305e-05
-1.32372e-07
1.74233e-05
-1.19913e-07
1.7419e-05
-1.00457e-07
1.74167e-05
-8.66845e-08
1.74158e-05
-6.91975e-08
1.74162e-05
-5.4711e-08
1.74179e-05
-4.10192e-08
-3.10952e-08
1.74204e-05
1.83646e-05
-9.3506e-09
1.83621e-05
-4.25951e-08
1.83506e-05
-8.55266e-08
1.8331e-05
-1.71945e-07
1.83244e-05
-1.62374e-07
1.83288e-05
-1.46064e-07
1.83248e-05
-1.16962e-07