/*--------------------------------*- C++ -*----------------------------------*\
| =========                 |                                                 |
| \\      /  F ield         | OpenFOAM: The Open Source CFD Toolbox           |
|  \\    /   O peration     | Version:  v1912                                 |
|   \\  /    A nd           | Website:  www.openfoam.com                      |
|    \\/     M anipulation  |                                                 |
\*---------------------------------------------------------------------------*/
FoamFile
{
    version     2.0;
    format      ascii;
    class       surfaceScalarField;
    location    "0.3";
    object      phi;
}
// * * * * * * * * * * * * * * * * * * * * * * * * * * * * * * * * * * * * * //

dimensions      [0 3 -1 0 0 0 0];
oriented        oriented;


internalField   nonuniform List<scalar> 
19000
(
1.16646e-06
-2.29244e-07
1.17117e-06
1.63e-07
1.17212e-06
1.06431e-08
1.16633e-06
-6.25579e-07
1.21654e-06
2.44516e-07
1.13174e-06
1.84765e-07
1.15875e-06
-1.98869e-08
1.196e-06
3.51269e-07
1.18442e-06
-5.18651e-07
1.20814e-06
-2.16582e-08
1.19283e-06
-1.15097e-09
1.17209e-06
6.12204e-07
1.1816e-06
-4.12914e-08
1.18341e-06
1.21075e-07
1.19123e-06
-1.93726e-07
1.1844e-06
-4.4337e-08
1.19855e-06
-2.20056e-07
1.19429e-06
-6.32019e-08
1.19756e-06
-8.04876e-08
2.57151e-08
1.17489e-06
1.22269e-06
-2.27669e-07
1.22907e-06
1.56611e-07
1.22808e-06
1.1641e-08
1.22213e-06
-6.1963e-07
1.27093e-06
1.95711e-07
1.19273e-06
2.62969e-07
1.21572e-06
-4.28801e-08
1.25957e-06
3.07423e-07
1.24836e-06
-5.07445e-07
1.27019e-06
-4.3485e-08
1.25173e-06
1.73033e-08
1.24226e-06
6.21682e-07
1.24028e-06
-3.93143e-08
1.25295e-06
1.08406e-07
1.24773e-06
-1.88504e-07
1.25497e-06
-5.15819e-08
1.24912e-06
-2.14201e-07
1.26648e-06
-8.05656e-08
1.24296e-06
-5.6965e-08
1.12725e-08
1.2574e-06
1.28059e-06
-2.25476e-07
1.28993e-06
1.4727e-07
1.28621e-06
1.53674e-08
1.28178e-06
-6.15209e-07
1.32448e-06
1.53015e-07
1.26464e-06
3.22805e-07
1.27625e-06
-5.44851e-08
1.32455e-06
2.59123e-07
1.31081e-06
-4.93709e-07
1.33106e-06
-6.37314e-08
1.31105e-06
3.73091e-08
1.31027e-06
6.2246e-07
1.29759e-06
-2.66276e-08
1.31228e-06
9.37113e-08
1.30171e-06
-1.7793e-07
1.30967e-06
-5.95479e-08
1.29954e-06
-2.04065e-07
1.31362e-06
-9.46526e-08
1.29953e-06
-4.28713e-08
1.24909e-08
1.29831e-06
1.3407e-06
-2.22074e-07
1.3523e-06
1.35669e-07
1.34562e-06
2.20546e-08
1.34458e-06
-6.14175e-07
1.37857e-06
1.19029e-07
1.34074e-06
3.60634e-07
1.34202e-06
-5.57663e-08
1.38629e-06
2.14857e-07
1.37103e-06
-4.78452e-07
1.38546e-06
-7.81569e-08
1.37059e-06
5.21735e-08
1.37261e-06
6.20438e-07
1.357e-06
-1.10115e-08
1.36642e-06
8.42879e-08
1.35719e-06
-1.68704e-07
1.36201e-06
-6.43613e-08
1.35242e-06
-1.94481e-07
1.36193e-06
-1.04162e-07
1.35377e-06
-3.47066e-08
1.70721e-08
1.34919e-06
1.40376e-06
-2.17481e-07
1.4159e-06
1.23526e-07
1.40697e-06
3.09866e-08
1.4094e-06
-6.166e-07
1.43419e-06
9.42372e-08
1.41557e-06
3.79254e-07
1.41212e-06
-5.23197e-08
1.4453e-06
1.81679e-07
1.4301e-06
-4.63255e-07
1.43763e-06
-8.56877e-08
1.43052e-06
5.92849e-08
1.43548e-06
6.15477e-07
1.42056e-06
3.90728e-09
1.42516e-06
7.96895e-08
1.41643e-06
-1.59973e-07
1.42035e-06
-6.82768e-08
1.40999e-06
-1.84125e-07
1.41689e-06
-1.11058e-07
1.41012e-06
-2.7939e-08
2.20913e-08
1.4051e-06
1.47052e-06
-2.1232e-07
1.48141e-06
1.12633e-07
1.47165e-06
4.07405e-08
1.47584e-06
-6.20782e-07
1.49252e-06
7.75538e-08
1.48758e-06
3.8419e-07
1.48464e-06
-4.93752e-08
1.50491e-06
1.61406e-07
1.48993e-06
-4.48277e-07
1.4929e-06
-8.86522e-08
1.49212e-06
6.00682e-08
1.5015e-06
6.06091e-07
1.48805e-06
1.73559e-08
1.49007e-06
7.76703e-08
1.48016e-06
-1.50061e-07
1.48397e-06
-7.20896e-08
1.47272e-06
-1.72869e-07
1.47714e-06
-1.15483e-07
1.47094e-06
-2.17393e-08
2.79423e-08
1.46509e-06
1.54128e-06
-2.07382e-07
1.54991e-06
1.04003e-07
1.54077e-06
4.98763e-08
1.54438e-06
-6.24386e-07
1.55458e-06
6.7349e-08
1.55832e-06
3.80452e-07
1.55793e-06
-4.89833e-08
1.56798e-06
1.51359e-07
1.55251e-06
-4.32811e-07
1.55343e-06
-8.95711e-08
1.55643e-06
5.70714e-08
1.57019e-06
5.92331e-07
1.55821e-06
2.93336e-08
1.55952e-06
7.63616e-08
1.54813e-06
-1.38679e-07
1.55162e-06
-7.558e-08
1.53987e-06
-1.61115e-07
1.5418e-06
-1.17416e-07
1.53604e-06
-1.59711e-08
3.47624e-08
1.52922e-06
1.6159e-06
-2.03152e-07
1.62225e-06
9.76482e-08
1.61467e-06
5.74641e-08
1.61587e-06
-6.25587e-07
1.62111e-06
6.2108e-08
1.6301e-06
3.71464e-07
1.63168e-06
-5.05715e-08
1.63585e-06
1.47188e-07
1.61951e-06
-4.16467e-07
1.61931e-06
-8.9375e-08
1.62374e-06
5.26425e-08
1.64086e-06
5.75214e-07
1.63036e-06
3.98354e-08
1.63226e-06
7.44592e-08
1.62002e-06
-1.26442e-07
1.62305e-06
-7.86036e-08
1.61112e-06
-1.49193e-07
1.61062e-06
-1.16909e-07
1.60526e-06
-1.06117e-08
4.24877e-08
1.59753e-06
1.69408e-06
-1.99658e-07
1.69877e-06
9.29548e-08
1.69307e-06
6.3172e-08
1.69104e-06
-6.23561e-07
1.69262e-06
6.05288e-08
1.70475e-06
3.59336e-07
1.70687e-06
-5.26978e-08
1.70891e-06
1.45149e-07
1.69189e-06
-3.99442e-07
1.69041e-06
-8.78947e-08
1.69442e-06
4.86297e-08
1.71383e-06
5.5581e-07
1.7049e-06
4.87574e-08
1.70814e-06
7.1227e-08
1.6958e-06
-1.14105e-07
1.69838e-06
-8.1183e-08
1.68659e-06
-1.37408e-07
1.68369e-06
-1.14011e-07
1.67882e-06
-5.73506e-09
5.09452e-08
1.67036e-06
1.7757e-06
-1.96638e-07
1.77946e-06
8.9195e-08
1.77555e-06
6.70845e-08
1.77034e-06
-6.18352e-07
1.76943e-06
6.14417e-08
1.78337e-06
3.4539e-07
1.78487e-06
-5.41968e-08
1.78707e-06
1.42947e-07
1.76981e-06
-3.82174e-07
1.76683e-06
-8.49153e-08
1.76933e-06
4.61229e-08
1.7902e-06
5.34944e-07
1.78284e-06
5.6114e-08
1.78759e-06
6.64792e-08
1.77566e-06
-1.02169e-07
1.77778e-06
-8.33039e-08
1.76642e-06
-1.26051e-07
1.76129e-06
-1.08885e-07
1.75695e-06
-1.38943e-09
5.98118e-08
1.74808e-06
1.86089e-06
-1.93775e-07
1.86425e-06
8.58281e-08
1.86183e-06
6.95048e-08
1.85397e-06
-6.10487e-07
1.85159e-06
6.38195e-08
1.8665e-06
3.30483e-07
1.86676e-06
-5.44651e-08
1.87013e-06
1.39576e-07
1.85297e-06
-3.65014e-07
1.84867e-06
-8.06156e-08
1.84942e-06
4.5375e-08
1.87118e-06
5.13186e-07
1.86511e-06
6.21837e-08
1.87112e-06
6.04675e-08
1.85979e-06
-9.08387e-08
1.86132e-06
-8.48306e-08
1.85062e-06
-1.1535e-07
1.84362e-06
-1.01884e-07
1.83971e-06
2.51418e-09
6.86279e-08
1.8309e-06
1.9499e-06
-1.90833e-07
1.95319e-06
8.25334e-08
1.95187e-06
7.08276e-08
1.94202e-06
-6.00634e-07
1.93898e-06
6.68578e-08
1.95429e-06
3.15169e-07
1.95315e-06
-5.33275e-08
1.95789e-06
1.3484e-07
1.94104e-06
-3.48161e-07
1.93587e-06
-7.54459e-08
1.93519e-06
4.60525e-08
1.95747e-06
4.90901e-07
1.95225e-06
6.74057e-08
1.95903e-06
5.36945e-08
1.94833e-06
-8.01475e-08
1.94906e-06
-8.5557e-08
1.93914e-06
-1.05433e-07
1.93067e-06
-9.34112e-08
1.92707e-06
6.1203e-09
7.68809e-08
1.91881e-06
2.04303e-06
-1.87673e-07
2.04644e-06
7.91218e-08
2.04581e-06
7.14596e-08
2.03459e-06
-5.89412e-07
2.03143e-06
7.00168e-08
2.04681e-06
2.99783e-07
2.04433e-06
-5.08437e-08
2.05022e-06
1.28952e-07
2.03378e-06
-3.31723e-07
2.02822e-06
-6.98828e-08
2.02667e-06
4.76032e-08
2.04925e-06
4.68319e-07
2.04447e-06
7.2189e-08
2.05144e-06
4.67217e-08
2.04136e-06
-7.00717e-08
2.0411e-06
-8.52977e-08
2.03199e-06
-9.63204e-08
2.02247e-06
-8.38921e-08
2.01897e-06
9.61869e-09
8.41145e-08
2.01174e-06
2.14056e-06
-1.84229e-07
2.14422e-06
7.5459e-08
2.14392e-06
7.17621e-08
2.13181e-06
-5.77302e-07
2.12883e-06
7.299e-08
2.14411e-06
2.84503e-07
2.14046e-06
-4.71871e-08
2.14711e-06
1.22299e-07
2.13117e-06
-3.15779e-07
2.12557e-06
-6.42866e-08
2.12366e-06
4.95115e-08
2.14638e-06
4.45602e-07
2.14178e-06
7.67927e-08
2.14846e-06
4.0038e-08
2.13897e-06
-6.05838e-08
2.13762e-06
-8.39501e-08
2.12923e-06
-8.79288e-08
2.1191e-06
-7.37585e-08
2.11553e-06
1.31859e-08
9.00294e-08
2.10962e-06
2.24273e-06
-1.80469e-07
2.24675e-06
7.14409e-08
2.2465e-06
7.20111e-08
2.23383e-06
-5.6463e-07
2.23118e-06
7.56369e-08
2.24628e-06
2.694e-07
2.24168e-06
-4.25894e-08
2.24869e-06
1.15298e-07
2.2333e-06
-3.00391e-07
2.22787e-06
-5.8857e-08
2.22598e-06
5.13983e-08
2.24869e-06
4.22888e-07
2.24418e-06
8.1309e-08
2.25023e-06
3.39894e-08
2.2413e-06
-5.16592e-08
2.23887e-06
-8.15151e-08
2.23104e-06
-8.01041e-08
2.22069e-06
-6.34051e-08
2.21696e-06
1.69143e-08
9.45316e-08
2.21246e-06
2.34979e-06
-1.76381e-07
2.35423e-06
6.69965e-08
2.35386e-06
7.23856e-08
2.34081e-06
-5.51588e-07
2.33853e-06
7.79224e-08
2.35344e-06
2.54487e-07
2.34817e-06
-3.73201e-08
2.35516e-06
1.08313e-07
2.34037e-06
-2.85598e-07
2.33514e-06
-5.36345e-08
2.33352e-06
5.3026e-08
2.35609e-06
4.00312e-07
2.35169e-06
8.5711e-08
2.35693e-06
2.87525e-08
2.34853e-06
-4.32601e-08
2.3451e-06
-7.80877e-08
2.33766e-06
-7.26625e-08
2.32739e-06
-5.31378e-08
2.3235e-06
2.08046e-08
9.76885e-08
2.32034e-06
2.46198e-06
-1.71961e-07
2.46688e-06
6.20926e-08
2.46628e-06
7.29817e-08
2.45297e-06
-5.38272e-07
2.45102e-06
7.98722e-08
2.46574e-06
2.39761e-07
2.46009e-06
-3.16698e-08
2.46679e-06
1.01617e-07
2.45262e-06
-2.71425e-07
2.44751e-06
-4.85322e-08
2.44627e-06
5.42731e-08
2.46858e-06
3.77995e-07
2.46438e-06
8.99177e-08
2.46878e-06
2.43462e-08
2.46085e-06
-3.53249e-08
2.45658e-06
-7.3822e-08
2.44936e-06
-6.5439e-08
2.43937e-06
-4.31491e-08
2.43536e-06
2.48158e-08
9.96473e-08
2.4334e-06
2.57955e-06
-1.67213e-07
2.58491e-06
5.67245e-08
2.58405e-06
7.38421e-08
2.57051e-06
-5.24729e-07
2.56885e-06
8.15371e-08
2.58337e-06
2.25239e-07
2.57763e-06
-2.59284e-08
2.58384e-06
9.54049e-08
2.57031e-06
-2.57893e-07
2.56517e-06
-4.33944e-08
2.56434e-06
5.51067e-08
2.5863e-06
3.56031e-07
2.58236e-06
9.38608e-08
2.58604e-06
2.06662e-08
2.57848e-06
-2.77643e-08
2.57354e-06
-6.88897e-08
2.56646e-06
-5.83497e-08
2.5568e-06
-3.34948e-08
2.55274e-06
2.88817e-08
1.00596e-07
2.55179e-06
2.70276e-06
-1.62139e-07
2.70858e-06
5.09011e-08
2.70744e-06
7.49837e-08
2.69369e-06
-5.10986e-07
2.69227e-06
8.29617e-08
2.70653e-06
2.10974e-07
2.70097e-06
-2.03638e-08
2.70656e-06
8.98176e-08
2.6937e-06
-2.4504e-07
2.68838e-06
-3.80705e-08
2.68792e-06
5.55628e-08
2.70949e-06
3.34467e-07
2.70582e-06
9.75245e-08
2.70894e-06
1.7548e-08
2.70165e-06
-2.04768e-08
2.6962e-06
-6.34395e-08
2.68929e-06
-5.14319e-08
2.6799e-06
-2.41082e-08
2.67585e-06
3.29333e-08
1.00724e-07
2.67572e-06
2.83187e-06
-1.56742e-07
2.83814e-06
4.4633e-08
2.83671e-06
7.64129e-08
2.82278e-06
-4.97056e-07
2.82158e-06
8.41635e-08
2.8355e-06
1.97057e-07
2.83034e-06
-1.52089e-08
2.83518e-06
8.49785e-08
2.82306e-06
-2.32917e-07
2.81745e-06
-3.24646e-08
2.81729e-06
5.57262e-08
2.83845e-06
3.13301e-07
2.83504e-06
1.00943e-07
2.83774e-06
1.48382e-08
2.83067e-06
-1.34035e-08
2.82476e-06
-5.75305e-08
2.81814e-06
-4.48139e-08
2.80894e-06
-1.4905e-08
2.80493e-06
3.69453e-08
1.00192e-07
2.80546e-06
2.96718e-06
-1.51023e-07
2.97388e-06
3.79293e-08
2.97216e-06
7.81293e-08
2.95805e-06
-4.82943e-07
2.95709e-06
8.51261e-08
2.97054e-06
1.83603e-07
2.966e-06
-1.06632e-08
2.96997e-06
8.10049e-08
2.95862e-06
-2.21571e-07
2.95272e-06
-2.65605e-08
2.95272e-06
5.57257e-08
2.97354e-06
2.92479e-07
2.9703e-06
1.04191e-07
2.97269e-06
1.24466e-08
2.96588e-06
-6.59832e-09
2.95942e-06
-5.10705e-08
2.95327e-06
-3.86641e-08
2.94426e-06
-5.89276e-09
2.94023e-06
4.09774e-08
9.9121e-08
2.9413e-06
3.10896e-06
-1.44982e-07
3.11609e-06
3.07996e-08
3.1141e-06
8.01225e-08
3.09979e-06
-4.68636e-07
3.09912e-06
8.58026e-08
3.11197e-06
1.70746e-07
3.10821e-06
-6.90019e-09
3.11122e-06
7.79991e-08
3.10067e-06
-2.11025e-07
3.09454e-06
-2.04252e-08
3.09454e-06
5.5726e-08
3.1151e-06
2.71919e-07
3.11195e-06
1.07338e-07
3.11402e-06
1.0377e-08
3.10763e-06
-2.12657e-10
3.10045e-06
-4.38929e-08
3.09488e-06
-3.30876e-08
3.08623e-06
2.75613e-09
3.08204e-06
4.51708e-08
9.7633e-08
3.08352e-06
3.25755e-06
-1.3862e-07
3.26509e-06
2.32589e-08
3.26284e-06
8.23686e-08
3.24832e-06
-4.54109e-07
3.248e-06
8.61223e-08
3.26011e-06
1.58629e-07
3.25728e-06
-4.0721e-09
3.25926e-06
7.60274e-08
3.24947e-06
-2.01241e-07
3.24326e-06
-1.42092e-08
3.24305e-06
5.59289e-08
3.26344e-06
2.51536e-07
3.26035e-06
1.10419e-07
3.26199e-06
8.73824e-09
3.25626e-06
5.52024e-09
3.24818e-06
-3.58157e-08
3.24316e-06
-2.80653e-08
3.23518e-06
1.07381e-08
3.2307e-06
4.96517e-08
9.59105e-08
3.23242e-06
3.41325e-06
-1.31943e-07
3.42118e-06
1.53303e-08
3.41872e-06
8.48273e-08
3.40393e-06
-4.39319e-07
3.40406e-06
8.59967e-08
3.41528e-06
1.47405e-07
3.41351e-06
-2.30282e-09
3.41443e-06
7.5112e-08
3.40531e-06
-1.9212e-07
3.39924e-06
-8.13822e-09
3.39861e-06
5.65545e-08
3.41887e-06
2.31277e-07
3.4159e-06
1.13388e-07
3.41689e-06
7.75362e-09
3.41208e-06
1.03248e-08
3.40303e-06
-2.67646e-08
3.39833e-06
-2.33637e-08
3.3914e-06
1.76691e-08
3.38662e-06
5.44344e-08
9.42258e-08
3.3883e-06
3.57643e-06
-1.24961e-07
3.58471e-06
7.04803e-09
3.5821e-06
8.74394e-08
3.56698e-06
-4.24204e-07
3.56766e-06
8.53228e-08
3.57783e-06
1.3723e-07
3.5772e-06
-1.67389e-09
3.57711e-06
7.52075e-08
3.56848e-06
-1.83493e-07
3.56284e-06
-2.49679e-09
3.56158e-06
5.78189e-08
3.58171e-06
2.11146e-07
3.57898e-06
1.16117e-07
3.57902e-06
7.70987e-09
3.57539e-06
1.39504e-08
3.56555e-06
-1.69164e-08
3.56071e-06
-1.85322e-08
3.55513e-06
2.32546e-08
3.55022e-06
5.93472e-08
9.29149e-08
3.55153e-06
3.74743e-06
-1.17689e-07
3.75602e-06
-1.54119e-09
3.75334e-06
9.0124e-08
3.73782e-06
-4.08687e-07
3.73915e-06
8.39902e-08
3.74813e-06
1.28256e-07
3.74867e-06
-2.21887e-09
3.74769e-06
7.61945e-08
3.73933e-06
-1.75133e-07
3.73441e-06
2.41759e-09
3.73234e-06
5.98909e-08
3.75224e-06
1.91245e-07
3.74997e-06
1.18393e-07
3.74876e-06
8.9127e-09
3.74648e-06
1.62345e-08
3.73618e-06
-6.61971e-09
3.73075e-06
-1.31052e-08
3.7266e-06
2.74116e-08
3.72191e-06
6.40345e-08
9.22869e-08
3.72254e-06
3.92665e-06
-1.1015e-07
3.93548e-06
-1.03774e-08
3.93283e-06
9.27773e-08
3.91682e-06
-3.92672e-07
3.91892e-06
8.18874e-08
3.92656e-06
1.20615e-07
3.92825e-06
-3.91346e-09
3.92658e-06
7.78734e-08
3.91821e-06
-1.66764e-07
3.91431e-06
6.31676e-09
3.91133e-06
6.28663e-08
3.9308e-06
1.71778e-07
3.92926e-06
1.19931e-07
3.92658e-06
1.15944e-08
3.92559e-06
1.72225e-08
3.91533e-06
3.64502e-09
3.90898e-06
-6.75743e-09
3.90605e-06
3.03419e-08
3.90206e-06
6.80178e-08
9.25065e-08
3.90184e-06
4.11447e-06
-1.02372e-07
4.12348e-06
-1.93856e-08
4.12099e-06
9.52674e-08
4.10436e-06
-3.76044e-07
4.10734e-06
7.8909e-08
4.11356e-06
1.14395e-07
4.11629e-06
-6.64594e-09
4.1142e-06
7.99631e-08
4.10552e-06
-1.58081e-07
4.10287e-06
8.9679e-09
4.09901e-06
6.67248e-08
4.11773e-06
1.53057e-07
4.11725e-06
1.20418e-07
4.11298e-06
1.58614e-08
4.11299e-06
1.72113e-08
4.10334e-06
1.32949e-08
4.09593e-06
6.50281e-10
4.09381e-06
3.24687e-08
4.09096e-06
7.08587e-08
9.34715e-08
4.09e-06
4.31132e-06
-9.43923e-08
4.32041e-06
-2.84754e-08
4.31825e-06
9.74313e-08
4.30088e-06
-3.58675e-07
4.30482e-06
7.49704e-08
4.30961e-06
1.09604e-07
4.31316e-06
-1.01946e-08
4.311e-06
8.21193e-08
4.30171e-06
-1.48791e-07
4.30043e-06
1.02489e-08
4.29585e-06
7.13016e-08
4.31345e-06
1.35466e-07
4.31428e-06
1.19583e-07
4.3085e-06
2.16465e-08
4.30903e-06
1.66747e-08
4.30055e-06
2.17755e-08
4.29217e-06
9.02633e-09
4.2903e-06
3.43445e-08
4.28886e-06
7.22958e-08
9.48118e-08
4.28752e-06
4.51764e-06
-8.62578e-08
4.5267e-06
-3.75404e-08
4.52506e-06
9.90729e-08
4.50681e-06
-3.40423e-07
4.51175e-06
7.00271e-08
4.51519e-06
1.06164e-07
4.51925e-06
-1.4247e-08
4.5174e-06
8.39678e-08
4.50725e-06
-1.38647e-07
4.50732e-06
1.01777e-08
4.50232e-06
7.63056e-08
4.5184e-06
1.19391e-07
4.5207e-06
1.17275e-07
4.51365e-06
2.86987e-08
4.51417e-06
1.61565e-08
4.50725e-06
2.86938e-08
4.49824e-06
1.8042e-08
4.49607e-06
3.65149e-08
4.496e-06
7.23621e-08
9.59564e-08
4.49485e-06
4.73388e-06
-7.80231e-08
4.7428e-06
-4.64577e-08
4.74191e-06
9.99586e-08
4.72263e-06
-3.21139e-07
4.72856e-06
6.40955e-08
4.73083e-06
1.03898e-07
4.735e-06
-1.84165e-08
4.73382e-06
8.51395e-08
4.72266e-06
-1.27483e-07
4.72392e-06
8.91595e-09
4.71887e-06
8.13571e-08
4.73307e-06
1.05193e-07
4.73688e-06
1.13462e-07
4.72895e-06
3.66334e-08
4.72891e-06
1.61925e-08
4.72379e-06
3.38183e-08
4.71458e-06
2.72503e-08
4.71172e-06
3.93686e-08
4.71269e-06
7.14013e-08
9.62979e-08
4.71234e-06
4.96053e-06
-6.97521e-08
4.96916e-06
-5.50896e-08
4.9693e-06
9.98205e-08
4.94883e-06
-3.00675e-07
4.95565e-06
5.72791e-08
4.957e-06
1.02543e-07
4.96088e-06
-2.22969e-08
4.9607e-06
8.53225e-08
4.94849e-06
-1.15277e-07
4.95065e-06
6.75583e-09
4.94594e-06
8.60705e-08
4.958e-06
9.31327e-08
4.96321e-06
1.08253e-07
4.95487e-06
4.49729e-08
4.95382e-06
1.72412e-08
4.95052e-06
3.7122e-08
4.94163e-06
3.61361e-08
4.93792e-06
4.30788e-08
4.93937e-06
6.99555e-08
9.54095e-08
4.94026e-06
5.19808e-06
-6.15166e-08
5.20627e-06
-6.32833e-08
5.20772e-06
9.83775e-08
5.18596e-06
-2.78914e-07
5.19344e-06
4.97937e-08
5.19423e-06
1.01756e-07
5.19744e-06
-2.55028e-08
5.19845e-06
8.43104e-08
5.18533e-06
-1.02162e-07
5.18802e-06
4.06522e-09
5.18397e-06
9.0121e-08
5.19373e-06
8.33704e-08
5.20015e-06
1.01833e-07
5.19189e-06
5.32349e-08
5.18953e-06
1.96023e-08
5.18785e-06
3.88054e-08
5.17979e-06
4.41956e-08
5.17528e-06
4.75915e-08
5.17665e-06
6.85849e-08
9.32213e-08
5.17883e-06
5.44707e-06
-5.33951e-08
5.45466e-06
-7.08774e-08
5.45761e-06
9.54268e-08
5.43456e-06
-2.55864e-07
5.44243e-06
4.1922e-08
5.44301e-06
1.01178e-07
5.44523e-06
-2.77184e-08
5.44748e-06
8.20562e-08
5.43375e-06
-8.843e-08
5.43658e-06
1.2311e-09
5.43342e-06
9.32878e-08
5.44086e-06
7.59262e-08
5.44821e-06
9.44812e-08
5.44049e-06
6.09617e-08
5.43671e-06
2.33817e-08
5.43623e-06
3.92809e-08
5.42943e-06
5.09941e-08
5.42436e-06
5.26628e-08
5.42523e-06
6.77176e-08
9.00583e-08
5.42839e-06
5.70803e-06
-4.54698e-08
5.71486e-06
-7.77031e-08
5.71929e-06
9.09984e-08
5.69524e-06
-2.31815e-07
5.70317e-06
3.39881e-08
5.70387e-06
1.00484e-07
5.7049e-06
-2.87504e-08
5.70827e-06
7.86873e-08
5.69429e-06
-7.445e-08
5.69694e-06
-1.41709e-09
5.69477e-06
9.54508e-08
5.69998e-06
7.07186e-08
5.7079e-06
8.65622e-08
5.70116e-06
6.77035e-08
5.69602e-06
2.85216e-08
5.69621e-06
3.90884e-08
5.69098e-06
5.62245e-08
5.68569e-06
5.79505e-08
5.68586e-06
6.75517e-08
8.64882e-08
5.68943e-06
5.98155e-06
-3.78249e-08
5.98743e-06
-8.35889e-08
5.99316e-06
8.52687e-08
5.96861e-06
-2.07258e-07
5.97625e-06
2.63479e-08
5.97731e-06
9.9416e-08
5.97711e-06
-2.85491e-08
5.98134e-06
7.44587e-08
5.96747e-06
-6.05764e-08
5.9697e-06
-3.65039e-09
5.96858e-06
9.65716e-08
5.9717e-06
6.76032e-08
5.97978e-06
7.84831e-08
5.97443e-06
7.30517e-08
5.9681e-06
3.48451e-08
5.96842e-06
3.87756e-08
5.9649e-06
5.97394e-08
5.95974e-06
6.311e-08
5.95924e-06
6.80536e-08
8.30539e-08
5.96267e-06
6.26821e-06
-3.0545e-08
6.27297e-06
-8.83521e-08
6.27986e-06
7.83765e-08
6.25531e-06
-1.82705e-07
6.26229e-06
1.93656e-08
6.2639e-06
9.78041e-08
6.26254e-06
-2.71808e-08
6.26733e-06
6.96703e-08
6.25384e-06
-4.70931e-08
6.2555e-06
-5.31079e-09
6.25546e-06
9.66123e-08
6.25665e-06
6.6417e-08
6.26445e-06
7.06767e-08
6.26081e-06
7.66995e-08
6.25363e-06
4.20247e-08
6.25354e-06
3.88584e-08
6.25172e-06
6.15598e-08
6.24703e-06
6.7805e-08
6.246e-06
6.90775e-08
8.00513e-08
6.24901e-06
6.56864e-06
-2.37152e-08
6.57207e-06
-9.17819e-08
6.58003e-06
7.04208e-08
6.55601e-06
-1.58687e-07
6.56198e-06
1.3389e-08
6.56422e-06
9.55701e-08
6.56182e-06
-2.47804e-08
6.5669e-06
6.45904e-08
6.55398e-06
-3.4176e-08
6.55497e-06
-6.3015e-09
6.55605e-06
9.55324e-08
6.55554e-06
6.69261e-08
6.5626e-06
6.36223e-08
6.5608e-06
7.84992e-08
6.55327e-06
4.95553e-08
6.55236e-06
3.97652e-08
6.55204e-06
6.18769e-08
6.54814e-06
7.17108e-08
6.54671e-06
7.05034e-08
7.75061e-08
6.54926e-06
6.88349e-06
-1.74179e-08
6.88534e-06
-9.36285e-08
6.8943e-06
6.146e-08
6.87136e-06
-1.35744e-07
6.87602e-06
8.72512e-09
6.87888e-06
9.27083e-08
6.87559e-06
-2.14826e-08
6.88077e-06
5.94034e-08
6.86852e-06
-2.19236e-08
6.86873e-06
-6.5116e-09
6.87098e-06
9.32792e-08
6.86914e-06
6.8772e-08
6.87492e-06
5.78395e-08
6.87496e-06
7.84603e-08
6.86764e-06
5.68752e-08
6.86567e-06
4.17392e-08
6.8665e-06
6.10455e-08
6.8637e-06
7.45052e-08
6.86195e-06
7.2259e-08
7.53318e-08
6.86412e-06
7.21345e-06
-1.17316e-08
7.21342e-06
-9.36002e-08
7.22337e-06
5.15139e-08
7.20201e-06
-1.14384e-07
7.20515e-06
5.58231e-09
7.20857e-06
8.92868e-08
7.2045e-06
-1.74134e-08
7.20968e-06
5.42277e-08
7.19816e-06
-1.04094e-08
7.19746e-06
-5.81075e-09
7.20085e-06
8.98895e-08
7.19821e-06
7.14099e-08
7.20228e-06
5.37794e-08
7.20388e-06
7.6853e-08
7.19737e-06
6.3386e-08
7.19429e-06
4.48178e-08
7.19576e-06
5.95797e-08
7.19438e-06
7.58837e-08
7.19245e-06
7.41938e-08
7.36152e-08
7.19416e-06
7.55922e-06
-6.72242e-09
7.55703e-06
-9.14102e-08
7.56793e-06
4.06077e-08
7.54859e-06
-9.50403e-08
7.55014e-06
4.0333e-09
7.554e-06
8.54258e-08
7.54927e-06
-1.26875e-08
7.55433e-06
4.91718e-08
7.54369e-06
2.33654e-10
7.54192e-06
-4.04657e-09
7.54631e-06
8.55027e-08
7.54343e-06
7.42863e-08
7.5456e-06
5.16118e-08
7.5483e-06
7.41554e-08
7.54304e-06
6.8639e-08
7.53907e-06
4.87946e-08
7.54059e-06
5.80556e-08
7.54077e-06
7.57075e-08
7.53898e-06
7.5979e-08
7.25512e-08
7.54005e-06
7.92153e-06
-2.43693e-09
7.91702e-06
-8.68998e-08
7.92873e-06
2.88887e-08
7.91169e-06
-7.80003e-08
7.91178e-06
3.94428e-09
7.91591e-06
8.1296e-08
7.91067e-06
-7.44465e-09
7.91542e-06
4.44207e-08
7.90588e-06
9.77937e-09
7.90295e-06
-1.12049e-09
7.90804e-06
8.04082e-08
7.90544e-06
7.6893e-08
7.90585e-06
5.11987e-08
7.90903e-06
7.09778e-08
7.90525e-06
7.24131e-08
7.9008e-06
5.32465e-08
7.90187e-06
5.69886e-08
7.90337e-06
7.42036e-08
7.90238e-06
7.69722e-08
7.2328e-08
7.9026e-06
8.30114e-06
1.10708e-09
8.29452e-06
-8.02856e-08
8.30656e-06
1.68503e-08
8.29197e-06
-6.34105e-08
8.2909e-06
5.01384e-09
8.2951e-06
7.70968e-08
8.28952e-06
-1.86294e-09
8.29372e-06
4.0223e-08
8.28549e-06
1.801e-08
8.28139e-06
2.97921e-09
8.28681e-06
7.49871e-08
8.28488e-06
7.88191e-08
8.28388e-06
5.21976e-08
8.287e-06
6.78645e-08
8.28468e-06
7.47258e-08
8.28023e-06
5.76977e-08
8.2806e-06
5.66163e-08
8.28286e-06
7.19501e-08
8.28311e-06
7.67162e-08
7.25325e-08
8.28291e-06
8.69884e-06
3.92561e-09
8.69081e-06
-7.22496e-08
8.70225e-06
5.4043e-09
8.69015e-06
-5.13079e-08
8.68832e-06
6.84516e-09
8.69239e-06
7.30233e-08
8.68666e-06
3.86568e-09
8.69006e-06
3.68258e-08
8.68326e-06
2.48137e-08
8.67826e-06
7.97569e-09
8.68345e-06
6.98025e-08
8.68254e-06
7.97256e-08
8.68053e-06
5.42043e-08
8.68314e-06
6.52546e-08
8.68217e-06
7.56998e-08
8.67806e-06
6.18084e-08
8.67777e-06
5.69089e-08
8.68021e-06
6.95101e-08
8.68159e-06
7.53351e-08
7.23688e-08
8.68175e-06
9.11547e-06
6.07084e-09
9.10662e-06
-6.33981e-08
9.11669e-06
-4.66794e-09
9.10703e-06
-4.16462e-08
9.10486e-06
9.023e-09
9.10867e-06
6.9206e-08
9.10297e-06
9.57224e-09
9.10538e-06
3.44067e-08
9.09997e-06
3.02286e-08
9.09446e-06
1.3481e-08
9.09905e-06
6.52193e-08
9.09914e-06
7.96376e-08
9.09659e-06
5.67546e-08
9.09852e-06
6.33206e-08
9.09859e-06
7.5626e-08
9.09501e-06
6.53919e-08
9.09427e-06
5.76506e-08
9.09662e-06
6.71584e-08
9.09858e-06
7.33708e-08
7.13867e-08
9.09957e-06
9.55191e-06
7.61961e-09
9.54272e-06
-5.42051e-08
9.55085e-06
-1.27965e-08
9.54348e-06
-3.42804e-08
9.54134e-06
1.11618e-08
9.54488e-06
6.56663e-08
9.53928e-06
1.51789e-08
9.5407e-06
3.29849e-08
9.53647e-06
3.44563e-08
9.53083e-06
1.91232e-08
9.5346e-06
6.14494e-08
9.53548e-06
7.87532e-08
9.53287e-06
5.93688e-08
9.5341e-06
6.20898e-08
9.53489e-06
7.48367e-08
9.53202e-06
6.82602e-08
9.5309e-06
5.87709e-08
9.53315e-06
6.49026e-08
9.53523e-06
7.12918e-08
6.96491e-08
9.53697e-06
1.00091e-05
8.6661e-09
9.99993e-06
-4.50475e-08
1.00057e-05
-1.86117e-08
1.00005e-05
-2.89861e-08
9.99864e-06
1.29716e-08
1.0002e-05
6.23394e-08
9.99653e-06
2.06151e-08
9.99702e-06
3.24966e-08
9.99368e-06
3.77932e-08
9.98826e-06
2.45501e-08
9.99114e-06
5.85674e-08
9.99263e-06
7.72643e-08
9.99024e-06
6.17539e-08
9.99079e-06
6.15461e-08
9.99212e-06
7.3504e-08
9.99003e-06
7.03476e-08
9.98855e-06
6.02525e-08
9.9907e-06
6.27533e-08
9.9929e-06
6.90889e-08
6.77344e-08
9.99482e-06
1.0488e-05
9.30723e-09
1.04792e-05
-3.62168e-08
1.04826e-05
-2.20155e-08
1.0479e-05
-2.53847e-08
1.04777e-05
1.42581e-08
1.04809e-05
5.91375e-08
1.04757e-05
2.57524e-08
1.04754e-05
3.28869e-08
1.04727e-05
4.04927e-08
1.04677e-05
2.95554e-08
1.04697e-05
5.6481e-08
1.04716e-05
7.5375e-08
1.04696e-05
6.37742e-08
1.04696e-05
6.15319e-08
1.04713e-05
7.18551e-08
1.047e-05
7.15716e-08
1.04683e-05
6.19511e-08
1.04701e-05
6.10195e-08
1.04728e-05
6.6406e-08
6.60247e-08
1.04745e-05
1.09897e-05
9.63078e-09
1.09814e-05
-2.79295e-08
1.09827e-05
-2.33525e-08
1.09802e-05
-2.2791e-08
1.09795e-05
1.49432e-08
1.09826e-05
5.59944e-08
1.0978e-05
3.03742e-08
1.09767e-05
3.41261e-08
1.09745e-05
4.27178e-08
1.097e-05
3.41058e-08
1.09714e-05
5.50099e-08
1.09735e-05
7.3301e-08
1.0972e-05
6.52902e-08
1.09717e-05
6.18145e-08
1.09733e-05
7.02245e-08
1.09731e-05
7.18057e-08
1.09715e-05
6.36151e-08
1.09725e-05
5.99707e-08
1.09756e-05
6.32917e-08
6.41631e-08
1.09775e-05
1.15153e-05
9.71501e-09
1.15077e-05
-2.03404e-08
1.15074e-05
-2.30618e-08
1.15052e-05
-2.05697e-08
1.1505e-05
1.50729e-08
1.15082e-05
5.28346e-08
1.15043e-05
3.43251e-08
1.15023e-05
3.60476e-08
1.15004e-05
4.46671e-08
1.14963e-05
3.81769e-08
1.14973e-05
5.4045e-08
1.14995e-05
7.11192e-08
1.14985e-05
6.62371e-08
1.14981e-05
6.22438e-08
1.14996e-05
6.87147e-08
1.15001e-05
7.12908e-08
1.1499e-05
6.47408e-08
1.14993e-05
5.96169e-08
1.15023e-05
6.03673e-08
6.15203e-08
1.15049e-05
1.20659e-05
9.62679e-09
1.20591e-05
-1.35501e-08
1.20576e-05
-2.15246e-08
1.20553e-05
-1.83079e-08
1.20556e-05
1.48155e-08
1.20588e-05
4.96132e-08
1.20556e-05
3.74899e-08
1.20533e-05
3.83958e-08
1.20514e-05
4.65244e-08
1.20478e-05
4.17642e-08
1.20483e-05
5.35489e-08
1.20506e-05
6.88275e-08
1.20502e-05
6.66373e-08
1.20498e-05
6.26587e-08
1.20513e-05
6.71853e-08
1.20522e-05
7.04341e-08
1.20518e-05
6.5129e-08
1.20519e-05
5.95489e-08
1.20539e-05
5.82989e-08
5.82562e-08
1.20572e-05
1.26428e-05
9.4215e-09
1.26369e-05
-7.60924e-09
1.26344e-05
-1.90737e-08
1.26319e-05
-1.58269e-08
1.26323e-05
1.44359e-08
1.26356e-05
4.63549e-08
1.26332e-05
3.98204e-08
1.26308e-05
4.08516e-08
1.26289e-05
4.83839e-08
1.26257e-05
4.49754e-08
1.26259e-05
5.33719e-08
1.26281e-05
6.65633e-08
1.26283e-05
6.6454e-08
1.2628e-05
6.29397e-08
1.26296e-05
6.56725e-08
1.26308e-05
6.9154e-08
1.26308e-05
6.51368e-08
1.26312e-05
5.91914e-08
1.26323e-05
5.71916e-08
5.531e-08
1.26352e-05
1.32472e-05
9.14335e-09
1.32421e-05
-2.5199e-09
1.32391e-05
-1.6002e-08
1.32363e-05
-1.31011e-08
1.32366e-05
1.41822e-08
1.32397e-05
4.31922e-08
1.32383e-05
4.12821e-08
1.3236e-05
4.31419e-08
1.32342e-05
5.0211e-08
1.32313e-05
4.78865e-08
1.32311e-05
5.35405e-08
1.32333e-05
6.43864e-08
1.32341e-05
6.56473e-08
1.3234e-05
6.3029e-08
1.32353e-05
6.43155e-08
1.32372e-05
6.73226e-08
1.32373e-05
6.49926e-08
1.3238e-05
5.85103e-08
1.32389e-05
5.62482e-08
5.35778e-08
1.32407e-05
1.38805e-05
8.82783e-09
1.38762e-05
1.75252e-09
1.38728e-05
-1.25484e-08
1.38699e-05
-1.02058e-08
1.38698e-05
1.42379e-08
1.38727e-05
4.03012e-08
1.3872e-05
4.19261e-08
1.38702e-05
4.50081e-08
1.38685e-05
5.1933e-08
1.38658e-05
5.05256e-08
1.38653e-05
5.40511e-08
1.38673e-05
6.23841e-08
1.38686e-05
6.4324e-08
1.38689e-05
6.27463e-08
1.38701e-05
6.31486e-08
1.38721e-05
6.52967e-08
1.38726e-05
6.44596e-08
1.38733e-05
5.78877e-08
1.38749e-05
5.46504e-08
5.28732e-08
1.38756e-05
1.4544e-05
8.50194e-09
1.45405e-05
5.28917e-09
1.45368e-05
-8.92268e-09
1.45339e-05
-7.24476e-09
1.45335e-05
1.46543e-08
1.45359e-05
3.78525e-08
1.45359e-05
4.19304e-08
1.45346e-05
4.62607e-08
1.45332e-05
5.33901e-08
1.45308e-05
5.28886e-08
1.453e-05
5.48576e-08
1.45317e-05
6.07342e-08
1.45334e-05
6.2601e-08
1.45342e-05
6.19235e-08
1.45352e-05
6.21839e-08
1.45372e-05
6.32617e-08
1.45383e-05
6.33914e-08
1.45385e-05
5.76444e-08
1.45408e-05
5.23913e-08
5.20391e-08
1.45416e-05
1.52392e-05
8.19251e-09
1.52363e-05
8.1684e-09
1.52327e-05
-5.26523e-09
1.52297e-05
-4.33564e-09
1.5229e-05
1.53698e-08
1.52309e-05
3.5973e-08
1.52313e-05
4.15672e-08
1.52307e-05
4.68214e-08
1.52297e-05
5.43564e-08
1.52277e-05
5.49645e-08
1.52267e-05
5.5852e-08
1.52279e-05
5.95508e-08
1.52298e-05
6.06983e-08
1.52312e-05
6.05192e-08
1.52322e-05
6.11695e-08
1.5234e-05
6.14796e-08
1.52356e-05
6.17339e-08
1.52356e-05
5.76793e-08
1.52377e-05
5.02974e-08
5.00703e-08
1.52396e-05
1.59676e-05
7.92689e-09
1.59653e-05
1.04613e-08
1.59617e-05
-1.65019e-09
1.59589e-05
-1.5648e-09
1.59581e-05
1.62063e-08
1.59593e-05
3.47137e-08
1.59598e-05
4.11341e-08
1.59599e-05
4.67332e-08
1.59595e-05
5.46694e-08
1.59579e-05
5.66082e-08
1.59568e-05
5.69865e-08
1.59575e-05
5.88345e-08
1.59593e-05
5.88663e-08
1.59612e-05
5.86481e-08
1.59626e-05
5.97561e-08
1.5964e-05
6.01126e-08
1.59661e-05
5.96215e-08
1.59663e-05
5.75115e-08
1.59673e-05
4.92292e-08
4.69831e-08
1.59704e-05
1.67308e-05
7.73628e-09
1.6729e-05
1.22273e-08
1.67255e-05
1.86884e-09
1.67229e-05
1.03387e-09
1.67221e-05
1.69856e-08
1.67229e-05
3.39845e-08
1.67231e-05
4.0878e-08
1.67237e-05
4.6187e-08
1.67241e-05
5.42638e-08
1.67231e-05
5.76174e-08
1.67219e-05
5.81655e-08
1.67222e-05
5.85224e-08
1.67238e-05
5.72855e-08
1.67259e-05
5.6552e-08
1.67279e-05
5.77422e-08
1.67291e-05
5.89415e-08
1.67311e-05
5.75706e-08
1.67321e-05
5.6513e-08
1.67319e-05
4.93919e-08
4.3831e-08
1.67351e-05
1.75305e-05
7.64508e-09
1.75292e-05
1.35141e-08
1.75258e-05
5.25232e-09
1.75233e-05
3.48811e-09
1.75227e-05
1.75631e-08
1.75231e-05
3.36047e-08
1.75231e-05
4.08767e-08
1.75238e-05
4.55013e-08
1.75249e-05
5.31669e-08
1.75247e-05
5.78531e-08
1.75237e-05
5.91606e-08
1.75236e-05
5.86022e-08
1.75249e-05
5.60067e-08
1.75269e-05
5.44906e-08
1.75295e-05
5.52106e-08
1.7531e-05
5.74285e-08
1.75324e-05
5.61088e-08
1.75343e-05
5.46138e-08
1.75338e-05
4.98976e-08
4.19065e-08
1.75358e-05
1.83683e-05
7.66981e-09
1.83675e-05
1.43686e-08
1.83643e-05
8.43181e-09
1.83619e-05
5.88877e-09
1.83616e-05
1.78765e-08
1.83619e-05
3.32934e-08
1.83616e-05
4.1146e-08
1.83621e-05
4.49758e-08
1.83638e-05
5.15065e-08
1.83644e-05
5.72636e-08
1.83639e-05
5.96537e-08
1.83635e-05
5.9013e-08
1.83644e-05
5.50751e-08
1.83663e-05
5.26165e-08
1.8369e-05
5.24779e-08
1.83713e-05
5.51332e-08
1.83723e-05
5.51254e-08
1.83744e-05
5.24989e-08
1.83747e-05
4.95929e-08
4.16772e-08
1.8375e-05
1.92463e-05
7.80787e-09
1.92458e-05
1.48641e-08
1.92429e-05
1.13038e-08
1.92404e-05
8.33334e-09
1.92404e-05
1.79661e-08
1.92409e-05
3.27808e-08
1.92404e-05
4.15729e-08
1.92406e-05
4.4785e-08
1.92426e-05
4.9572e-08