/*--------------------------------*- C++ -*----------------------------------*\
| =========                 |                                                 |
| \\      /  F ield         | OpenFOAM: The Open Source CFD Toolbox           |
|  \\    /   O peration     | Version:  v1912                                 |
|   \\  /    A nd           | Website:  www.openfoam.com                      |
|    \\/     M anipulation  |                                                 |
\*---------------------------------------------------------------------------*/
FoamFile
{
    version     2.0;
    format      ascii;
    class       volVectorField;
    location    "3.1";
    object      U;
}
// * * * * * * * * * * * * * * * * * * * * * * * * * * * * * * * * * * * * * //

dimensions      [0 1 -1 0 0 0 0];


internalField   nonuniform List<vector> 
9600
(
(0.762451 -0.011176 0)
(1.23173 0.0209698 0)
(0.880234 0.00560036 0)
(1.05498 -0.020479 0)
(0.849578 -0.0468648 0)
(1.27709 -0.0123738 0)
(0.89525 0.00860136 0)
(1.1882 0.0241611 0)
(0.975375 0.00253043 0)
(1.15355 -0.00541286 0)
(0.949251 -0.0255702 0)
(1.15572 -0.0231404 0)
(0.987194 -0.0296232 0)
(1.15218 -0.0156769 0)
(0.94895 -0.0196353 0)
(1.16925 -0.00908017 0)
(0.946523 -0.0115703 0)
(1.18587 -0.00547615 0)
(0.950747 -0.00693822 0)
(1.20444 -0.00249054 0)
(0.784231 -0.0112923 0)
(1.21871 0.0204068 0)
(0.931776 0.00716664 0)
(1.02057 -0.0199128 0)
(0.860215 -0.0500385 0)
(1.24774 -0.0127533 0)
(0.92001 0.00919783 0)
(1.15819 0.023577 0)
(1.02691 0.0028525 0)
(1.12262 -0.00470052 0)
(1.00563 -0.0255767 0)
(1.09835 -0.0238466 0)
(1.02411 -0.0296716 0)
(1.10117 -0.0148548 0)
(1.00565 -0.0199335 0)
(1.10384 -0.00920229 0)
(1.02504 -0.0117445 0)
(1.099 -0.00611587 0)
(1.05681 -0.00685744 0)
(1.08744 -0.0024555 0)
(0.818768 -0.011442 0)
(1.19311 0.0195874 0)
(0.981381 0.00851092 0)
(0.996802 -0.0191507 0)
(0.882805 -0.0515933 0)
(1.19374 -0.0131736 0)
(0.962525 0.0100243 0)
(1.12156 0.0225118 0)
(1.06535 0.00307464 0)
(1.1016 -0.0044131 0)
(1.03343 -0.0249624 0)
(1.05773 -0.0239871 0)
(1.03455 -0.0294999 0)
(1.05894 -0.0148741 0)
(1.0285 -0.0196915 0)
(1.05741 -0.0100145 0)
(1.04828 -0.0113715 0)
(1.06275 -0.007318 0)
(1.06933 -0.00611983 0)
(1.07163 -0.0027185 0)
(0.860069 -0.0116082 0)
(1.15786 0.0185561 0)
(1.01438 0.009891 0)
(0.982176 -0.0182739 0)
(0.904035 -0.0532517 0)
(1.1268 -0.0140379 0)
(1.00256 0.0105752 0)
(1.0988 0.0214177 0)
(1.08781 0.00318007 0)
(1.09312 -0.00393267 0)
(1.04826 -0.0240699 0)
(1.03892 -0.0239705 0)
(1.02902 -0.0294358 0)
(1.03679 -0.0149513 0)
(1.02794 -0.0195259 0)
(1.03629 -0.01058 0)
(1.04291 -0.0115555 0)
(1.05095 -0.00798989 0)
(1.05995 -0.00636036 0)
(1.06671 -0.00237917 0)
(0.901086 -0.0117866 0)
(1.11842 0.0175272 0)
(1.02911 0.0111324 0)
(0.978701 -0.0173262 0)
(0.921034 -0.0541673 0)
(1.06396 -0.015143 0)
(1.02891 0.0105583 0)
(1.09341 0.0204964 0)
(1.10012 0.00321954 0)
(1.09208 -0.00337355 0)
(1.05528 -0.0229922 0)
(1.03209 -0.0236084 0)
(1.01984 -0.0291945 0)
(1.02433 -0.0151661 0)
(1.02272 -0.0192816 0)
(1.02573 -0.0112042 0)
(1.03451 -0.0117263 0)
(1.04234 -0.00874975 0)
(1.05107 -0.00642628 0)
(1.05802 -0.00268851 0)
(0.935736 -0.0119543 0)
(1.08115 0.0166762 0)
(1.03114 0.0121312 0)
(0.983889 -0.01642 0)
(0.933825 -0.0546548 0)
(1.01698 -0.0164182 0)
(1.04218 0.00988468 0)
(1.09846 0.0196709 0)
(1.10686 0.0032781 0)
(1.09238 -0.00272953 0)
(1.05851 -0.0217795 0)
(1.02968 -0.0230026 0)
(1.0124 -0.0288249 0)
(1.01529 -0.0154823 0)
(1.01768 -0.0190842 0)
(1.01894 -0.011773 0)
(1.02737 -0.0118998 0)
(1.03412 -0.00948167 0)
(1.04205 -0.00668528 0)
(1.04801 -0.00285652 0)
(0.960709 -0.012084 0)
(1.05086 0.016047 0)
(1.02798 0.0128087 0)
(0.993427 -0.0155965 0)
(0.944057 -0.0546632 0)
(0.988229 -0.0177632 0)
(1.04747 0.00862666 0)
(1.10587 0.0188448 0)
(1.10931 0.00346116 0)
(1.09042 -0.00201891 0)
(1.05852 -0.0204785 0)
(1.0279 -0.0222287 0)
(1.00694 -0.0282901 0)
(1.00794 -0.0158465 0)
(1.01263 -0.0189217 0)
(1.01332 -0.0123135 0)
(1.02069 -0.0120616 0)
(1.026 -0.0101059 0)
(1.03206 -0.00688428 0)
(1.03679 -0.00307496 0)
(0.975898 -0.0121608 0)
(1.02925 0.0155895 0)
(1.02525 0.013179 0)
(1.00407 -0.0148677 0)
(0.953018 -0.0543407 0)
(0.973635 -0.019149 0)
(1.04878 0.00693896 0)
(1.1103 0.017993 0)
(1.10711 0.00381588 0)
(1.08487 -0.00125964 0)
(1.0555 -0.0191423 0)
(1.02551 -0.0213605 0)
(1.00287 -0.0276231 0)
(1.00192 -0.0162187 0)
(1.00745 -0.0187885 0)
(1.00771 -0.0128239 0)
(1.01366 -0.0121621 0)
(1.01745 -0.0105591 0)
(1.02123 -0.00704968 0)
(1.02435 -0.00322756 0)
(0.983515 -0.0121778 0)
(1.01536 0.0152147 0)
(1.02504 0.0133105 0)
(1.01397 -0.0142021 0)
(0.961132 -0.0537564 0)
(0.967651 -0.020518 0)
(1.04761 0.00501769 0)
(1.10929 0.0171557 0)
(1.10007 0.00434243 0)
(1.0758 -0.00047949 0)
(1.0498 -0.0178252 0)
(1.02226 -0.0204688 0)
(0.999759 -0.0268647 0)
(0.997127 -0.0165628 0)
(1.00245 -0.0186477 0)
(1.00202 -0.0132586 0)
(1.00615 -0.0121994 0)
(1.00842 -0.0108338 0)
(1.01 -0.00713896 0)
(1.01136 -0.00326855 0)
(0.986657 -0.0121354 0)
(1.00697 0.0148456 0)
(1.0264 0.0132484 0)
(1.02214 -0.0135753 0)
(0.968635 -0.0529764 0)
(0.966095 -0.0218321 0)
(1.04382 0.00303511 0)
(1.10211 0.016382 0)
(1.0886 0.00501833 0)
(1.064 0.000284327 0)
(1.04208 -0.0165851 0)
(1.01829 -0.0196243 0)
(0.997407 -0.0260615 0)
(0.993527 -0.0168547 0)
(0.99808 -0.0184717 0)
(0.996742 -0.0135945 0)
(0.998734 -0.0121604 0)
(0.999495 -0.0109227 0)
(0.999157 -0.00713931 0)
(0.99886 -0.00317498 0)
(0.988003 -0.0120403 0)
(1.00184 0.0144395 0)
(1.02737 0.0130279 0)
(1.02785 -0.0129873 0)
(0.9758 -0.0520347 0)
(0.966376 -0.0230289 0)
(1.0366 0.00112926 0)
(1.08887 0.0156923 0)
(1.07364 0.00577821 0)
(1.05065 0.000981305 0)
(1.03327 -0.0154697 0)
(1.0139 -0.0188853 0)
(0.995681 -0.025258 0)
(0.991047 -0.0170916 0)
(0.994674 -0.0182551 0)
(0.992403 -0.013814 0)
(0.992251 -0.0120225 0)
(0.991598 -0.0108414 0)
(0.989716 -0.00705203 0)
(0.987919 -0.00295457 0)
(0.989144 -0.0119044 0)
(0.99837 0.0139971 0)
(1.02669 0.0126931 0)
(1.03079 -0.0124656 0)
(0.982674 -0.05097 0)
(0.967052 -0.0240235 0)
(1.02563 -0.000572661 0)
(1.07043 0.0150887 0)
(1.05653 0.00652714 0)
(1.0371 0.00155575 0)
(1.02446 -0.014511 0)
(1.00952 -0.0182909 0)
(0.994422 -0.0244946 0)
(0.989474 -0.0172825 0)
(0.992284 -0.018003 0)
(0.98924 -0.0139076 0)
(0.987287 -0.0117929 0)
(0.985464 -0.0106151 0)
(0.982507 -0.00687384 0)
(0.979362 -0.00263357 0)
(0.990596 -0.01174 0)
(0.995652 0.0135468 0)
(1.02441 0.0122954 0)
(1.03129 -0.012036 0)
(0.988866 -0.0498302 0)
(0.967568 -0.0247476 0)
(1.01203 -0.00198862 0)
(1.04895 0.0145444 0)
(1.03913 0.00717576 0)
(1.02474 0.00196025 0)
(1.01664 -0.0137182 0)
(1.00555 -0.017852 0)
(0.993448 -0.0237955 0)
(0.988478 -0.0174317 0)
(0.990681 -0.017728 0)
(0.98714 -0.0138915 0)
(0.983948 -0.0114975 0)
(0.981326 -0.0102714 0)
(0.977802 -0.00660326 0)
(0.973519 -0.00223809 0)
(0.99225 -0.0115551 0)
(0.993374 0.0131148 0)
(1.02133 0.0118746 0)
(1.0302 -0.0117112 0)
(0.993801 -0.0486541 0)
(0.967952 -0.0251785 0)
(0.998242 -0.00307523 0)
(1.02768 0.0140103 0)
(1.02348 0.00764233 0)
(1.01463 0.00216792 0)
(1.0105 -0.0130819 0)
(1.0023 -0.0175466 0)
(0.992618 -0.0231644 0)
(0.987726 -0.0175444 0)
(0.989515 -0.0174461 0)
(0.985769 -0.0137947 0)
(0.981923 -0.0111585 0)
(0.978888 -0.00985017 0)
(0.975279 -0.00625614 0)
(0.970176 -0.00178726 0)
(0.993834 -0.0113545 0)
(0.991525 0.0127159 0)
(1.01829 0.0114348 0)
(1.02848 -0.0114855 0)
(0.997171 -0.0474617 0)
(0.96837 -0.02534 0)
(0.986731 -0.0038325 0)
(1.00974 0.0134506 0)
(1.01112 0.00789192 0)
(1.00725 0.00217803 0)
(1.0062 -0.0125767 0)
(0.999901 -0.0173318 0)
(0.991867 -0.022591 0)
(0.986996 -0.017622 0)
(0.988496 -0.0171693 0)
(0.984763 -0.0136411 0)
(0.980721 -0.010795 0)
(0.977578 -0.00940246 0)
(0.974273 -0.00585736 0)
(0.968772 -0.00131267 0)
(0.995172 -0.0111399 0)
(0.99017 0.0123482 0)
(1.01574 0.0109749 0)
(1.02677 -0.0113353 0)
(0.999099 -0.0462552 0)
(0.96885 -0.0252939 0)
(0.978688 -0.00432718 0)
(0.99678 0.0128578 0)
(1.00253 0.00794153 0)
(1.00246 0.00202465 0)
(1.00353 -0.0121689 0)
(0.998297 -0.0171631 0)
(0.991204 -0.0220548 0)
(0.986213 -0.0176595 0)
(0.987487 -0.0169016 0)
(0.983886 -0.0134532 0)
(0.979929 -0.0104246 0)
(0.976855 -0.00896135 0)
(0.974101 -0.00544038 0)
(0.968654 -0.000850666 0)
(0.996211 -0.0109126 0)
(0.98933 0.0120014 0)
(1.01371 0.0105082 0)
(1.02536 -0.0112331 0)
(0.999976 -0.0450266 0)
(0.969288 -0.0251076 0)
(0.973837 -0.00462948 0)
(0.988637 0.0122321 0)
(0.997213 0.00783779 0)
(0.999676 0.00175494 0)
(1.00206 -0.0118284 0)
(0.997338 -0.017002 0)
(0.990672 -0.0215349 0)
(0.985418 -0.0176493 0)
(0.986484 -0.0166431 0)
(0.983053 -0.01325 0)
(0.979326 -0.0100552 0)
(0.976398 -0.00854021 0)
(0.974267 -0.00504501 0)
(0.969274 -0.000411718 0)
(0.996956 -0.010676 0)
(0.988971 0.0116699 0)
(1.0121 0.0100414 0)
(1.02429 -0.0111648 0)
(1.00021 -0.0437644 0)
(0.969607 -0.0248258 0)
(0.971189 -0.00480681 0)
(0.984101 0.011573 0)
(0.994252 0.00762268 0)
(0.99826 0.00140958 0)
(1.00137 -0.0115346 0)
(0.996837 -0.0168232 0)
(0.990308 -0.021013 0)
(0.984704 -0.0175865 0)
(0.985552 -0.0163917 0)
(0.982283 -0.0130405 0)
(0.978855 -0.00969723 0)
(0.976103 -0.00814173 0)
(0.974514 -0.00469575 0)
(0.970246 -2.04906e-05 0)
(0.997417 -0.0104313 0)
(0.989033 0.0113455 0)
(1.01078 0.0095734 0)
(1.0235 -0.0111183 0)
(1.00008 -0.0424635 0)
(0.969827 -0.024486 0)
(0.96983 -0.00492021 0)
(0.981866 0.0108817 0)
(0.992779 0.00733116 0)
(0.997672 0.00102516 0)
(1.00112 -0.0112725 0)
(0.996618 -0.0166126 0)
(0.990123 -0.0204793 0)
(0.98416 -0.0174739 0)
(0.984768 -0.0161353 0)
(0.981628 -0.0128342 0)
(0.978536 -0.00935817 0)
(0.975989 -0.00776403 0)
(0.974761 -0.00440676 0)
(0.971338 0.000296563 0)
(0.99761 -0.0101803 0)
(0.989447 0.0110201 0)
(1.00968 0.00910648 0)
(1.02295 -0.0110853 0)
(0.999782 -0.0411215 0)
(0.970038 -0.0241094 0)
(0.969242 -0.00500445 0)
(0.98102 0.0101563 0)
(0.992204 0.00698338 0)
(0.997545 0.000623425 0)
(1.00109 -0.0110341 0)
(0.996528 -0.0163673 0)
(0.990092 -0.0199304 0)
(0.983845 -0.0173128 0)
(0.984187 -0.0158677 0)
(0.981131 -0.0126323 0)
(0.978392 -0.00904292 0)
(0.976092 -0.00739767 0)
(0.975021 -0.00418027 0)
(0.972433 0.000530401 0)
(0.997568 -0.0099251 0)
(0.990136 0.0106915 0)
(1.00872 0.00864246 0)
(1.02255 -0.0110629 0)
(0.999419 -0.0397345 0)
(0.970341 -0.0237065 0)
(0.969206 -0.00508006 0)
(0.981027 0.00939822 0)
(0.992169 0.00659302 0)
(0.997637 0.000224805 0)
(1.00113 -0.0108125 0)
(0.996456 -0.0160905 0)
(0.990167 -0.0193658 0)
(0.983767 -0.017107 0)
(0.983833 -0.0155875 0)
(0.980812 -0.0124243 0)
(0.978411 -0.00876382 0)
(0.976408 -0.00703426 0)
(0.975334 -0.00399775 0)
(0.973489 0.000684453 0)
(0.997351 -0.00966609 0)
(0.991006 0.0103553 0)
(1.00785 0.00818198 0)
(1.0222 -0.0110467 0)
(0.999084 -0.0383085 0)
(0.970797 -0.0232908 0)
(0.969609 -0.0051661 0)
(0.98154 0.00861054 0)
(0.992432 0.00617104 0)
(0.997777 -0.000156478 0)
(1.00117 -0.0106015 0)
(0.996341 -0.0157871 0)
(0.99029 -0.0187888 0)
(0.983892 -0.0168662 0)
(0.983693 -0.0152911 0)
(0.980668 -0.0122038 0)
(0.978556 -0.00852823 0)
(0.976885 -0.00667311 0)
(0.975723 -0.00383714 0)
(0.974489 0.00076478 0)
(0.997036 -0.00940399 0)
(0.991953 0.0100081 0)
(1.00704 0.00772956 0)
(1.02179 -0.0110396 0)
(0.998837 -0.0368489 0)
(0.971426 -0.0228668 0)
(0.970327 -0.0052722 0)
(0.982266 0.00779989 0)
(0.992803 0.00572425 0)
(0.997849 -0.000511891 0)
(1.00116 -0.0103956 0)
(0.996177 -0.0154634 0)
(0.99041 -0.0182045 0)
(0.984155 -0.0165946 0)
(0.98373 -0.0149824 0)
(0.980683 -0.0119645 0)
(0.97878 -0.00834128 0)
(0.977442 -0.00631672 0)
(0.976184 -0.00368575 0)
(0.975419 0.000775795 0)
(0.996703 -0.00913848 0)
(0.992871 0.00964786 0)
(1.0063 0.00728947 0)
(1.02121 -0.0110446 0)
(0.998701 -0.0353584 0)
(0.97222 -0.0224323 0)
(0.971218 -0.00539639 0)
(0.98297 0.00697861 0)
(0.993135 0.00525922 0)
(0.997792 -0.000838739 0)
(1.00109 -0.0101894 0)
(0.99599 -0.0151264 0)
(0.990496 -0.0176186 0)
(0.984486 -0.0162957 0)
(0.983885 -0.0146664 0)
(0.980832 -0.0116983 0)
(0.979049 -0.00819411 0)
(0.978003 -0.00597946 0)
(0.976697 -0.00353013 0)
(0.976265 0.000727544 0)
(0.996418 -0.00886919 0)
(0.993673 0.00927387 0)
(1.00568 0.0068628 0)
(1.02039 -0.0110572 0)
(0.998653 -0.0338478 0)
(0.973167 -0.0219838 0)
(0.97216 -0.00553712 0)
(0.983512 0.00615392 0)
(0.99334 0.00477622 0)
(0.997608 -0.0011403 0)
(1.00094 -0.00998393 0)
(0.995823 -0.0147825 0)
(0.990538 -0.0170306 0)
(0.984833 -0.0159744 0)
(0.984094 -0.0143459 0)
(0.98108 -0.0114067 0)
(0.979344 -0.00806587 0)
(0.978522 -0.00567905 0)
(0.977245 -0.00335815 0)
(0.977028 0.000641081 0)
(0.996224 -0.0085953 0)
(0.994296 0.00888545 0)
(1.00522 0.00645352 0)
(1.01934 -0.0110758 0)
(0.998633 -0.0323336 0)
(0.974262 -0.0215181 0)
(0.973088 -0.00568961 0)
(0.98387 0.00533164 0)
(0.993385 0.00427353 0)
(0.997335 -0.00142148 0)
(1.00071 -0.00978025 0)
(0.995711 -0.0144354 0)
(0.99054 -0.0164399 0)
(0.985168 -0.0156295 0)
(0.98431 -0.0140287 0)
(0.981387 -0.0110928 0)
(0.979659 -0.00794535 0)
(0.978982 -0.00542079 0)
(0.977818 -0.00317912 0)
(0.977723 0.000547235 0)
(0.99614 -0.0083151 0)
(0.994716 0.00847954 0)
(1.00495 0.00606753 0)
(1.01809 -0.0110993 0)
(0.998571 -0.0308337 0)
(0.975497 -0.0210282 0)
(0.973993 -0.00584265 0)
(0.984105 0.004521 0)
(0.993277 0.00374985 0)
(0.99702 -0.0016883 0)
(1.00039 -0.00957744 0)
(0.995665 -0.0140895 0)
(0.990513 -0.0158502 0)
(0.985489 -0.0152528 0)
(0.984512 -0.0137177 0)
(0.981717 -0.0107642 0)
(0.979989 -0.00781825 0)
(0.979386 -0.00520588 0)
(0.978411 -0.00301434 0)
(0.978371 0.000465673 0)
(0.996158 -0.00802648 0)
(0.994945 0.00805402 0)
(1.00486 0.00570552 0)
(1.01676 -0.0111182 0)
(0.998417 -0.0293607 0)
(0.976846 -0.0205102 0)
(0.974894 -0.00599345 0)
(0.984307 0.00372894 0)
(0.993049 0.00320358 0)
(0.996697 -0.00194769 0)
(0.999992 -0.00937665 0)
(0.995677 -0.0137469 0)
(0.990471 -0.0152642 0)
(0.985799 -0.0148413 0)
(0.984708 -0.0134108 0)
(0.982055 -0.0104307 0)
(0.980334 -0.00767202 0)
(0.979751 -0.00503713 0)
(0.979018 -0.00287865 0)
(0.978984 0.000409472 0)
(0.996254 -0.0077283 0)
(0.99503 0.00760956 0)
(1.0049 0.00536216 0)
(1.01544 -0.0111205 0)
(0.998156 -0.0279253 0)
(0.978262 -0.0199635 0)
(0.975813 -0.00614124 0)
(0.984552 0.00295886 0)
(0.992744 0.00263724 0)
(0.996379 -0.0022052 0)
(0.999514 -0.0091805 0)
(0.995721 -0.0134098 0)
(0.990424 -0.0146827 0)
(0.986102 -0.0143948 0)
(0.984919 -0.0131054 0)
(0.982403 -0.0101045 0)
(0.980696 -0.00750198 0)
(0.980096 -0.00489952 0)
(0.979637 -0.0027839 0)
(0.979577 0.000354393 0)
(0.996396 -0.00742006 0)
(0.995034 0.00714461 0)
(1.00499 0.00503491 0)
(1.01421 -0.0110943 0)
(0.997811 -0.0265366 0)
(0.979677 -0.019395 0)
(0.976764 -0.00628337 0)
(0.984878 0.00221446 0)
(0.992412 0.00205897 0)
(0.996066 -0.00246041 0)
(0.998975 -0.00898901 0)
(0.995766 -0.0130818 0)
(0.990384 -0.0141121 0)
(0.986391 -0.013911 0)
(0.985163 -0.0127955 0)
(0.982776 -0.00979498 0)
(0.981084 -0.00730688 0)
(0.980441 -0.00478255 0)
(0.980258 -0.00272915 0)
(0.980159 0.000270282 0)
(0.996555 -0.00710051 0)
(0.995021 0.00665879 0)
(1.00507 0.00472148 0)
(1.01311 -0.0110328 0)
(0.997431 -0.0251972 0)
(0.98103 -0.0188043 0)
(0.97775 -0.00642062 0)
(0.985288 0.001501 0)
(0.992099 0.00147404 0)
(0.99575 -0.00271256 0)
(0.998403 -0.00879738 0)
(0.995786 -0.0127623 0)
(0.990362 -0.0135626 0)
(0.986659 -0.0133911 0)
(0.985448 -0.0124751 0)
(0.983187 -0.00950078 0)
(0.981505 -0.00709266 0)
(0.980804 -0.00468012 0)
(0.980876 -0.00271064 0)
(0.980745 0.000150328 0)
(0.996714 -0.00677042 0)
(0.995039 0.0061541 0)
(1.00508 0.00441315 0)
(1.01215 -0.0109331 0)
(0.997071 -0.0239106 0)
(0.982277 -0.0181986 0)
(0.97876 -0.00654936 0)
(0.985762 0.000821666 0)
(0.991839 0.000889972 0)
(0.995431 -0.00296494 0)
(0.997825 -0.00860589 0)
(0.995765 -0.0124482 0)
(0.990364 -0.01304 0)
(0.986898 -0.0128458 0)
(0.985767 -0.0121346 0)
(0.983643 -0.00922877 0)
(0.981961 -0.00686631 0)
(0.981192 -0.00457499 0)
(0.981486 -0.0027225 0)
(0.981347 -1.3091e-05 0)
(0.996867 -0.00643219 0)
(0.995116 0.00563569 0)
(1.00499 0.00410828 0)
(1.0113 -0.0107948 0)
(0.996771 -0.0226732 0)
(0.983401 -0.0175868 0)
(0.979776 -0.00666841 0)
(0.986276 0.000170887 0)
(0.99165 0.00031513 0)
(0.995109 -0.00321558 0)
(0.997268 -0.0084202 0)
(0.995701 -0.0121387 0)
(0.990395 -0.0125448 0)
(0.987107 -0.0122869 0)
(0.986105 -0.0117716 0)
(0.984138 -0.00898121 0)
(0.982451 -0.00662922 0)
(0.981609 -0.0044616 0)
(0.982083 -0.00274398 0)
(0.98197 -0.000206648 0)
(0.997013 -0.00608748 0)
(0.995261 0.00510805 0)
(1.00479 0.00380411 0)
(1.01051 -0.0106158 0)
(0.996551 -0.0214834 0)
(0.984413 -0.0169671 0)
(0.980783 -0.00677908 0)
(0.986806 -0.000454607 0)
(0.991533 -0.000250433 0)
(0.99479 -0.00346021 0)
(0.99675 -0.00823391 0)
(0.9956 -0.0118333 0)
(0.990458 -0.0120816 0)
(0.987287 -0.0117215 0)
(0.986445 -0.0113848 0)
(0.984663 -0.00875981 0)
(0.982967 -0.00638825 0)
(0.982048 -0.00433458 0)
(0.982662 -0.00276035 0)
(0.982611 -0.000419516 0)
(0.997157 -0.0057388 0)
(0.995465 0.0045775 0)
(1.00451 0.00349421 0)
(1.00977 -0.0103975 0)
(0.996412 -0.020339 0)
(0.985337 -0.0163473 0)
(0.98177 -0.00687614 0)
(0.987336 -0.00105036 0)
(0.991479 -0.000806306 0)
(0.994482 -0.00370672 0)
(0.996275 -0.00804447 0)
(0.995476 -0.0115254 0)
(0.990552 -0.011653 0)
(0.987449 -0.0111564 0)
(0.986772 -0.0109673 0)
(0.985207 -0.00856309 0)
(0.983505 -0.00615718 0)
(0.982502 -0.0041901 0)
(0.983216 -0.00276857 0)
(0.983258 -0.000638544 0)
(0.997298 -0.00538996 0)
(0.995716 0.0040523 0)
(1.00416 0.00317845 0)
(1.00905 -0.0101453 0)
(0.996339 -0.0192344 0)
(0.986197 -0.0157304 0)
(0.982733 -0.00696354 0)
(0.987859 -0.00161475 0)
(0.991473 -0.00133424 0)
(0.994192 -0.00394763 0)
(0.995843 -0.00786195 0)
(0.995339 -0.0112123 0)
(0.990678 -0.0112575 0)
(0.987603 -0.0106087 0)
(0.987077 -0.0105224 0)
(0.985758 -0.0083762 0)
(0.98406 -0.00593802 0)
(0.98296 -0.00402261 0)
(0.98374 -0.00275965 0)
(0.983895 -0.000842188 0)
(0.997438 -0.00504351 0)
(0.996 0.00353498 0)
(1.00379 0.00285578 0)
(1.00834 -0.00986146 0)
(0.996313 -0.0181769 0)
(0.987014 -0.0151091 0)
(0.983672 -0.00703628 0)
(0.988374 -0.00215662 0)
(0.991506 -0.00184342 0)
(0.993926 -0.00417907 0)
(0.995447 -0.00768851 0)
(0.995198 -0.0108955 0)
(0.990831 -0.0108839 0)
(0.987763 -0.0100823 0)
(0.987358 -0.0100574 0)
(0.986308 -0.00820561 0)
(0.984634 -0.00574884 0)
(0.983417 -0.00383561 0)
(0.98423 -0.00272837 0)
(0.984504 -0.00101993 0)
(0.997575 -0.00469959 0)
(0.996303 0.00302634 0)
(1.00341 0.00252588 0)
(1.00764 -0.00954331 0)
(0.996319 -0.0171615 0)
(0.987799 -0.0145034 0)
(0.984588 -0.00709456 0)
(0.988882 -0.00265767 0)
(0.99157 -0.0023324 0)
(0.993689 -0.00440302 0)
(0.995082 -0.00751442 0)
(0.995059 -0.0105803 0)
(0.991011 -0.0105421 0)
(0.987935 -0.00957954 0)
(0.987611 -0.00955791 0)
(0.986849 -0.00803642 0)
(0.985233 -0.00560817 0)
(0.983875 -0.00364233 0)
(0.984681 -0.00267577 0)
(0.985071 -0.00116955 0)
(0.997708 -0.0043651 0)
(0.996615 0.00254179 0)
(1.00303 0.00218648 0)
(1.00696 -0.00920858 0)
(0.996343 -0.0161802 0)
(0.988557 -0.0138916 0)
(0.985486 -0.00715731 0)
(0.989384 -0.00312918 0)
(0.991658 -0.00278445 0)
(0.993486 -0.00462724 0)
(0.994744 -0.00734618 0)
(0.994919 -0.0102489 0)
(0.991212 -0.0102288 0)
(0.988132 -0.00912651 0)
(0.987842 -0.00903919 0)
(0.987368 -0.00783671 0)
(0.985857 -0.0055127 0)
(0.984341 -0.0034566 0)
(0.985094 -0.00258937 0)
(0.985585 -0.00128591 0)
(0.997837 -0.00403879 0)
(0.996929 0.00207626 0)
(1.00267 0.00184012 0)
(1.00631 -0.00884124 0)
(0.996382 -0.0152528 0)
(0.989286 -0.0132941 0)
(0.986357 -0.0071899 0)
(0.989883 -0.00358182 0)
(0.991769 -0.00319996 0)
(0.993319 -0.00482884 0)
(0.99444 -0.00720735 0)
(0.994781 -0.00991671 0)
(0.991426 -0.00992333 0)
(0.988357 -0.00871217 0)
(0.988057 -0.0085203 0)
(0.987857 -0.00760129 0)
(0.986504 -0.00545348 0)
(0.984829 -0.00331022 0)
(0.985475 -0.00247821 0)
(0.986039 -0.00135651 0)
(0.997963 -0.00372403 0)
(0.99724 0.00164289 0)
(1.00234 0.00148376 0)
(1.00568 -0.00846326 0)
(0.996426 -0.0143474 0)
(0.989993 -0.0127101 0)
(0.987206 -0.0072227 0)
(0.990374 -0.00398706 0)
(0.991903 -0.00359793 0)
(0.993185 -0.00501495 0)
(0.994163 -0.0070544 0)
(0.994652 -0.00960175 0)
(0.991655 -0.00963188 0)
(0.988612 -0.00835368 0)
(0.98826 -0.00801082 0)
(0.988306 -0.00733209 0)
(0.987164 -0.00539214 0)
(0.985348 -0.00318298 0)
(0.98584 -0.00238805 0)
(0.986437 -0.00143454 0)
(0.998085 -0.00342286 0)
(0.997544 0.00123699 0)
(1.00203 0.00112986 0)
(1.00508 -0.00807399 0)
(0.996481 -0.0135004 0)
(0.990665 -0.0121223 0)
(0.988026 -0.00723173 0)
(0.990861 -0.00438099 0)
(0.992054 -0.00394855 0)
(0.993092 -0.00520395 0)
(0.99392 -0.00691597 0)
(0.994526 -0.00926977 0)
(0.991889 -0.00936256 0)
(0.988898 -0.00802355 0)
(0.988464 -0.00754365 0)
(0.988717 -0.00703273 0)
(0.987833 -0.00538107 0)
(0.985886 -0.00304697 0)
(0.986174 -0.0021828 0)
(0.986801 -0.00152621 0)
(0.998202 -0.00313807 0)
(0.997839 0.000871802 0)
(1.00175 0.000766251 0)
(1.00451 -0.00767701 0)
(0.99654 -0.0126796 0)
(0.991317 -0.0115635 0)
(0.988814 -0.00721479 0)
(0.991341 -0.00473828 0)
(0.992226 -0.00428332 0)
(0.993025 -0.00534947 0)
(0.993712 -0.0067889 0)
(0.994411 -0.00895244 0)
(0.992136 -0.00908529 0)
(0.989216 -0.00775934 0)
(0.988668 -0.00710502 0)
(0.989071 -0.00671345 0)
(0.988508 -0.00537663 0)
(0.986517 -0.00312611 0)
(0.986479 -0.00196231 0)
(0.987044 -0.00140397 0)
(0.998317 -0.00286955 0)
(0.998121 0.000545624 0)
(1.0015 0.000407114 0)
(1.00399 -0.0072932 0)
(0.996605 -0.0118926 0)
(0.991932 -0.0110191 0)
(0.989571 -0.00718064 0)
(0.991809 -0.00506097 0)
(0.99242 -0.00458786 0)
(0.993 -0.00549408 0)
(0.99353 -0.00665882 0)
(0.994303 -0.00863476 0)
(0.992379 -0.0088198 0)
(0.989565 -0.00753224 0)
(0.988897 -0.0067208 0)
(0.989383 -0.00639607 0)
(0.98911 -0.00539767 0)
(0.987188 -0.00328664 0)
(0.986913 -0.00199568 0)
(0.987253 -0.00143253 0)
(0.998425 -0.00262047 0)
(0.998389 0.000262554 0)
(1.00127 4.24922e-05 0)
(1.00349 -0.00692061 0)
(0.996674 -0.011139 0)
(0.992525 -0.010496 0)
(0.990289 -0.0071191 0)
(0.992269 -0.00534806 0)
(0.992632 -0.00486075 0)
(0.993003 -0.00562801 0)
(0.993387 -0.00654184 0)
(0.994199 -0.00831616 0)
(0.992626 -0.00856295 0)
(0.989944 -0.0073244 0)
(0.989137 -0.00639726 0)
(0.989633 -0.00608259 0)
(0.989682 -0.00540171 0)
(0.987874 -0.00348327 0)
(0.987291 -0.00209606 0)
(0.987597 -0.00144774 0)
(0.998531 -0.00239191 0)
(0.998637 3.12834e-05 0)
(1.00107 -0.000323455 0)
(1.00303 -0.00658119 0)
(0.996747 -0.0103831 0)
(0.993077 -0.0100076 0)
(0.990972 -0.00705169 0)
(0.992712 -0.00557283 0)
(0.992862 -0.00511902 0)
(0.993051 -0.00574452 0)
(0.993275 -0.0064264 0)
(0.994102 -0.00801732 0)
(0.992861 -0.0082861 0)
(0.990344 -0.00716834 0)
(0.98941 -0.00610627 0)
(0.989855 -0.00575658 0)
(0.990153 -0.00529647 0)
(0.988567 -0.00369538 0)
(0.987838 -0.0020354 0)
(0.987985 -0.00124451 0)
(0.99863 -0.00218285 0)
(0.998866 -0.000164117 0)
(1.00089 -0.000661443 0)
(1.00262 -0.00627314 0)
(0.996819 -0.00967038 0)
(0.993601 -0.00953151 0)
(0.991624 -0.00695719 0)
(0.993141 -0.00576063 0)
(0.993103 -0.00532488 0)
(0.993127 -0.00585781 0)
(0.993204 -0.00633259 0)
(0.994017 -0.00771332 0)
(0.993085 -0.00802867 0)
(0.990763 -0.00701001 0)
(0.98972 -0.00585814 0)
(0.990055 -0.00543603 0)
(0.99057 -0.0050972 0)
(0.989307 -0.00375421 0)
(0.988436 -0.00203091 0)
(0.988295 -0.00121033 0)
(0.998726 -0.00199611 0)
(0.999071 -0.000315077 0)
(1.00073 -0.000984484 0)
(1.00225 -0.00600069 0)
(0.996899 -0.00897747 0)
(0.994084 -0.00905886 0)
(0.992237 -0.00686896 0)
(0.993551 -0.005897 0)
(0.993353 -0.00549309 0)
(0.993237 -0.00594957 0)
(0.993175 -0.0062429 0)
(0.993942 -0.00742458 0)
(0.993289 -0.00777304 0)
(0.991196 -0.00686558 0)
(0.990068 -0.00563343 0)
(0.990272 -0.00514197 0)
(0.990929 -0.00479361 0)
(0.989984 -0.00381119 0)
(0.989077 -0.00221605 0)
(0.988663 -0.00117063 0)
(0.998817 -0.0018268 0)
(0.999254 -0.000441721 0)
(1.00059 -0.00126655 0)
(1.00192 -0.00575535 0)
(0.996981 -0.00834127 0)
(0.99453 -0.00859642 0)
(0.992817 -0.00676637 0)
(0.99395 -0.00599923 0)
(0.993607 -0.00560577 0)
(0.993367 -0.00602184 0)
(0.993185 -0.00616034 0)
(0.993888 -0.00715216 0)
(0.99348 -0.00749133 0)
(0.991641 -0.00672114 0)
(0.990455 -0.00543425 0)
(0.990515 -0.00487021 0)
(0.99123 -0.00450764 0)
(0.990572 -0.00381384 0)
(0.989782 -0.00240976 0)
(0.989112 -0.00116074 0)
(0.998903 -0.00167644 0)
(0.999413 -0.0005411 0)
(1.00046 -0.00151521 0)
(1.00163 -0.00554228 0)
(0.997074 -0.00774923 0)
(0.994937 -0.00812526 0)
(0.993353 -0.00665053 0)
(0.994333 -0.00607983 0)
(0.993868 -0.0056758 0)
(0.993523 -0.00604033 0)
(0.993233 -0.00607993 0)
(0.993858 -0.00689805 0)
(0.993653 -0.00718661 0)
(0.992079 -0.00657549 0)
(0.990877 -0.00526496 0)
(0.990778 -0.00463468 0)
(0.991494 -0.00427062 0)
(0.991084 -0.00372753 0)
(0.990496 -0.00256233 0)
(0.989642 -0.00128059 0)
(0.998984 -0.00154256 0)
(0.999551 -0.00062544 0)
(1.00034 -0.00171555 0)
(1.00139 -0.00534543 0)
(0.997176 -0.00721894 0)
(0.995308 -0.00766531 0)
(0.99385 -0.00651361 0)
(0.994706 -0.0061331 0)
(0.994137 -0.00569807 0)
(0.99369 -0.0060176 0)
(0.993306 -0.00599225 0)
(0.993859 -0.00666316 0)
(0.99382 -0.0068702 0)
(0.992513 -0.00639915 0)
(0.991329 -0.00511401 0)
(0.991063 -0.00444401 0)
(0.991746 -0.00405672 0)
(0.991528 -0.00359448 0)
(0.99116 -0.00266066 0)
(0.990235 -0.00148059 0)
(0.99906 -0.00142322 0)
(0.999669 -0.000693578 0)
(1.00022 -0.00187427 0)
(1.00117 -0.00517191 0)
(0.997292 -0.00674273 0)
(0.995647 -0.00721609 0)
(0.994299 -0.00634172 0)
(0.995065 -0.00616601 0)
(0.994416 -0.00570335 0)
(0.993873 -0.00595825 0)
(0.993406 -0.00586959 0)
(0.99389 -0.00643807 0)
(0.993983 -0.00655611 0)
(0.992929 -0.00620336 0)
(0.991792 -0.00499359 0)
(0.991372 -0.00428924 0)
(0.991998 -0.00386229 0)
(0.991916 -0.00346383 0)
(0.991752 -0.002711 0)
(0.990859 -0.00169459 0)
(0.999131 -0.00131625 0)
(0.999769 -0.000752761 0)
(1.00011 -0.00199079 0)
(1.00099 -0.00500529 0)
(0.99742 -0.00632467 0)
(0.995959 -0.00679414 0)
(0.994703 -0.00613847 0)
(0.995405 -0.00617072 0)
(0.994709 -0.00569381 0)
(0.994073 -0.00586118 0)
(0.993521 -0.00571729 0)
(0.993943 -0.00622542 0)
(0.994145 -0.00626161 0)
(0.993325 -0.00600215 0)
(0.992266 -0.00487686 0)
(0.991712 -0.00414603 0)
(0.992253 -0.00368798 0)
(0.992259 -0.0033421 0)
(0.99227 -0.00272447 0)
(0.991477 -0.00188024 0)
(0.999196 -0.00121983 0)
(0.999854 -0.000804217 0)
(1.00001 -0.00206968 0)
(1.00083 -0.00484354 0)
(0.99756 -0.00595827 0)
(0.996251 -0.00640095 0)
(0.995061 -0.0059097 0)
(0.995721 -0.00613753 0)
(0.995014 -0.00568 0)
(0.994296 -0.00575357 0)
(0.993649 -0.00553103 0)
(0.994012 -0.00600099 0)
(0.994307 -0.00598109 0)
(0.993702 -0.00579816 0)
(0.992745 -0.00476477 0)
(0.992073 -0.00402253 0)
(0.99251 -0.00354079 0)
(0.992567 -0.00323026 0)
(0.99272 -0.00270516 0)
(0.992066 -0.00203027 0)
(0.999255 -0.00113181 0)
(0.999925 -0.000849582 0)
(0.999905 -0.00211508 0)
(1.0007 -0.00468124 0)
(0.99771 -0.00563863 0)
(0.996527 -0.00604548 0)
(0.995379 -0.00566063 0)
(0.996008 -0.00605641 0)
(0.995325 -0.00566331 0)
(0.994547 -0.00564856 0)
(0.993793 -0.0053216 0)
(0.994089 -0.00576379 0)
(0.994462 -0.00571269 0)
(0.994054 -0.00559607 0)
(0.993224 -0.00466447 0)
(0.992457 -0.00391696 0)
(0.992776 -0.00339896 0)
(0.992856 -0.00312241 0)
(0.993107 -0.00265422 0)
(0.992608 -0.00214067 0)
(0.999308 -0.00105074 0)
(0.999987 -0.000891485 0)
(0.999807 -0.00212785 0)
(1.00057 -0.00451289 0)
(0.997867 -0.00536151 0)
(0.996793 -0.00572561 0)
(0.995662 -0.00540018 0)
(0.996259 -0.00593069 0)
(0.995635 -0.00563344 0)
(0.994829 -0.00555901 0)
(0.993959 -0.0050988 0)
(0.994169 -0.00550445 0)
(0.994609 -0.00544833 0)
(0.994378 -0.00539004 0)
(0.993695 -0.00456635 0)
(0.992866 -0.00383348 0)
(0.99305 -0.00326311 0)
(0.993128 -0.0030232 0)
(0.993441 -0.00259254 0)
(0.993089 -0.00220924 0)
(0.999355 -0.000973616 0)
(1.00004 -0.000932302 0)
(0.999713 -0.00211661 0)
(1.00046 -0.00433005 0)
(0.998028 -0.00511725 0)
(0.997055 -0.00544405 0)
(0.995917 -0.00513722 0)
(0.996473 -0.00576304 0)
(0.995932 -0.00557521 0)
(0.995142 -0.00550037 0)
(0.994156 -0.00488053 0)
(0.994251 -0.00522111 0)
(0.994738 -0.00517858 0)
(0.994669 -0.00517937 0)
(0.994147 -0.00446184 0)
(0.993299 -0.00377744 0)
(0.99334 -0.00314473 0)
(0.993387 -0.00291755 0)
(0.993735 -0.0025248 0)
(0.993503 -0.0022301 0)
(0.999397 -0.000900354 0)
(1.00009 -0.000969456 0)
(0.999629 -0.00208994 0)
(1.00035 -0.00413096 0)
(0.998186 -0.00489215 0)
(0.997315 -0.00519974 0)
(0.996152 -0.00488044 0)
(0.996651 -0.00555679 0)
(0.996203 -0.00547409 0)
(0.995481 -0.00547312 0)
(0.994397 -0.00469682 0)
(0.99434 -0.00492316 0)
(0.994847 -0.00489482 0)
(0.994924 -0.00496597 0)
(0.994566 -0.00434498 0)
(0.993745 -0.00373501 0)
(0.993659 -0.0030574 0)
(0.993637 -0.00281076 0)
(0.993994 -0.00244989 0)
(0.99385 -0.00221977 0)
(0.999432 -0.000830808 0)
(1.00013 -0.00100077 0)
(0.999556 -0.00205236 0)
(1.00026 -0.00391664 0)
(0.998338 -0.00467328 0)
(0.997574 -0.00498507 0)
(0.996377 -0.00464462 0)
(0.996801 -0.00532149 0)
(0.996434 -0.00531758 0)
(0.995829 -0.0054469 0)
(0.994694 -0.00457634 0)
(0.994449 -0.00463235 0)
(0.99493 -0.00458704 0)
(0.995139 -0.00474529 0)
(0.99495 -0.00422 0)
(0.994188 -0.00368856 0)
(0.994006 -0.0029989 0)
(0.993896 -0.00272373 0)
(0.994228 -0.00236469 0)
(0.994132 -0.00218149 0)
(0.999463 -0.000765281 0)
(1.00017 -0.00102319 0)
(0.999498 -0.00200762 0)
(1.00016 -0.00368861 0)
(0.998477 -0.00445172 0)
(0.99783 -0.00479139 0)
(0.996599 -0.00442963 0)
(0.996933 -0.00508016 0)
(0.996622 -0.00510883 0)
(0.996161 -0.00538485 0)
(0.995044 -0.00452267 0)
(0.994605 -0.00438855 0)
(0.994994 -0.00426997 0)
(0.995301 -0.00449678 0)
(0.995291 -0.00408409 0)
(0.994618 -0.00363629 0)
(0.994369 -0.00294893 0)
(0.994174 -0.002661 0)
(0.994457 -0.00228625 0)
(0.994362 -0.00211792 0)
(0.999489 -0.000703953 0)
(1.0002 -0.00103314 0)
(0.999455 -0.00196147 0)
(1.00008 -0.00345329 0)
(0.998599 -0.0042166 0)
(0.998079 -0.00461478 0)
(0.996821 -0.0042285 0)
(0.997057 -0.00484552 0)
(0.996773 -0.00486246 0)
(0.996454 -0.00526043 0)
(0.995429 -0.00449879 0)