/*--------------------------------*- C++ -*----------------------------------*\
| =========                 |                                                 |
| \\      /  F ield         | OpenFOAM: The Open Source CFD Toolbox           |
|  \\    /   O peration     | Version:  v1912                                 |
|   \\  /    A nd           | Website:  www.openfoam.com                      |
|    \\/     M anipulation  |                                                 |
\*---------------------------------------------------------------------------*/
FoamFile
{
    version     2.0;
    format      ascii;
    class       volScalarField;
    location    "0.4";
    object      p;
}
// * * * * * * * * * * * * * * * * * * * * * * * * * * * * * * * * * * * * * //

dimensions      [0 2 -2 0 0 0 0];


internalField   nonuniform List<scalar> 
9600
(
-3.85072e-11
0.00526398
0.00445598
0.00294776
0.00276909
0.00424292
0.00404161
0.0057717
0.0075815
0.00666297
0.00660125
0.00740972
0.00742432
0.00775896
0.00836854
0.00995341
0.00980707
0.0119311
0.0140462
0.0190388
1.4266e-06
0.00525819
0.00446382
0.00295603
0.00277443
0.00423953
0.00404369
0.00577258
0.00756808
0.00666599
0.00661409
0.00740005
0.0074326
0.00773948
0.00837836
0.00991089
0.00981703
0.0119145
0.0140595
0.0184279
3.45876e-06
0.0052507
0.00447263
0.00296614
0.00278092
0.00423183
0.00404614
0.0057751
0.00755375
0.00667327
0.00662357
0.00738093
0.00744465
0.00771201
0.00839041
0.00986465
0.00983176
0.0119022
0.0140227
0.0178659
7.45768e-06
0.00524671
0.0044807
0.00297774
0.00279038
0.00422035
0.00404835
0.00578412
0.00753616
0.00668094
0.00663097
0.00735602
0.00746351
0.00767743
0.00840417
0.00981528
0.00985097
0.011882
0.0139712
0.0173517
1.48605e-05
0.00524614
0.00448665
0.00299121
0.00280443
0.00420588
0.00405157
0.00579671
0.00751422
0.00668862
0.00663777
0.00732925
0.00748894
0.00763796
0.00842178
0.00976305
0.00987128
0.0118536
0.0139042
0.0168729
2.61453e-05
0.00524729
0.00448997
0.00300648
0.0028232
0.00418986
0.00405599
0.00580973
0.00748949
0.00669551
0.00664427
0.00730354
0.00752004
0.0075976
0.00844137
0.00970905
0.00989208
0.0118167
0.0138186
0.0164182
4.10386e-05
0.00524883
0.00449089
0.00302317
0.00284619
0.00417401
0.00406179
0.00582202
0.00746279
0.00670061
0.00665074
0.00728024
0.00755579
0.0075576
0.00846152
0.00965557
0.00990993
0.0117717
0.0137122
0.015984
5.89361e-05
0.00524978
0.00449009
0.00304081
0.00287299
0.00416006
0.00406964
0.00583314
0.00743403
0.00670335
0.00665727
0.00725949
0.00759289
0.00751898
0.00848237
0.00960346
0.00992256
0.0117202
0.0135827
0.0155696
7.9209e-05
0.00524957
0.00448831
0.00305896
0.00290345
0.00414929
0.00408022
0.00584296
0.00740286
0.00670343
0.00666379
0.00724093
0.00763056
0.00748321
0.00850341
0.00955409
0.0099292
0.0116629
0.0134296
0.0151749
0.000101378
0.00524802
0.00448609
0.00307731
0.00293747
0.0041423
0.00409404
0.00585156
0.0073692
0.00670073
0.00667026
0.00722409
0.00766792
0.00745136
0.00852363
0.00950947
0.00992847
0.0116002
0.0132542
0.0147972
0.00012514
0.00524525
0.00448375
0.00309565
0.0029748
0.00413909
0.0041112
0.00585907
0.00733341
0.00669535
0.00667665
0.00720851
0.00770435
0.00742396
0.00854182
0.00947081
0.00991865
0.0115333
0.0130584
0.0144313
0.000150308
0.00524144
0.00448149
0.00311391
0.00301497
0.00413913
0.00413131
0.00586551
0.00729619
0.00668745
0.00668294
0.00719386
0.00773935
0.00740124
0.00855639
0.00943847
0.00989824
0.0114625
0.0128454
0.0140712
0.000176759
0.00523677
0.00447948
0.00313206
0.00305746
0.00414157
0.00415373
0.00587086
0.0072584
0.00667728
0.00668908
0.00717996
0.00777242
0.00738318
0.00856553
0.00941237
0.00986597
0.0113872
0.0126194
0.013712
0.000204417
0.00523134
0.00447792
0.0031501
0.00310176
0.00414558
0.00417777
0.00587499
0.00722081
0.00666508
0.00669488
0.00716681
0.00780297
0.00736979
0.00856765
0.00939229
0.00982108
0.0113055
0.0123854
0.0133511
0.000233257
0.00522524
0.00447701
0.00316804
0.00314753
0.00415057
0.00420296
0.00587774
0.00718395
0.00665111
0.0067
0.00715462
0.00783035
0.00736103
0.00856151
0.00937755
0.00976377
0.011214
0.0121489
0.012988
0.000263304
0.00521846
0.00447691
0.00318587
0.00319455
0.00415615
0.004229
0.00587899
0.0071481
0.00663561
0.006704
0.0071438
0.00785389
0.0073569
0.00854628
0.00936684
0.00969539
0.0111092
0.0119145
0.0126235
0.000294619
0.00521094
0.00447779
0.00320356
0.00324272
0.00416209
0.00425577
0.00587862
0.00711331
0.00661888
0.00670638
0.00713483
0.00787297
0.00735732
0.00852161
0.00935834
0.00961815
0.0109882
0.0116856
0.0122597
0.000327293
0.00520257
0.0044798
0.00322108
0.00329199
0.0041683
0.00428323
0.00587659
0.00707949
0.00660129
0.00670648
0.00712814
0.00788721
0.00736206
0.00848776
0.00934971
0.0095345
0.010849
0.0114637
0.011899
0.000361436
0.00519322
0.00448309
0.00323836
0.00334234
0.00417473
0.00431135
0.00587292
0.00704641
0.00658339
0.00670359
0.0071239
0.00789644
0.00737053
0.00844562
0.00933826
0.00944644
0.0106914
0.0112488
0.0115447
0.000397168
0.00518272
0.00448779
0.00325533
0.00339375
0.00418136
0.00434009
0.00586762
0.00701377
0.00656578
0.00669713
0.00712208
0.00790078
0.00738168
0.00839651
0.00932144
0.00935553
0.0105166
0.0110398
0.0112001
0.000434623
0.00517086
0.00449405
0.00327195
0.0034462
0.00418822
0.00436936
0.00586086
0.00698118
0.0065491
0.00668674
0.00712231
0.00790064
0.00739416
0.00834172
0.00929715
0.00926304
0.0103266
0.0108347
0.0108689
0.000473946
0.00515742
0.00450203
0.00328814
0.00349963
0.00419534
0.00439897
0.00585295
0.00694811
0.00653395
0.0066723
0.00712399
0.00789668
0.00740639
0.00828214
0.00926393
0.00916976
0.0101234
0.0106313
0.010555
0.000515293
0.00514218
0.00451185
0.00330387
0.00355396
0.0042028
0.00442865
0.00584422
0.00691403
0.00652081
0.0066539
0.0071262
0.00788994
0.00741701
0.00821798
0.00922102
0.00907627
0.00990874
0.0104276
0.0102619
0.000558834
0.00512487
0.00452368
0.0033191
0.00360907
0.0042107
0.00445801
0.00583519
0.00687839
0.00650997
0.00663196
0.00712749
0.00788157
0.00742518
0.0081491
0.00916825
0.0089833
0.0096844
0.0102211
0.00999197
0.000604757
0.00510521
0.00453764
0.00333383
0.00366475
0.0042192
0.00448653
0.00582653
0.00684069
0.00650132
0.00660746
0.00712638
0.00787224
0.00743028
0.00807524
0.00910533
0.00889158
0.00945279
0.0100091
0.009746
0.000653263
0.0050829
0.00455389
0.00334809
0.00372072
0.00422808
0.00451357
0.00581889
0.00680064
0.00649429
0.00658168
0.00712142
0.00786204
0.00743249
0.00799596
0.00903143
0.00880197
0.00921723
0.00978937
0.00952276
0.000704555
0.00505765
0.00457256
0.00336197
0.00377661
0.00423529
0.00453841
0.0058128
0.00675831
0.00648818
0.00655591
0.00711115
0.00785077
0.00743267
0.00791067
0.00894542
0.00871546
0.00898149
0.00955974
0.00931953
0.000758854
0.00502918
0.00459378
0.00337559
0.00383201
0.00425014
0.00456033
0.00580851
0.00671413
0.00648193
0.00653148
0.0070947
0.00783768
0.0074318
0.00781918
0.00884602
0.00863258
0.00874967
0.00931839
0.00913267
0.000816401
0.00499719
0.00461724
0.00338916
0.00388643
0.00426827
0.00457864
0.00580613
0.00666871
0.00647405
0.00650979
0.00707187
0.00782108
0.00743082
0.00772189
0.00873194
0.00855269
0.0085266
0.00906431
0.00895676
0.000877434
0.00496137
0.004643
0.003403
0.00393925
0.00429034
0.00459289
0.00580531
0.00662305
0.00646317
0.00649166
0.00704307
0.00779888
0.00743011
0.00762019
0.00860208
0.00847353
0.00831785
0.00879879
0.0087839
0.000942194
0.00492145
0.00467099
0.00341749
0.00398967
0.00431738
0.0046029
0.00580543
0.00657856
0.0064478
0.00647714
0.00700945
0.00776868
0.00742986
0.00751748
0.00845647
0.00839121
0.00812843
0.00852673
0.00860453
0.00101093
0.00487718
0.00470102
0.00343316
0.00403691
0.00434974
0.00460883
0.00580565
0.00653681
0.00642648
0.00646561
0.00697291
0.00772805
0.00742944
0.00741814
0.00829694
0.0083006
0.00796014
0.00825603
0.00841123
0.0010839
0.00482844
0.00473269
0.00345064
0.00408023
0.00438764
0.0046111
0.0058046
0.0064995
0.00639862
0.00645548
0.00693597
0.00767555
0.00742653
0.00732523
0.00812634
0.00819711
0.00781054
0.00799484
0.00820241
0.00116131
0.00477516
0.00476554
0.00347056
0.00411885
0.00443137
0.00461051
0.00580071
0.00646808
0.00636429
0.00644422
0.00690109
0.00761127
0.00741682
0.00724095
0.00794918
0.00807821
0.00767523
0.00774883
0.00798063
0.00124339
0.00471736
0.00479896
0.00349358
0.00415218
0.00448095
0.00460816
0.00579228
0.00644357
0.00632417
0.00642866
0.00687
0.00753682
0.00739503
0.00716561
0.00777193
0.00794382
0.00754845
0.00752135
0.00774924
0.00133033
0.00465523
0.00483217
0.00352028
0.00417971
0.00453718
0.00460554
0.00577761
0.00642627
0.00628008
0.00640515
0.00684353
0.00745596
0.00735677
0.00709756
0.00760122
0.00779649
0.00742385
0.00731489
0.00751302
0.00142226
0.00458916
0.00486425
0.00355116
0.00420103
0.00459763
0.00460434
0.00575502
0.00641576
0.00623501
0.00636999
0.00682094
0.00737435
0.00730078
0.00703177
0.00744102
0.00764103
0.0072958
0.00712881
0.00727954
0.00151931
0.00451967
0.00489422
0.00358662
0.00421587
0.00466162
0.0046064
0.00572332
0.00641092
0.00619248
0.00632098
0.00679928
0.00729762
0.00722833
0.0069604
0.00729145
0.00748519
0.0071619
0.00695748
0.00705701
0.00162148
0.00444747
0.0049211
0.00362696
0.0042241
0.00472837
0.00461375
0.00568184
0.00640942
0.00615635
0.00625774
0.00677317
0.00722975
0.00714275
0.00687721
0.0071505
0.00733706
0.0070256
0.00679231
0.00684968
0.00172874
0.00437342
0.00494377
0.0036724
0.00422576
0.00479641
0.00462861
0.00563041
0.00640796
0.0061304
0.00618119
0.00673596
0.00717251
0.00705222
0.00677955
0.00701244
0.00719999
0.0068943
0.00662783
0.00665546
0.0018409
0.00429833
0.00496118
0.00372305
0.00422108
0.00486381
0.00465313
0.0055696
0.00640249
0.00611731
0.00609466
0.00668119
0.00712461
0.00696711
0.00666958
0.00686874
0.00707063
0.00677745
0.00646716
0.00646753
0.00195769
0.00422423
0.00497236
0.00377886
0.0042104
0.00492828
0.00468916
0.00550087
0.00638868
0.00611803
0.00600382
0.0066043
0.00709297
0.00689601
0.00655125
0.00671379
0.00694341
0.00668013
0.0063192
0.00628084
0.0020787
0.00415201
0.00497639
0.00383979
0.00419429
0.00498726
0.00473794
0.00542716
0.00636207
0.0061315
0.00591579
0.0065029
0.0070498
0.00684325
0.00643261
0.00654614
0.00681052
0.00659912
0.00619443
0.00609926
0.0022033
0.00408311
0.00497256
0.00390568
0.00417367
0.00503788
0.00479991
0.00535257
0.00631894
0.00615546
0.00583814
0.00637817
0.0069914
0.00680807
0.00632539
0.00636864
0.00666388
0.00652839
0.00609972
0.00593056
0.00233072
0.00401889
0.00496041
0.00397628
0.00415
0.00507692
0.00487466
0.00528191
0.0062571
0.00618525
0.00577712
0.00623478
0.00690927
0.00678655
0.00624082
0.00618759
0.00649688
0.00645906
0.00603653
0.00578406
0.0024602
0.00396061
0.00493967
0.00405111
0.00412534
0.00510099
0.00496023
0.00522063
0.00617602
0.00621729
0.00573729
0.00608025
0.00679793
0.00677001
0.00618478
0.00601335
0.00630773
0.00637762
0.00600155
0.00567196
0.0025909
0.00390941
0.00491038
0.00412955
0.00410215
0.00510717
0.00505267
0.00517407
0.0060769
0.00623243
0.00572055
0.00592475
0.00665517
0.0067458
0.00615716
0.00586062
0.0061035
0.00626893
0.00598369
0.00560557
0.00272195
0.00386608
0.00487289
0.00421072
0.00408349
0.00509287
0.00514672
0.00514683
0.00596316
0.0062309
0.00572697
0.00577985
0.00648322
0.00670004
0.0061533
0.0057419
0.00589623
0.00612679
0.00596327
0.00558432
0.00285239
0.00383137
0.00482779
0.00429314
0.00407289
0.00505726
0.00523525
0.00514222
0.00584077
0.00620765
0.0057517
0.00565542
0.00628673
0.00662122
0.00616438
0.00566252
0.00570102
0.00595831
0.00591962
0.00559344
0.00298115
0.0038059
0.00477603
0.00437493
0.00407307
0.00500074
0.00531045
0.00516453
0.00571835
0.00615942
0.00578455
0.00555891
0.00607629
0.00650326
0.00617566
0.00562198
0.00553275
0.00577677
0.00584397
0.00561063
0.00310708
0.00379027
0.00471909
0.00445344
0.00408607
0.00492691
0.00536574
0.0052043
0.00560513
0.00608512
0.00581565
0.00549538
0.00586843
0.00634659
0.00616907
0.00561555
0.00540209
0.00559557
0.00574221
0.00561351
0.00322902
0.00378502
0.00465864
0.00452534
0.00411344
0.0048311
0.0053952
0.00525756
0.00550868
0.00598749
0.00583491
0.00546493
0.00568018
0.00615761
0.00612866
0.00563274
0.00531633
0.00542619
0.00562277
0.00559442
0.00334588
0.00379046
0.00459637
0.00458717
0.0041562
0.0047485
0.00539508
0.00531593
0.00543429
0.00587418
0.00583357
0.00546009
0.00552347
0.00594879
0.00604564
0.00565377
0.00527716
0.00528158
0.00549004
0.00555487
0.00345677
0.0038064
0.00453544
0.00463581
0.00421357
0.00467076
0.0053635
0.00536908
0.00538433
0.00575483
0.00580829
0.00546981
0.00540379
0.00573876
0.0059229
0.00565565
0.00527406
0.00517789
0.00535218
0.00549336
0.00356112
0.00383203
0.00447829
0.00466974
0.00428247
0.00460418
0.00530264
0.00540776
0.00535719
0.00563813
0.00575909
0.00548323
0.00532111
0.0055446
0.00577029
0.00562462
0.00528659
0.00512255
0.00522686
0.00540796
0.00365853
0.00386612
0.00442736
0.00468863
0.00435747
0.0045533
0.00521991
0.0054248
0.00534668
0.00553182
0.00568928
0.00549027
0.00527249
0.00537828
0.00559994
0.00556014
0.00529168
0.00510263
0.00513489
0.00530798
0.00374881
0.0039072
0.00438457
0.00469291
0.00443232
0.0045208
0.0051256
0.0054163
0.00534462
0.00544055
0.0056044
0.00548352
0.00525041
0.00524825
0.00542703
0.00546713
0.00527814
0.00509783
0.00508159
0.00521287
0.003832
0.00395353
0.00435125
0.00468522
0.00450113
0.00450713
0.00502975
0.00538149
0.00534259
0.00536593
0.00551077
0.00545914
0.00524307
0.00515703
0.005268
0.0053515
0.00524406
0.00508885
0.00505128
0.00514036
0.00390828
0.0040033
0.0043281
0.00466823
0.00455964
0.00451028
0.00494004
0.00532368
0.00533323
0.00530715
0.00541503
0.00541608
0.00523885
0.00510032
0.00513758
0.0052241
0.00518843
0.00507068
0.0050244
0.00508798
0.00397804
0.00405467
0.00431504
0.00464509
0.00460533
0.00452607
0.00486123
0.00524928
0.00531142
0.00526075
0.00532466
0.00535669
0.00522836
0.00507007
0.00504245
0.00510243
0.00511229
0.00504339
0.00499294
0.00503943
0.00404165
0.00410602
0.00431151
0.00461897
0.00463745
0.00454937
0.00479587
0.00516546
0.00527553
0.00522203
0.00524479
0.00528585
0.00520499
0.00505311
0.00497933
0.00500264
0.00502386
0.00500263
0.00496143
0.0049836
0.0040996
0.00415603
0.0043164
0.00459254
0.00465614
0.0045751
0.00474686
0.00507863
0.00522566
0.00518634
0.00517646
0.00521042
0.0051672
0.00503766
0.00494104
0.00493194
0.00493981
0.0049454
0.00493039
0.00492558
0.00415235
0.00420362
0.0043282
0.00456807
0.00466275
0.00459897
0.00471098
0.00499447
0.00516344
0.00514932
0.0051195
0.0051369
0.00511815
0.00501658
0.00491393
0.00488643
0.0048764
0.00487846
0.00489357
0.00487509
0.00420039
0.00424804
0.00434518
0.00454701
0.00465969
0.00461848
0.00468466
0.00491728
0.00509239
0.00510623
0.00507166
0.00507057
0.00506154
0.00498773
0.00488852
0.00485559
0.00483914
0.00481704
0.00484475
0.00483607
0.00424415
0.00428876
0.00436554
0.00453027
0.00464931
0.00463162
0.00466629
0.00484893
0.00501745
0.00505496
0.00502858
0.00501505
0.00500338
0.00495189
0.00486119
0.00482494
0.00482146
0.00477769
0.00478722
0.00480049
0.00428404
0.00432549
0.00438753
0.00451832
0.00463386
0.00463778
0.00465372
0.00479013
0.00494274
0.00499737
0.00498458
0.00496827
0.00495071
0.00491109
0.0048327
0.00478814
0.00480542
0.00476549
0.00473615
0.00475755
0.00432035
0.0043581
0.0044096
0.00451106
0.00461578
0.00463677
0.00464432
0.00474131
0.0048712
0.00493538
0.00493714
0.00492631
0.00490631
0.00487017
0.00480462
0.00474873
0.00477462
0.00476827
0.00470891
0.0047092
0.00435328
0.00438679
0.00443046
0.004508
0.00459715
0.00462912
0.00463529
0.00470198
0.00480611
0.00487108
0.00488588
0.00488483
0.00486851
0.00483293
0.00477763
0.00471414
0.00472758
0.00476175
0.00470811
0.00467157
0.00438296
0.0044118
0.00444912
0.00450821
0.00457975
0.0046161
0.00462476
0.00467027
0.00474964
0.00480797
0.00483109
0.00484114
0.00483449
0.00480063
0.00475201
0.0046881
0.00467673
0.00473065
0.00471582
0.00465783
0.00440946
0.00443342
0.00446448
0.00451077
0.00456496
0.00459948
0.00461169
0.00464359
0.00470167
0.00475012
0.0047751
0.00479334
0.00480022
0.0047734
0.00472788
0.00466945
0.00463414
0.00467991
0.00470888
0.0046631
0.00443279
0.00445177
0.00447705
0.00451367
0.00455328
0.00458152
0.00459569
0.00461986
0.0046616
0.00469912
0.00472157
0.00474274
0.0047617
0.00474853
0.00470645
0.00465433
0.00460665
0.00462561
0.00467767
0.00466776
0.00445295
0.00446765
0.00448683
0.00451575
0.00454433
0.00456436
0.00457735
0.00459721
0.00462797
0.00465508
0.00467312
0.00469261
0.00471805
0.00472134
0.00468786
0.00464056
0.00459149
0.00458301
0.00463134
0.00465512
0.00446997
0.00448118
0.00449446
0.00451652
0.00453721
0.00454923
0.00455811
0.0045744
0.00459864
0.00461802
0.00463058
0.00464635
0.00467227
0.00468863
0.00466966
0.00462814
0.00458264
0.00455738
0.00458479
0.00462368
0.00448398
0.00449245
0.00450045
0.00451589
0.00453073
0.00453632
0.00453981
0.00455165
0.00457151
0.00458663
0.00459422
0.00460543
0.00462824
0.00465151
0.00464836
0.00461658
0.00457631
0.00454481
0.00455015
0.00458404
0.0044952
0.00450143
0.00450514
0.00451417
0.00452417
0.00452529
0.00452354
0.00453002
0.0045457
0.00455876
0.00456373
0.00457037
0.00458858
0.00461329
0.00462251
0.00460392
0.0045706
0.0045389
0.0045289
0.00454761
0.00450391
0.0045082
0.00450863
0.00451188
0.00451737
0.00451542
0.00450939
0.00451039
0.00452156
0.00453325
0.00453776
0.00454118
0.00455422
0.00457676
0.00459346
0.00458802
0.00456407
0.00453554
0.00451716
0.00452033
0.00451028
0.00451289
0.00451093
0.00450941
0.00451051
0.00450623
0.00449719
0.00449326
0.00449966
0.00450983
0.00451516
0.00451748
0.00452578
0.00454388
0.00456299
0.00456784
0.00455411
0.00453115
0.00451043
0.00450181
0.00451444
0.00451571
0.00451192
0.00450675
0.00450378
0.00449758
0.00448658
0.00447862
0.00448035
0.00448859
0.00449502
0.00449779
0.00450334
0.00451709
0.0045353
0.00454625
0.00454153
0.00452406
0.00450231
0.0044849
0.00451757
0.00451765
0.00451295
0.0045054
0.00449895
0.00449127
0.00447974
0.00446926
0.00446683
0.00447252
0.0044796
0.00448378
0.00448798
0.00449767
0.00451326
0.00452764
0.00453167
0.00452255
0.00450432
0.00448332
0.00451831
0.00451655
0.00451007
0.0045003
0.00449001
0.0044793
0.00446648
0.00445433
0.00444856
0.00445084
0.00445679
0.00446166
0.00446568
0.00447275
0.00448463
0.00449738
0.00450373
0.0044991
0.00448434
0.00446352
0.0215183
0.0149424
0.00643651
0.000383094
-0.00127124
-0.000363654
0.00085348
0.0016228
0.00197701
0.00209848
0.00208074
0.00202629
0.00205959
0.00218659
0.00229768
0.00231459
0.00230778
0.00235745
0.00240741
0.00244431
0.00249131
0.00249045
0.00247771
0.00251889
0.00256207
0.00258017
0.00258475
0.00258214
0.00259022
0.00259519
0.00259804
0.00262989
0.00268025
0.00271119
0.00272627
0.002763
0.00280871
0.0028293
0.00284507
0.00286379
0.00289029
0.00295402
0.00301544
0.00304069
0.0030896
0.00316532
0.00320421
0.00323063
0.00329681
0.00338088
0.00345694
0.00354648
0.00365801
0.00378203
0.00391115
0.00403344
0.00413363
0.00422456
0.00432535
0.00443619
0.0045512
0.00466924
0.00479097
0.00491069
0.00503321
0.00515832
0.00528808
0.00541779
0.00555021
0.0056853
0.00582212
0.0059623
0.00610237
0.00624725
0.00639179
0.00654092
0.00669134
0.00684388
0.00700092
0.00715635
0.00731945
0.00747937
0.00764654
0.0078143
0.00798277
0.0081605
0.00833035
0.00851533
0.00869277
0.00887795
0.00907016
0.00925466
0.00945677
0.00965379
0.00985558
0.0100673
0.0102927
0.0105007
0.0107628
0.0110669
0.0207182
0.014816
0.00653346
0.000522053
-0.00118617
-0.000320976
0.000881154
0.00164291
0.001992
0.00211024
0.00209027
0.002034
0.00206602
0.00219232
0.002303
0.0023194
0.002312
0.00236131
0.00241098
0.00244754
0.00249439
0.00249334
0.00248024
0.00252121
0.00256424
0.00258216
0.00258659
0.00258382
0.00259177
0.00259665
0.00259936
0.0026311
0.00268141
0.0027123
0.00272729
0.00276392
0.0028096
0.00283014
0.00284584
0.0028645
0.00289092
0.00295458
0.003016
0.00304119
0.00309002
0.00316572
0.00320459
0.00323095
0.00329708
0.00338113
0.00345717
0.00354667
0.00365817
0.00378217
0.00391128
0.00403356
0.00413375
0.00422464
0.00432543
0.00443626
0.00455126
0.00466928
0.00479101
0.00491072
0.00503324
0.00515834
0.0052881
0.00541781
0.00555022
0.00568531
0.00582213
0.00596231
0.00610237
0.00624725
0.00639179
0.00654092
0.00669134
0.00684388
0.00700092
0.00715635
0.00731945
0.00747937
0.00764653
0.0078143
0.00798277
0.0081605
0.00833035
0.00851533
0.00869277
0.00887795
0.00907016
0.00925466
0.00945677
0.00965379
0.00985558
0.0100673
0.0102927
0.0105007
0.0107628
0.0110669
0.0200151
0.0147112
0.00674833
0.000800138
-0.0010346
-0.00026574
0.000904811
0.0016605
0.00200746
0.00212333
0.00210121
0.00204311
0.00207345
0.00219835
0.00230804
0.00232373
0.00231581
0.00236481
0.00241411
0.00245028
0.00249701
0.0024958
0.00248245
0.0025233
0.00256618
0.00258388
0.00258818
0.00258526
0.0025931
0.00259787
0.00260046
0.00263212
0.0026824
0.00271324
0.00272813
0.00276471
0.00281037
0.00283084
0.00284648
0.0028651
0.00289145
0.00295507
0.00301649
0.00304161
0.00309038
0.00316609
0.00320492
0.0032312
0.0032973
0.00338136
0.00345736
0.00354683
0.00365831
0.0037823
0.0039114
0.00403369
0.00413385
0.00422472
0.00432549
0.00443631
0.00455131
0.00466933
0.00479104
0.00491075
0.00503326
0.00515836
0.00528812
0.00541782
0.00555023
0.00568532
0.00582214
0.00596231
0.00610237
0.00624726
0.00639179
0.00654092
0.00669134
0.00684388
0.00700092
0.00715635
0.00731945
0.00747937
0.00764653
0.0078143
0.00798277
0.0081605
0.00833035
0.00851533
0.00869278
0.00887795
0.00907016
0.00925466
0.00945677
0.00965379
0.00985558
0.0100673
0.0102927
0.0105007
0.0107628
0.011067
0.0193383
0.0145949
0.00700506
0.00114645
-0.000827565
-0.000188354
0.000938054
0.00168547
0.00202972
0.00214167
0.0021162
0.00205609
0.00208443
0.00220684
0.00231453
0.00232927
0.00232097
0.00236956
0.00241809
0.00245343
0.00249979
0.00249854
0.00248519
0.00252599
0.00256862
0.00258603
0.00259013
0.00258702
0.0025947
0.00259934
0.00260176
0.00263332
0.00268354
0.00271432
0.00272913
0.00276566
0.00281128
0.00283166
0.00284723
0.00286583
0.00289209
0.00295568
0.00301709
0.00304214
0.00309084
0.00316656
0.00320533
0.00323152
0.0032976
0.00338164
0.00345759
0.00354703
0.00365849
0.00378246
0.00391156
0.00403385
0.00413398
0.00422482
0.00432557
0.00443638
0.00455137
0.00466938
0.00479109
0.0049108
0.0050333
0.00515839
0.00528814
0.00541784
0.00555025
0.00568533
0.00582215
0.00596232
0.00610238
0.00624726
0.0063918
0.00654092
0.00669134
0.00684388
0.00700092
0.00715635
0.00731945
0.00747937
0.00764653
0.0078143
0.00798276
0.0081605
0.00833035
0.00851533
0.00869278
0.00887795
0.00907017
0.00925466
0.00945677
0.00965379
0.00985558
0.0100673
0.0102927
0.0105007
0.0107627
0.0110671
0.0186544
0.0144434
0.00726349
0.00151269
-0.000598779
-0.000100108
0.000975654
0.00171487
0.00205748
0.00216506
0.00213567
0.00207377
0.00209997
0.00221867
0.00232307
0.0023365
0.00232801
0.0023762
0.00242365
0.00245757
0.00250301
0.00250171
0.00248868
0.00252951
0.00257179
0.00258888
0.0025928
0.00258946
0.00259687
0.00260129
0.00260352
0.00263488
0.00268494
0.00271567
0.00273046
0.00276693
0.00281243
0.00283267
0.00284821
0.00286681
0.002893
0.00295651
0.00301791
0.0030429
0.00309155
0.00316723
0.00320591
0.003232
0.00329804
0.00338205
0.00345794
0.00354733
0.00365877
0.00378271
0.0039118
0.00403409
0.00413418
0.00422496
0.00432569
0.0044365
0.00455148
0.00466947
0.00479117
0.00491086
0.00503335
0.00515844
0.00528818
0.00541787
0.00555028
0.00568535
0.00582217
0.00596234
0.00610239
0.00624727
0.0063918
0.00654093
0.00669135
0.00684388
0.00700093
0.00715635
0.00731945
0.00747937
0.00764653
0.0078143
0.00798276
0.0081605
0.00833035
0.00851533
0.00869278
0.00887795
0.00907017
0.00925466
0.00945677
0.00965379
0.00985558
0.0100673
0.0102927
0.0105007
0.0107627
0.0110673
0.0179637
0.0142523
0.00751577
0.00188865
-0.00035701
-6.14501e-06
0.00101393
0.00174539
0.00208791
0.00219142
0.00215809
0.00209475
0.00211889
0.00223316
0.00233346
0.00234544
0.0023369
0.00238465
0.0024309
0.002463
0.00250698
0.00250558
0.0024931
0.00253389
0.00257562
0.00259238
0.00259627
0.00259277
0.00259987
0.00260402
0.002606
0.00263697
0.0026867
0.00271739
0.00273228
0.00276868
0.00281394
0.00283396
0.0028495
0.00286819
0.00289429
0.00295767
0.00301905
0.00304406
0.00309265
0.00316821
0.00320676
0.00323276
0.00329872
0.00338265
0.00345846
0.00354781
0.0036592
0.00378309
0.00391218
0.00403446
0.00413449
0.0042252
0.00432589
0.00443668
0.00455164
0.00466961
0.0047913
0.00491097
0.00503344
0.00515851
0.00528825
0.00541793
0.00555032
0.00568539
0.0058222
0.00596236
0.00610241
0.00624729
0.00639182
0.00654094
0.00669136
0.00684388
0.00700093
0.00715635
0.00731945
0.00747937
0.00764653
0.0078143
0.00798276
0.00816051
0.00833035
0.00851532
0.00869278
0.00887794
0.00907017
0.00925466
0.00945677
0.00965379
0.00985558
0.0100673
0.0102927
0.0105007
0.0107627
0.0110675
0.0172768
0.0140289
0.00776201
0.00227211
-0.000104247
9.24359e-05
0.00105197
0.00177598
0.00212003
0.00221989
0.00218238
0.0021175
0.00213953
0.00224911
0.00234506
0.00235563
0.00234713
0.00239433
0.00243935
0.00246954
0.00251185
0.00251045
0.00249865
0.00253918
0.00258001
0.00259631
0.00260032
0.00259688
0.00260374
0.0026077
0.00260943
0.0026398
0.00268892
0.00271953
0.00273465
0.00277104
0.00281594
0.00283564
0.00285121
0.00287007
0.00289607
0.0029592
0.00302057
0.00304574
0.00309429
0.00316965
0.00320805
0.00323397
0.00329979
0.00338355
0.00345925
0.00354852
0.00365983
0.00378367
0.00391274
0.004035
0.00413496
0.00422557
0.00432621
0.00443697
0.00455191
0.00466985
0.0047915
0.00491114
0.00503359
0.00515864
0.00528836
0.00541802
0.0055504
0.00568546
0.00582225
0.00596241
0.00610245
0.00624732
0.00639184
0.00654096
0.00669137
0.0068439
0.00700094
0.00715635
0.00731945
0.00747937
0.00764653
0.00781431
0.00798276
0.00816051
0.00833035
0.00851532
0.00869278
0.00887794
0.00907017
0.00925465
0.00945677
0.00965379
0.00985557
0.0100673
0.0102926
0.0105006
0.0107626
0.0110677
0.0166053
0.0137775
0.00799818
0.0026595
0.000158633
0.000195789
0.00108962
0.00180615
0.00215353
0.00225037
0.00220819
0.00214128
0.00216106
0.00226593
0.00235746
0.00236665
0.00235819
0.00240469
0.00244836
0.00247664
0.00251741
0.0025163
0.00250536
0.00254539
0.00258492
0.0026005
0.00260463
0.00260143
0.00260824
0.00261224
0.00261391
0.00264351
0.00269171
0.00272214
0.00273758
0.00277398
0.00281846
0.0028378
0.00285344
0.00287257
0.00289844
0.00296112
0.00302247
0.00304797
0.00309654
0.00317161
0.0032099
0.00323579
0.00330141
0.00338487
0.00346039
0.00354954
0.00366071
0.00378446
0.00391354
0.00403578
0.00413565
0.00422614
0.0043267
0.00443741
0.00455231
0.00467021
0.0047918
0.0049114
0.00503383
0.00515885
0.00528853
0.00541817
0.00555053
0.00568557
0.00582235
0.00596249
0.00610251
0.00624737
0.00639189
0.00654099
0.0066914
0.00684392
0.00700096
0.00715636
0.00731946
0.00747938
0.00764653
0.00781431
0.00798276
0.00816051
0.00833034
0.00851532
0.00869278
0.00887794
0.00907017
0.00925465
0.00945676
0.00965379
0.00985557
0.0100673
0.0102926
0.0105006
0.0107625
0.0110679
0.015958
0.0134991
0.00821705
0.00304761
0.000432075
0.00030504
0.0011272
0.00183549
0.00218822
0.00228296
0.00223553
0.0021659
0.00218324
0.00228344
0.00237051
0.00237822
0.00236978
0.00241551
0.00245771
0.002484
0.00252332
0.00252281
0.00251298
0.00255242
0.00259033
0.0026049
0.00260903
0.00260611
0.00261302
0.00261735
0.00261923
0.00264807
0.00269514
0.00272525
0.00274101
0.00277739
0.00282141
0.0028404
0.00285619
0.00287573
0.00290146
0.00296346
0.00302469
0.00305069
0.00309932
0.00317405
0.00321231
0.00323831
0.00330369
0.00338676
0.00346203
0.00355096
0.00366187
0.00378546
0.00391453
0.00403679
0.00413658
0.00422695
0.00432739
0.00443803
0.00455288
0.00467072
0.00479225
0.00491179
0.00503417
0.00515915
0.00528879
0.0054184
0.00555072
0.00568574
0.00582249
0.00596261
0.00610262
0.00624746
0.00639196
0.00654105
0.00669145
0.00684395
0.00700099
0.00715638
0.00731948
0.00747939
0.00764654
0.00781431
0.00798276
0.00816051
0.00833034
0.00851532
0.00869278
0.00887794
0.00907018
0.00925465
0.00945676
0.00965378
0.00985556
0.0100673
0.0102926
0.0105005
0.0107623
0.0110682
0.0153408
0.0131946
0.0084127
0.00343427
0.000717272
0.000421971
0.00116547
0.00186386
0.00222383
0.00231775
0.00226458
0.0021914
0.00220604
0.00230158
0.0023841
0.0023902
0.00238175
0.00242677
0.00246749
0.0024917
0.00252945
0.00252965
0.00252114
0.00256003
0.00259618
0.00260953
0.00261354
0.00261085
0.00261788
0.00262273
0.00262508
0.00265328
0.00269915
0.00272885
0.00274486
0.00278115
0.00282465
0.00284332
0.0028594
0.00287951
0.00290512
0.00296624
0.00302722
0.00305378
0.00310247
0.00317678
0.00321515
0.00324146
0.00330665
0.00338929
0.00346427
0.0035529
0.00366338
0.00378665
0.00391567
0.00403798
0.00413773
0.004228
0.00432832
0.00443885
0.00455363
0.00467139
0.00479283
0.00491231
0.00503464
0.00515957
0.00528915
0.00541871
0.005551
0.00568598
0.00582269
0.00596279
0.00610277
0.00624759
0.00639206
0.00654113
0.00669152
0.00684401
0.00700103
0.00715642
0.0073195
0.00747941
0.00764655
0.00781432
0.00798276
0.00816051
0.00833034
0.00851532
0.00869278
0.00887793
0.00907017
0.00925464
0.00945676
0.00965378
0.00985555
0.0100673
0.0102925
0.0105004
0.0107622
0.0110684
0.0147575
0.012869
0.00858034
0.00381705
0.00101518
0.000548677
0.00120545
0.001891
0.00225974
0.00235455
0.00229548
0.00221796
0.00222953
0.00232037
0.00239826
0.0024026
0.0023941
0.00243853
0.0024779
0.00249996
0.00253586
0.00253663
0.00252957
0.00256802
0.00260236
0.00261439
0.00261824
0.00261577
0.0026229
0.00262828
0.00263123
0.00265892
0.0027036
0.00273286
0.00274908
0.00278518
0.00282809
0.00284646
0.00286292
0.00288378
0.00290935
0.00296945
0.00303004
0.00305716
0.00310586
0.00317965
0.0032182
0.00324504
0.00331016
0.0033924
0.00346713
0.00355542
0.00366532
0.00378807
0.00391689
0.00403922
0.00413903
0.00422927
0.00432948
0.00443988
0.00455456
0.00467223
0.00479357
0.00491296
0.00503524
0.0051601
0.00528962
0.00541911
0.00555135
0.00568629
0.00582296
0.00596302
0.00610297
0.00624776
0.00639221
0.00654125
0.00669162
0.00684409
0.0070011
0.00715647
0.00731954
0.00747944
0.00764657