/*--------------------------------*- C++ -*----------------------------------*\
| =========                 |                                                 |
| \\      /  F ield         | OpenFOAM: The Open Source CFD Toolbox           |
|  \\    /   O peration     | Version:  v1912                                 |
|   \\  /    A nd           | Website:  www.openfoam.com                      |
|    \\/     M anipulation  |                                                 |
\*---------------------------------------------------------------------------*/
FoamFile
{
    version     2.0;
    format      ascii;
    class       volVectorField;
    location    "5.15";
    object      U;
}
// * * * * * * * * * * * * * * * * * * * * * * * * * * * * * * * * * * * * * //

dimensions      [0 1 -1 0 0 0 0];


internalField   nonuniform List<vector> 
9600
(
(0.917369 0.00725708 0)
(1.12361 0.00765468 0)
(0.943268 -0.00439473 0)
(1.00974 -0.0169524 0)
(0.918349 0.0235547 0)
(1.1665 -0.010264 0)
(0.683231 0.00215884 0)
(1.25469 0.0126516 0)
(0.720955 -0.0146238 0)
(1.184 0.00851734 0)
(0.837872 0.00512325 0)
(1.08964 0.0273754 0)
(0.928448 0.014429 0)
(1.06848 0.0124156 0)
(0.940216 0.014388 0)
(1.05612 -0.00200511 0)
(0.90325 0.01507 0)
(1.05752 -0.0110717 0)
(0.846476 0.00808626 0)
(1.07577 -0.0127485 0)
(0.921315 0.00696211 0)
(1.11474 0.00759484 0)
(0.951802 -0.00351274 0)
(1.0074 -0.0166301 0)
(0.921055 0.0220496 0)
(1.15589 -0.00721609 0)
(0.696428 0.00077101 0)
(1.2377 0.0126337 0)
(0.755688 -0.0140725 0)
(1.17327 0.00737371 0)
(0.865299 0.0062608 0)
(1.07565 0.0265646 0)
(0.959635 0.0147019 0)
(1.04529 0.0123745 0)
(0.980656 0.0145473 0)
(1.01652 -0.000769267 0)
(0.960607 0.0147955 0)
(0.993144 -0.0095832 0)
(0.939457 0.00826405 0)
(0.968567 -0.0131242 0)
(0.929876 0.00664305 0)
(1.09785 0.0075097 0)
(0.964632 -0.00281087 0)
(1.00286 -0.016322 0)
(0.927176 0.0205099 0)
(1.13827 -0.00502116 0)
(0.730175 -0.000505696 0)
(1.2001 0.0122482 0)
(0.816398 -0.0136489 0)
(1.14003 0.00604061 0)
(0.915381 0.00762979 0)
(1.05024 0.025138 0)
(0.993213 0.0150993 0)
(1.02321 0.0120037 0)
(1.006 0.0151208 0)
(1.00026 -0.000278752 0)
(0.983224 0.0148763 0)
(0.984562 -0.00834192 0)
(0.966091 0.00746047 0)
(0.968491 -0.00922357 0)
(0.942053 0.00642012 0)
(1.07638 0.0073608 0)
(0.979012 -0.00220666 0)
(0.997327 -0.0159452 0)
(0.936461 0.019264 0)
(1.11429 -0.00311198 0)
(0.782418 -0.00129906 0)
(1.14549 0.0114022 0)
(0.886843 -0.0130337 0)
(1.09022 0.00486876 0)
(0.960651 0.00870983 0)
(1.02742 0.0240235 0)
(1.00849 0.0153888 0)
(1.01073 0.0117951 0)
(1.00918 0.0155335 0)
(0.995955 0.000326959 0)
(0.986029 0.0152895 0)
(0.982329 -0.00806593 0)
(0.970884 0.00833155 0)
(0.968198 -0.00856173 0)
(0.95597 0.00627628 0)
(1.0544 0.00717867 0)
(0.991774 -0.00168414 0)
(0.992585 -0.015522 0)
(0.947389 0.018203 0)
(1.08717 -0.00165699 0)
(0.841898 -0.00163679 0)
(1.08681 0.0102534 0)
(0.944766 -0.0123588 0)
(1.04162 0.00397289 0)
(0.984896 0.00934405 0)
(1.01204 0.0234424 0)
(1.00984 0.0155862 0)
(1.00335 0.011856 0)
(1.00394 0.015802 0)
(0.994407 0.00104088 0)
(0.984239 0.0152248 0)
(0.98309 -0.00711966 0)
(0.971747 0.00824512 0)
(0.96992 -0.00727435 0)
(0.969586 0.00618379 0)
(1.03559 0.00699155 0)
(1.00059 -0.00126794 0)
(0.989879 -0.0150905 0)
(0.957898 0.0173301 0)
(1.06175 -0.000692425 0)
(0.895265 -0.00156477 0)
(1.03854 0.00903135 0)
(0.979937 -0.0117903 0)
(1.00771 0.00350166 0)
(0.991344 0.00961939 0)
(1.00194 0.0231665 0)
(1.00665 0.0157319 0)
(0.999134 0.0119886 0)
(0.999159 0.0160132 0)
(0.994741 0.00156621 0)
(0.984193 0.0151945 0)
(0.986062 -0.00633016 0)
(0.97446 0.00804307 0)
(0.973705 -0.00579391 0)
(0.981319 0.00611927 0)
(1.02207 0.00683195 0)
(1.00494 -0.000956971 0)
(0.989263 -0.0146779 0)
(0.966596 0.0166692 0)
(1.04191 -0.000163942 0)
(0.9348 -0.00119842 0)
(1.0076 0.00797967 0)
(0.995303 -0.0113654 0)
(0.990352 0.00338352 0)
(0.990339 0.00966933 0)
(0.995724 0.0229404 0)
(1.00407 0.0157853 0)
(0.998036 0.0120922 0)
(0.997759 0.0161162 0)
(0.996745 0.00202979 0)
(0.98667 0.0150776 0)
(0.990048 -0.00552725 0)
(0.97911 0.00784822 0)
(0.978578 -0.00430814 0)
(0.990407 0.00605873 0)
(1.01396 0.00672628 0)
(1.00591 -0.000729071 0)
(0.989864 -0.0143027 0)
(0.973394 0.0161801 0)
(1.02879 5.92038e-05 0)
(0.95998 -0.000686652 0)
(0.992377 0.00719667 0)
(0.999049 -0.0110544 0)
(0.983899 0.00340806 0)
(0.988758 0.00961041 0)
(0.993144 0.0226471 0)
(1.00338 0.0157414 0)
(0.999127 0.012132 0)
(0.999129 0.0161633 0)
(0.999627 0.00244267 0)
(0.990479 0.0148762 0)
(0.994106 -0.00470153 0)
(0.984491 0.00755239 0)
(0.983767 -0.00284486 0)
(0.996853 0.00598176 0)
(1.00998 0.00668415 0)
(1.00523 -0.000554684 0)
(0.990684 -0.0139779 0)
(0.979139 0.0158014 0)
(1.02103 0.000111303 0)
(0.974472 -0.000135496 0)
(0.987513 0.00664978 0)
(0.998412 -0.0107938 0)
(0.982157 0.003445 0)
(0.988186 0.0095062 0)
(0.993103 0.0222801 0)
(1.00393 0.0156404 0)
(1.00094 0.0121112 0)
(1.00151 0.016176 0)
(1.00253 0.00283099 0)
(0.994501 0.0146113 0)
(0.997818 -0.00385076 0)
(0.989704 0.00717297 0)
(0.98876 -0.00140693 0)
(1.00108 0.00587733 0)
(1.00846 0.00669999 0)
(1.00434 -0.000407203 0)
(0.991164 -0.0137121 0)
(0.984754 0.0154859 0)
(1.01642 9.02875e-05 0)
(0.982682 0.000385785 0)
(0.988172 0.00626703 0)
(0.997483 -0.0105214 0)
(0.981729 0.00346055 0)
(0.987942 0.00937128 0)
(0.993903 0.0218552 0)
(1.00469 0.0155184 0)
(1.00248 0.0120394 0)
(1.00372 0.0161611 0)
(1.00501 0.00320497 0)
(0.998243 0.0142787 0)
(1.00109 -0.00296662 0)
(0.994366 0.00672738 0)
(0.993188 -4.33323e-05 0)
(1.00355 0.00574421 0)
(1.00809 0.00675861 0)
(1.00405 -0.000267436 0)
(0.991219 -0.0135106 0)
(0.990593 0.0152053 0)
(1.01329 5.44609e-05 0)
(0.987834 0.000838793 0)
(0.991307 0.00598629 0)
(0.997595 -0.0102006 0)
(0.981726 0.00346994 0)
(0.98766 0.0092135 0)
(0.994594 0.0213783 0)
(1.00527 0.0153882 0)
(1.00362 0.0119231 0)
(1.00556 0.0161153 0)
(1.00715 0.00356481 0)
(1.00164 0.0138812 0)
(1.00391 -0.00204842 0)
(0.998316 0.00624305 0)
(0.996821 0.00124433 0)
(1.0046 0.00558786 0)
(1.00814 0.00684003 0)
(1.00462 -0.000123982 0)
(0.990999 -0.0133719 0)
(0.996305 0.0149459 0)
(1.01095 3.70571e-05 0)
(0.991595 0.00120363 0)
(0.995215 0.00576948 0)
(0.998564 -0.00982112 0)
(0.982299 0.00349612 0)
(0.987736 0.00904615 0)
(0.995328 0.0208526 0)
(1.00597 0.0152479 0)
(1.00474 0.01177 0)
(1.00729 0.0160241 0)
(1.00916 0.00390795 0)
(1.00469 0.0134351 0)
(1.00626 -0.00110338 0)
(1.00145 0.00575267 0)
(0.999542 0.00247121 0)
(1.00447 0.00541733 0)
(1.00823 0.00692298 0)
(1.00596 2.85002e-05 0)
(0.990709 -0.0132832 0)
(1.00109 0.0146997 0)
(1.00931 5.48185e-05 0)
(0.9945 0.00147692 0)
(0.998895 0.00559445 0)
(0.999771 -0.00938464 0)
(0.983548 0.00354576 0)
(0.988627 0.00887667 0)
(0.996595 0.0202796 0)
(1.00712 0.0151034 0)
(1.00611 0.0115871 0)
(1.00903 0.0158817 0)
(1.01103 0.00425102 0)
(1.00726 0.0129566 0)
(1.00805 -0.000126313 0)
(1.00373 0.00529088 0)
(1.00135 0.00360299 0)
(1.0034 0.00524322 0)
(1.00818 0.00698767 0)
(1.00783 0.000189947 0)
(0.990535 -0.0132193 0)
(1.0042 0.0144573 0)
(1.00839 0.000108234 0)
(0.996569 0.00166814 0)
(1.00175 0.00545476 0)
(1.00079 -0.00890935 0)
(0.985181 0.0036013 0)
(0.990253 0.00869921 0)
(0.998408 0.0196663 0)
(1.00855 0.0149594 0)
(1.00751 0.0113951 0)
(1.01052 0.0157041 0)
(1.01248 0.00460949 0)
(1.00912 0.0124677 0)
(1.00918 0.000875029 0)
(1.00526 0.00490425 0)
(1.00239 0.00461143 0)
(1.00176 0.0050759 0)
(1.0079 0.00701819 0)
(1.0099 0.000355823 0)
(0.990608 -0.0131482 0)
(1.00532 0.0142084 0)
(1.00802 0.000184835 0)
(0.997781 0.00179525 0)
(1.00354 0.00534818 0)
(1.00156 -0.00841878 0)
(0.986717 0.00364338 0)
(0.99204 0.00850581 0)
(1.00019 0.019029 0)
(1.00964 0.0148221 0)
(1.00842 0.0112148 0)
(1.01134 0.015508 0)
(1.01319 0.00498985 0)
(1.01011 0.0119841 0)
(1.00961 0.00188876 0)
(1.00621 0.00461924 0)
(1.00289 0.00547295 0)
(0.999927 0.00492353 0)
(1.00739 0.00700542 0)
(1.01185 0.000517951 0)
(0.990972 -0.0130394 0)
(1.00475 0.013945 0)
(1.0079 0.000269226 0)
(0.998276 0.00187891 0)
(1.00432 0.00526219 0)
(1.00222 -0.00792294 0)
(0.987829 0.00367325 0)
(0.993373 0.00830068 0)
(1.00126 0.0183866 0)
(1.00984 0.0147008 0)
(1.00841 0.0110535 0)
(1.01122 0.0152959 0)
(1.01303 0.00539157 0)
(1.01027 0.011517 0)
(1.00942 0.0028754 0)
(1.00675 0.00443394 0)
(1.0031 0.00618415 0)
(0.998242 0.00479055 0)
(1.00674 0.00694782 0)
(1.01342 0.00066766 0)
(0.991591 -0.0128719 0)
(1.00314 0.0136653 0)
(1.00779 0.000349014 0)
(0.99831 0.00193434 0)
(1.00432 0.00518609 0)
(1.0029 -0.0074329 0)
(0.988489 0.00370827 0)
(0.993984 0.0080965 0)
(1.00131 0.0177516 0)
(1.00899 0.0146005 0)
(1.00746 0.0109132 0)
(1.01026 0.0150587 0)
(1.01217 0.00579829 0)
(1.00983 0.011061 0)
(1.00879 0.00380227 0)
(1.00703 0.00434234 0)
(1.00319 0.00673045 0)
(0.996886 0.00467727 0)
(1.00608 0.00685055 0)
(1.0145 0.00079825 0)
(0.992372 -0.0126369 0)
(1.00112 0.0133719 0)
(1.00759 0.000417291 0)
(0.998123 0.00197033 0)
(1.00382 0.00511283 0)
(1.00364 -0.00696119 0)
(0.988872 0.00376865 0)
(0.993987 0.00791577 0)
(1.00052 0.0171327 0)
(1.00737 0.0145209 0)
(1.00591 0.0107807 0)
(1.00881 0.0147927 0)
(1.01089 0.00618219 0)
(1.00911 0.0106178 0)
(1.00792 0.00464874 0)
(1.00712 0.00432926 0)
(1.00323 0.00710479 0)
(0.995895 0.00457977 0)
(1.00556 0.00672499 0)
(1.01507 0.00090748 0)
(0.993194 -0.012335 0)
(0.999196 0.0130683 0)
(1.00732 0.000472959 0)
(0.997884 0.00199392 0)
(1.003 0.00503426 0)
(1.00441 -0.00651497 0)
(0.989179 0.0038698 0)
(0.993662 0.00777275 0)
(0.999319 0.0165441 0)
(1.00543 0.0144509 0)
(1.00417 0.0106412 0)
(1.00723 0.0145051 0)
(1.00948 0.00652312 0)
(1.00832 0.0101812 0)
(1.00697 0.0053938 0)
(1.00709 0.00438126 0)
(1.00324 0.00731831 0)
(0.995218 0.00449255 0)
(1.00525 0.00658153 0)
(1.01524 0.000996493 0)
(0.993931 -0.0119735 0)
(0.99764 0.0127566 0)
(1.00702 0.000519263 0)
(0.9977 0.00200997 0)
(1.00205 0.00494889 0)
(1.00512 -0.00609745 0)
(0.989537 0.00402017 0)
(0.993269 0.00767762 0)
(0.998105 0.0159821 0)
(1.00355 0.0143906 0)
(1.00257 0.010487 0)
(1.00579 0.0141938 0)
(1.0081 0.00682445 0)
(1.0076 0.00974493 0)
(1.00607 0.00603066 0)
(1.00698 0.00449019 0)
(1.00326 0.00738824 0)
(0.994768 0.00441013 0)
(1.00515 0.00642715 0)
(1.01513 0.00106855 0)
(0.9945 -0.011563 0)
(0.996571 0.0124356 0)
(1.0067 0.000563757 0)
(0.997641 0.00201771 0)
(1.0011 0.00486282 0)
(1.00568 -0.00571514 0)
(0.989986 0.00421261 0)
(0.992966 0.00763831 0)
(0.997156 0.0154377 0)
(1.00197 0.0143363 0)
(1.00128 0.010313 0)
(1.0046 0.0138648 0)
(1.00685 0.00709079 0)
(1.00699 0.00931563 0)
(1.00524 0.00657539 0)
(1.00681 0.00465942 0)
(1.0033 0.00733788 0)
(0.994475 0.00432696 0)
(1.00522 0.00626815 0)
(1.01488 0.0011305 0)
(0.994879 -0.0111145 0)
(0.995961 0.0121037 0)
(1.00635 0.00061219 0)
(0.997735 0.00201846 0)
(1.00028 0.0047759 0)
(1.00604 -0.00537118 0)
(0.990509 0.00443812 0)
(0.992817 0.00765041 0)
(0.996593 0.0149076 0)
(1.00079 0.0142868 0)
(1.00035 0.0101188 0)
(1.00367 0.0135226 0)
(1.00575 0.00733583 0)
(1.00645 0.00888105 0)
(1.0045 0.00703663 0)
(1.00656 0.00488344 0)
(1.00337 0.00717971 0)
(0.994298 0.00423972 0)
(1.00536 0.00610763 0)
(1.01456 0.0011869 0)
(0.995102 -0.0106365 0)
(0.995695 0.0117582 0)
(1.006 0.000670303 0)
(0.997962 0.00200615 0)
(0.999658 0.00469919 0)
(1.00616 -0.00506348 0)
(0.991066 0.00468419 0)
(0.992814 0.00770681 0)
(0.996416 0.0143819 0)
(1 0.0142496 0)
(0.999756 0.00991759 0)
(1.00299 0.0131617 0)
(1.00479 0.00758425 0)
(1.00595 0.00844795 0)
(1.00385 0.00740466 0)
(1.00618 0.00516447 0)
(1.00344 0.00694821 0)
(0.994226 0.0041457 0)
(1.0055 0.00594872 0)
(1.01423 0.00124088 0)
(0.995235 -0.0101352 0)
(0.995633 0.0113989 0)
(1.00567 0.000738815 0)
(0.998274 0.00197656 0)
(0.999259 0.00464528 0)
(1.00602 -0.0047861 0)
(0.99162 0.00493681 0)
(0.992918 0.00779871 0)
(0.996553 0.0138587 0)
(0.999564 0.0142155 0)
(0.999458 0.00973206 0)
(1.00252 0.0127876 0)
(1.00401 0.00783681 0)
(1.00548 0.00803406 0)
(1.0033 0.00765454 0)
(1.00569 0.00550209 0)
(1.0035 0.00669046 0)
(0.994268 0.0040436 0)
(1.00555 0.00579296 0)
(1.01391 0.00129397 0)
(0.995343 -0.00961442 0)
(0.995662 0.0110248 0)
(1.0054 0.00081915 0)
(0.998604 0.00192749 0)
(0.999061 0.00461898 0)
(1.00567 -0.00452377 0)
(0.992139 0.00517746 0)
(0.993091 0.00792553 0)
(0.996905 0.0133231 0)
(0.9994 0.0141886 0)
(0.999401 0.00957875 0)
(1.00224 0.0123974 0)
(1.00342 0.00810315 0)
(1.00502 0.00765424 0)
(1.00288 0.00779049 0)
(1.0051 0.00588809 0)
(1.00354 0.00645322 0)
(0.994436 0.00393345 0)
(1.00548 0.00564151 0)
(1.01359 0.00134347 0)
(0.99548 -0.00907464 0)
(0.995715 0.010634 0)
(1.00521 0.000911913 0)
(0.998891 0.00185576 0)
(0.999017 0.00462732 0)
(1.00515 -0.00426988 0)
(0.992602 0.00538839 0)
(0.993308 0.00808034 0)
(0.997378 0.0127732 0)
(0.999439 0.0141621 0)
(0.99954 0.0094674 0)
(1.00213 0.0119807 0)
(1.00305 0.00839944 0)
(1.00461 0.00734407 0)
(1.00261 0.00780702 0)
(1.00448 0.00630238 0)
(1.00357 0.00629891 0)
(0.994731 0.00381522 0)
(1.00524 0.00549676 0)
(1.01327 0.0013863 0)
(0.995684 -0.00851795 0)
(0.995767 0.0102276 0)
(1.00511 0.00101693 0)
(0.999091 0.00176472 0)
(0.999061 0.00466792 0)
(1.00453 -0.00401346 0)
(0.99299 0.00555254 0)
(0.993556 0.00825308 0)
(0.997897 0.0122148 0)
(0.999616 0.0141067 0)
(0.999828 0.00941815 0)
(1.00218 0.0115323 0)
(1.0029 0.00871325 0)
(1.00429 0.00713455 0)
(1.00254 0.00770621 0)
(1.00392 0.00669509 0)
(1.00358 0.00626428 0)
(0.995141 0.00369014 0)
(1.00486 0.00536181 0)
(1.01295 0.00141563 0)
(0.995967 -0.00794406 0)
(0.995821 0.00980581 0)
(1.0051 0.00113304 0)
(0.999193 0.00165366 0)
(0.999122 0.00474122 0)
(1.00391 -0.00374038 0)
(0.993292 0.00565903 0)
(0.99382 0.00844239 0)
(0.998408 0.011641 0)
(0.999873 0.0140119 0)
(1.00021 0.00944135 0)
(1.00238 0.0110634 0)
(1.00296 0.00900114 0)
(1.00409 0.00705564 0)
(1.00267 0.0075197 0)
(1.0035 0.00701823 0)
(1.0036 0.00636604 0)
(0.995631 0.00355858 0)
(1.00435 0.00524001 0)
(1.01259 0.0014282 0)
(0.996323 -0.00735816 0)
(0.995894 0.00937326 0)
(1.00516 0.00126318 0)
(0.999218 0.00153371 0)
(0.999139 0.00483918 0)
(1.00333 -0.00344305 0)
(0.993512 0.00570492 0)
(0.994078 0.00863729 0)
(0.998875 0.0110754 0)
(1.00016 0.0138574 0)
(1.00063 0.00952886 0)
(1.00267 0.0105884 0)
(1.00319 0.00923255 0)
(1.004 0.00711639 0)
(1.00296 0.00728564 0)
(1.00328 0.00723542 0)
(1.00365 0.00659149 0)
(0.99616 0.00342152 0)
(1.00378 0.005133 0)
(1.01221 0.0014194 0)
(0.996731 -0.00676237 0)
(0.996 0.00893073 0)
(1.00525 0.00140604 0)
(0.999205 0.00141525 0)
(0.999077 0.00494841 0)
(1.00285 -0.00311626 0)
(0.993672 0.0056849 0)
(0.994309 0.00882475 0)
(0.999275 0.0105253 0)
(1.00044 0.0136291 0)
(1.00103 0.00967793 0)
(1.00302 0.0101254 0)
(1.00353 0.00939042 0)
(1.00401 0.00728769 0)
(1.00337 0.00706827 0)
(1.00328 0.00732255 0)
(1.00374 0.0068748 0)
(0.996683 0.00328077 0)
(1.0032 0.00504284 0)
(1.01181 0.00138307 0)
(0.997161 -0.006159 0)
(0.996143 0.00848392 0)
(1.00535 0.00155905 0)
(0.999202 0.00130435 0)
(0.998931 0.00506054 0)
(1.00248 -0.0027586 0)
(0.99381 0.00561068 0)
(0.994493 0.00899771 0)
(0.9996 0.0100015 0)
(1.00068 0.0133135 0)
(1.00135 0.00986386 0)
(1.00338 0.00969643 0)
(1.00392 0.00944671 0)
(1.00409 0.00754196 0)
(1.00382 0.00690939 0)
(1.00348 0.00727674 0)
(1.00388 0.00715103 0)
(0.997162 0.00313553 0)
(1.00266 0.00497104 0)
(1.01139 0.00132364 0)
(0.997582 -0.00555876 0)
(0.996317 0.00803997 0)
(1.00542 0.00172038 0)
(0.999242 0.00121315 0)
(0.998727 0.00516501 0)
(1.0022 -0.00236131 0)
(0.993969 0.00549232 0)
(0.994628 0.0091492 0)
(0.999849 0.00952039 0)
(1.00088 0.0129106 0)
(1.00156 0.0100686 0)
(1.00368 0.00932835 0)
(1.00432 0.00939081 0)
(1.00419 0.00783824 0)
(1.00423 0.00685223 0)
(1.00381 0.00713831 0)
(1.00408 0.00736616 0)
(0.997578 0.0029861 0)
(1.00219 0.00491623 0)
(1.01096 0.00124012 0)
(0.997971 -0.00496178 0)
(0.99651 0.0076036 0)
(1.00543 0.00187687 0)
(0.999339 0.00114548 0)
(0.998501 0.00525762 0)
(1.00201 -0.00193002 0)
(0.994188 0.00533515 0)
(0.994726 0.00927672 0)
(1.00003 0.00908452 0)
(1.00104 0.0124328 0)
(1.00165 0.010267 0)
(1.0039 0.00904426 0)
(1.00466 0.0092308 0)
(1.00429 0.00812213 0)
(1.00455 0.00690347 0)
(1.0042 0.00695031 0)
(1.00432 0.00746398 0)
(0.997925 0.00283311 0)
(1.00181 0.00487666 0)
(1.01053 0.00113732 0)
(0.998317 -0.00437799 0)
(0.996708 0.00718574 0)
(1.00538 0.00202527 0)
(0.999487 0.00111015 0)
(0.998292 0.00533095 0)
(1.0019 -0.00147248 0)
(0.994493 0.00514808 0)
(0.994811 0.00936992 0)
(1.00017 0.0087078 0)
(1.00117 0.0118863 0)
(1.00162 0.0104308 0)
(1.00401 0.00884092 0)
(1.00494 0.00898276 0)
(1.00435 0.00835758 0)
(1.00474 0.00704688 0)
(1.00457 0.0067697 0)
(1.0046 0.00742625 0)
(0.998208 0.00267542 0)
(1.00152 0.00485055 0)
(1.01012 0.00102337 0)
(0.998614 -0.00381552 0)
(0.9969 0.00679496 0)
(1.00526 0.00215903 0)
(0.999667 0.00110396 0)
(0.998124 0.00538851 0)
(1.00183 -0.000990611 0)
(0.994895 0.004949 0)
(0.99491 0.00942023 0)
(1.00026 0.00839295 0)
(1.00132 0.0112974 0)
(1.00152 0.010552 0)
(1.004 0.00871713 0)
(1.00515 0.00867679 0)
(1.00439 0.00852324 0)
(1.00481 0.00726913 0)
(1.00487 0.00664738 0)
(1.00489 0.00727202 0)
(0.998441 0.00251302 0)
(1.0013 0.00483632 0)
(1.00973 0.000900061 0)
(0.998867 -0.00327753 0)
(0.99708 0.00643758 0)
(1.0051 0.00226615 0)
(0.999861 0.00112808 0)
(0.998006 0.00543354 0)
(1.00181 -0.000500243 0)
(0.995387 0.00474788 0)
(0.995042 0.00943479 0)
(1.00034 0.00814756 0)
(1.00149 0.0106761 0)
(1.00138 0.0106143 0)
(1.0039 0.00867644 0)
(1.0053 0.008339 0)
(1.00442 0.00859018 0)
(1.00477 0.00752304 0)
(1.00506 0.00661469 0)
(1.00517 0.00706417 0)
(0.998637 0.0023454 0)
(1.00113 0.0048305 0)
(1.00936 0.000778295 0)
(0.999083 -0.00277379 0)
(0.997242 0.0061195 0)
(1.00491 0.00234633 0)
(1.00005 0.00117603 0)
(0.997932 0.00546028 0)
(1.00182 5.48294e-09 0)
(0.995954 0.00455121 0)
(0.995221 0.00941538 0)
(1.00039 0.00796951 0)
(1.00169 0.0100441 0)
(1.00125 0.010603 0)
(1.0037 0.00871757 0)
(1.00539 0.00800705 0)
(1.00446 0.00855022 0)
(1.00467 0.00777724 0)
(1.00513 0.00666347 0)
(1.0054 0.00686862 0)
(0.998808 0.00217397 0)
(1.00099 0.00482989 0)
(1.00901 0.000660805 0)
(0.999276 -0.00230522 0)
(0.997389 0.00584644 0)
(1.00469 0.0024059 0)
(1.00024 0.00123876 0)
(0.997894 0.00547091 0)
(1.00183 0.000490467 0)
(0.996573 0.00436466 0)
(0.995447 0.00934805 0)
(1.00043 0.00785779 0)
(1.00193 0.00942384 0)
(1.00117 0.0105165 0)
(1.00345 0.00881781 0)
(1.00544 0.00771075 0)
(1.00454 0.00841226 0)
(1.00453 0.00801826 0)
(1.00509 0.00677142 0)
(1.00557 0.00672015 0)
(0.998962 0.00199764 0)
(1.00086 0.00483392 0)
(1.00868 0.000555483 0)
(0.999457 -0.00187785 0)
(0.997523 0.00562014 0)
(1.00446 0.00244223 0)
(1.00043 0.00130639 0)
(0.99788 0.0054781 0)
(1.00184 0.000968522 0)
(0.997226 0.00418469 0)
(0.995722 0.00924231 0)
(1.00044 0.00780208 0)
(1.0022 0.00882925 0)
(1.00116 0.0103482 0)
(1.00316 0.00897155 0)
(1.00544 0.00747396 0)
(1.00466 0.0081684 0)
(1.00441 0.00820951 0)
(1.00496 0.00692901 0)
(1.00565 0.00661611 0)
(0.999107 0.00181924 0)
(1.00073 0.00483567 0)
(1.00835 0.000468447 0)
(0.999636 -0.00149702 0)
(0.997646 0.00544059 0)
(1.00422 0.00246815 0)
(1.00061 0.00137429 0)
(0.997889 0.00546905 0)
(1.00184 0.00143293 0)
(0.997891 0.00401319 0)
(0.996041 0.00909591 0)
(1.00043 0.00779871 0)
(1.00249 0.00827813 0)
(1.00125 0.0100954 0)
(1.00285 0.00913985 0)
(1.00538 0.00735652 0)
(1.00484 0.00785588 0)
(1.00433 0.00831025 0)
(1.00478 0.0071384 0)
(1.00566 0.00654837 0)
(0.999244 0.00163932 0)
(1.0006 0.00483422 0)
(1.00802 0.000404175 0)
(0.99982 -0.00116892 0)
(0.997764 0.00529824 0)
(1.00398 0.00248662 0)
(1.0008 0.00143882 0)
(0.997915 0.00545525 0)
(1.00181 0.00188587 0)
(0.998552 0.00385039 0)
(0.996403 0.00889209 0)
(1.0004 0.00784979 0)
(1.00277 0.00778016 0)
(1.00143 0.00975496 0)
(1.00258 0.00930498 0)
(1.00526 0.00735973 0)
(1.00505 0.00753055 0)
(1.00434 0.00828479 0)
(1.00456 0.00734715 0)
(1.00557 0.00656141 0)
(0.999377 0.00146227 0)
(1.00046 0.00482174 0)
(1.00768 0.000366478 0)
(1.00001 -0.000892438 0)
(0.99788 0.00519739 0)
(1.00374 0.00251178 0)
(1.00099 0.00148017 0)
(0.997965 0.00543331 0)
(1.00176 0.00231935 0)
(0.999191 0.00369864 0)
(0.99681 0.00865789 0)
(1.00034 0.00790939 0)
(1.00302 0.00738638 0)
(1.0017 0.00930398 0)
(1.00235 0.00941587 0)
(1.00507 0.00747534 0)
(1.00526 0.00727873 0)
(1.00443 0.00820156 0)
(1.00437 0.00754345 0)
(1.00542 0.00660019 0)
(0.999506 0.0012833 0)
(1.00032 0.00480335 0)
(1.00734 0.000361701 0)
(1.00021 -0.000672004 0)
(0.997994 0.0051172 0)
(1.00349 0.00255094 0)
(1.00119 0.00150982 0)
(0.998041 0.00539366 0)
(1.00168 0.0027467 0)
(0.999804 0.00356323 0)
(0.997256 0.00835274 0)
(1.00027 0.00802059 0)
(1.00323 0.00704322 0)
(1.00205 0.00881636 0)
(1.00221 0.0094013 0)
(1.00484 0.00760045 0)
(1.00545 0.00705474 0)
(1.0046 0.00793251 0)
(1.00418 0.00772014 0)
(1.00515 0.00679566 0)
(0.999631 0.00111832 0)
(1.00017 0.00475999 0)
(1.00698 0.000393119 0)
(1.00041 -0.000505899 0)
(0.99811 0.00505833 0)
(1.00323 0.00261423 0)
(1.0014 0.00151357 0)
(0.998152 0.005332 0)
(1.00157 0.00315191 0)
(1.00037 0.00346337 0)
(0.997756 0.00800096 0)
(1.0002 0.00809753 0)
(1.00337 0.00682152 0)
(1.00245 0.00826404 0)
(1.00214 0.00926382 0)
(1.00457 0.00770941 0)
(1.00557 0.00671747 0)
(1.00486 0.00741635 0)
(1.00414 0.00761021 0)
(1.00486 0.00699384 0)
(0.999751 0.000949967 0)
(1.00002 0.00471409 0)
(1.00661 0.000451176 0)
(1.00062 -0.000388752 0)
(0.998231 0.00499473 0)
(1.00296 0.00272812 0)
(1.0016 0.00149775 0)
(0.998297 0.00525812 0)
(1.00145 0.00353782 0)
(1.00088 0.0033986 0)
(0.998287 0.00759177 0)
(1.00015 0.00815905 0)
(1.00344 0.00669434 0)
(1.00286 0.0076895 0)
(1.00219 0.00897865 0)
(1.00424 0.00777445 0)
(1.00557 0.00644983 0)
(1.00514 0.00684113 0)
(1.00423 0.00723898 0)
(1.00469 0.00703846 0)
(0.999864 0.000800123 0)
(0.999873 0.0046343 0)
(1.00622 0.000553106 0)
(1.00082 -0.000322858 0)
(0.998359 0.004927 0)
(1.00268 0.00286709 0)
(1.00179 0.00149745 0)
(0.998484 0.00512707 0)
(1.00131 0.00392723 0)
(1.00133 0.00337002 0)
(0.998869 0.00714423 0)
(1.00012 0.00816815 0)
(1.00342 0.006627 0)
(1.00326 0.00715852 0)
(1.00231 0.0086071 0)
(1.00394 0.00782003 0)
(1.00548 0.00644845 0)
(1.0054 0.00662536 0)
(1.00445 0.00717173 0)
(1.00462 0.00742888 0)
(0.99997 0.000660674 0)
(0.999729 0.00452937 0)
(1.00583 0.000687957 0)
(1.00103 -0.000287323 0)
(0.998499 0.00482908 0)
(1.00238 0.00305592 0)
(1.00196 0.00150291 0)
(0.998709 0.00497665 0)
(1.00118 0.00426933 0)
(1.0017 0.0034016 0)
(0.999459 0.00667353 0)
(1.00015 0.00806872 0)
(1.00334 0.00668625 0)
(1.00363 0.00668688 0)
(1.00255 0.00811688 0)
(1.0037 0.00786018 0)
(1.00536 0.0065557 0)
(1.00568 0.00646283 0)
(1.00481 0.00694926 0)
(1.00464 0.00745254 0)
(1.00007 0.000533527 0)
(0.999594 0.00440428 0)
(1.00541 0.000843765 0)
(1.00122 -0.00026878 0)
(0.99866 0.00469327 0)
(1.00208 0.00328086 0)
(1.00211 0.00153195 0)
(0.998972 0.00478663 0)
(1.00104 0.00456664 0)
(1.00199 0.00350198 0)
(1.00006 0.00617609 0)
(1.00024 0.00792519 0)
(1.0032 0.00676933 0)
(1.00389 0.00631856 0)
(1.00285 0.00762801 0)
(1.00357 0.00786288 0)
(1.00515 0.00662759 0)
(1.00581 0.00617303 0)
(1.00515 0.00648602 0)
(1.00476 0.00714925 0)
(1.00016 0.000432068 0)
(0.999467 0.00423467 0)
(1.00499 0.00103243 0)
(1.0014 -0.000257331 0)
(0.998841 0.00451188 0)
(1.00177 0.00352027 0)
(1.00221 0.00162269 0)
(0.999264 0.00453764 0)
(1.00094 0.00481651 0)
(1.00219 0.0036517 0)
(1.00064 0.00573473 0)
(1.00041 0.00766746 0)
(1.00301 0.00686179 0)
(1.00409 0.00615496 0)
(1.00324 0.00720329 0)
(1.0035 0.00774394 0)
(1.00489 0.00679979 0)
(1.00585 0.00629346 0)
(1.00552 0.00637309 0)
(1.00508 0.00708792 0)
(1.00024 0.000339182 0)
(0.999359 0.00405072 0)
(1.00456 0.00122768 0)
(1.00155 -0.000228659 0)
(0.999051 0.00424223 0)
(1.00148 0.00377158 0)
(1.00227 0.00177214 0)
(0.999582 0.00430268 0)
(1.00086 0.00498096 0)
(1.00231 0.00387545 0)
(1.00118 0.00536278 0)
(1.00065 0.00735289 0)
(1.00286 0.00693896 0)
(1.00419 0.00611363 0)
(1.00358 0.00676797 0)
(1.00357 0.00753881 0)
(1.00473 0.00699292 0)
(1.00583 0.00645323 0)
(1.00577 0.00623772 0)
(1.00539 0.00668213 0)
(1.00031 0.000277414 0)
(0.999265 0.00381969 0)
(1.00413 0.00143683 0)
(1.00167 -0.000170841 0)
(0.999288 0.00392374 0)
(1.00121 0.00398375 0)
(1.00227 0.00199205 0)
(0.999901 0.00406751 0)
(1.00084 0.00506287 0)
(1.00238 0.00412355 0)
(1.00166 0.00509001 0)
(1.00096 0.00700226 0)
(1.00272 0.00693944 0)
(1.00419 0.00610172 0)
(1.00393 0.00645654 0)
(1.00375 0.00729194 0)
(1.00457 0.00697273 0)
(1.00569 0.00643306 0)
(1.00585 0.0061032 0)
(1.00565 0.00628195 0)
(1.00037 0.000228366 0)
(0.999195 0.00357198 0)
(1.00371 0.00164402 0)
(1.00176 -8.37986e-05 0)
(0.999549 0.0035819 0)
(1.00098 0.00413509 0)
(1.00223 0.00226692 0)
(1.00022 0.0038829 0)
(1.00086 0.00506975 0)
(1.00239 0.00434477 0)
(1.00207 0.00491567 0)
(1.0013 0.00663427 0)
(1.00265 0.00686237 0)
(1.00416 0.00614799 0)
(1.00419 0.00619512 0)
(1.00393 0.00690436 0)
(1.00448 0.00685307 0)
(1.00557 0.00643409 0)
(1.00589 0.00611438 0)
(1.00588 0.00615279 0)
(1.00042 0.000204132 0)
(0.999144 0.00330343 0)
(1.00329 0.00182787 0)
(1.00181 5.51259e-05 0)
(0.999828 0.00324115 0)
(1.00079 0.00419933 0)
(1.00215 0.00255785 0)
(1.0005 0.00375475 0)
(1.00092 0.00501516 0)
(1.00239 0.00453597 0)
(1.00241 0.00480429 0)
(1.00165 0.00627553 0)
(1.00263 0.00673285 0)
(1.00407 0.0061507 0)
(1.00437 0.00598511 0)
(1.00418 0.00656463 0)
(1.00448 0.00672936 0)
(1.00546 0.0064342 0)
(1.00586 0.00607323 0)
(1.00597 0.00606932 0)
(1.00046 0.000193976 0)
(0.999118 0.00303069 0)
(1.0029 0.0019877 0)
(1.00181 0.000237136 0)
(1.00011 0.00290293 0)
(1.00066 0.00416345 0)
(1.00205 0.00284471 0)
(1.00075 0.00370229 0)
(1.00102 0.00494234 0)
(1.00236 0.00467039 0)
(1.00267 0.00474444 0)
(1.00201 0.00594434 0)
(1.00266 0.00654125 0)
(1.00397 0.00614395 0)
(1.00448 0.00587237 0)
(1.0044 0.00626477 0)
(1.00453 0.00649132 0)
(1.00535 0.00637137 0)
(1.00582 0.00599043 0)
(1.00601 0.00600269 0)
(1.00049 0.000199499 0)
(0.999111 0.0027642 0)
(1.00254 0.00209559 0)
(1.00178 0.000462455 0)
(1.00039 0.00259781 0)
(1.00059 0.00405042 0)
(1.00194 0.00309473 0)
(1.00096 0.00369558 0)
(1.00114 0.0048458 0)
(1.00235 0.00476759 0)
(1.00287 0.00471645 0)
(1.00235 0.00565277 0)
(1.00276 0.00630955 0)
(1.00388 0.00610731 0)
(1.00452 0.00578438 0)
(1.00459 0.006011 0)
(1.00464 0.0062213 0)
(1.00529 0.00627409 0)
(1.00577 0.00593297 0)
(1.00602 0.00590343 0)
(1.00051 0.000214359 0)
(0.999125 0.00251008 0)
(1.00221 0.00216309 0)
(1.00172 0.000706886 0)
(1.00064 0.00232873 0)
(1.00058 0.00388392 0)
(1.00185 0.00327551 0)
(1.00114 0.00372912 0)
(1.00128 0.00476852 0)
(1.00233 0.00483382 0)
(1.003 0.00469927 0)
(1.00265 0.00539774 0)
(1.00289 0.00605729 0)
(1.00382 0.00602641 0)
(1.00453 0.00571571 0)
(1.00473 0.00582938 0)
(1.00477 0.00596655 0)
(1.00528 0.00609088 0)
(1.0057 0.00585237 0)
(1.006 0.00578948 0)
(1.00053 0.00023662 0)
(0.999153 0.00227773 0)
(1.00192 0.00218255 0)
(1.00162 0.000946123 0)
(1.00087 0.00213166 0)
(1.00061 0.00369025 0)
(1.00178 0.00337733 0)
(1.00129 0.00376635 0)
(1.00142 0.0046964 0)
(1.00232 0.00485977 0)
(1.0031 0.00469252 0)
(1.00292 0.0051817 0)
(1.00306 0.00579489 0)
(1.00379 0.00591269 0)
(1.0045 0.00564305 0)
(1.00482 0.00567728 0)
(1.00488 0.00575018 0)
(1.00532 0.00587347 0)
(1.00567 0.00573914 0)
(1.00595 0.0057136 0)
(1.00054 0.000262107 0)
(0.999193 0.00206856 0)
(1.00168 0.00216699 0)
(1.00151 0.00116641 0)
(1.00106 0.00201 0)
(1.00068 0.00348705 0)
(1.00174 0.0034117 0)
(1.00143 0.00377973 0)
(1.00156 0.00462081 0)
(1.00232 0.00487145 0)
(1.00315 0.00468578 0)
(1.00315 0.00500536 0)
(1.00325 0.00552153 0)
(1.0038 0.00575856 0)
(1.00447 0.00555937 0)
(1.00487 0.00554209 0)
(1.00497 0.00557879 0)
(1.00536 0.00567825 0)
(1.00568 0.00556357 0)
(1.0059 0.00561523 0)
(1.00054 0.000289291 0)
(0.999242 0.00188736 0)
(1.00147 0.00211913 0)
(1.0014 0.00135732 0)
(1.00121 0.00194658 0)
(1.00077 0.00330838 0)
(1.00173 0.003403 0)
(1.00156 0.00376802 0)
(1.00171 0.00452451 0)
(1.00232 0.00484681 0)
(1.00317 0.00467513 0)
(1.00332 0.0048606 0)
(1.00345 0.005263 0)
(1.00386 0.0055583 0)
(1.00445 0.00545847 0)
(1.0049 0.00542065 0)
(1.00504 0.00541522 0)
(1.00538 0.00551954 0)
(1.00571 0.00536552 0)
(1.00588 0.0054759 0)
(1.00054 0.000314464 0)
(0.999296 0.00173505 0)
(1.0013 0.00204684 0)
(1.00128 0.00152439 0)
(1.00134 0.00191546 0)
(1.00086 0.00316332 0)
(1.00173 0.0033726 0)
(1.00168 0.00371886 0)
(1.00187 0.00440188 0)
(1.00235 0.0047848 0)
(1.00317 0.00465308 0)
(1.00345 0.00474204 0)
(1.00363 0.00503154 0)
(1.00396 0.00533091 0)
(1.00444 0.00531612 0)
(1.00491 0.00529996 0)
(1.0051 0.00524645 0)
(1.00539 0.00537936 0)
(1.00573 0.00520492 0)
(1.0059 0.00529677 0)
(1.00054 0.000338115 0)
(0.999351 0.00160732 0)
(1.00117 0.00196357 0)
(1.00118 0.00165477 0)
(1.00144 0.0019059 0)
(1.00096 0.0030417 0)
(1.00174 0.00333281 0)
(1.00179 0.00365932 0)
(1.00203 0.00424386 0)
(1.00239 0.00469153 0)
(1.00315 0.00461135 0)
(1.00353 0.00464472 0)
(1.00378 0.00482275 0)
(1.00406 0.00510367 0)
(1.00447 0.00513643 0)
(1.00492 0.00516949 0)
(1.00516 0.00508229 0)
(1.00541 0.00522359 0)
(1.00572 0.00508253 0)
(1.00594 0.00510199 0)
(1.00053 0.000359015 0)
(0.999406 0.00150228 0)
(1.00106 0.00187293 0)
(1.00108 0.00175091 0)
(1.00151 0.00190515 0)
(1.00106 0.00293121 0)
(1.00176 0.00327662 0)
(1.00188 0.00360125 0)
(1.00219 0.0040723 0)
(1.00246 0.00455446 0)
(1.00315 0.00455115 0)
(1.00357 0.00456184 0)
(1.0039 0.00463958 0)
(1.00417 0.00488165 0)
(1.00453 0.00493511 0)
(1.00492 0.00502073 0)
(1.0052 0.00492603 0)
(1.00544 0.00504072 0)
(1.00569 0.00496861 0)
(1.00595 0.0049338 0)
(1.00052 0.000375281 0)
(0.99946 0.00141837 0)
(1.00099 0.00177767 0)
(1.001 0.00181768 0)
(1.00157 0.00190454 0)
(1.00116 0.00282701 0)
(1.00179 0.0032057 0)
(1.00195 0.00353938 0)
(1.00233 0.00391684 0)
(1.00255 0.00438135 0)
(1.00315 0.00445525 0)
(1.00359 0.00448109 0)
(1.00398 0.00448783 0)
(1.00427 0.00466992 0)
(1.0046 0.00472044 0)
(1.00495 0.00484714 0)
(1.00522 0.00477597 0)
(1.00549 0.00484546 0)
(1.00567 0.00482873 0)
(1.00593 0.00479764 0)