/*--------------------------------*- C++ -*----------------------------------*\
| =========                 |                                                 |
| \\      /  F ield         | OpenFOAM: The Open Source CFD Toolbox           |
|  \\    /   O peration     | Version:  v1912                                 |
|   \\  /    A nd           | Website:  www.openfoam.com                      |
|    \\/     M anipulation  |                                                 |
\*---------------------------------------------------------------------------*/
FoamFile
{
    version     2.0;
    format      ascii;
    class       surfaceScalarField;
    location    "6.45";
    object      phi;
}
// * * * * * * * * * * * * * * * * * * * * * * * * * * * * * * * * * * * * * //

dimensions      [0 3 -1 0 0 0 0];
oriented        oriented;


internalField   nonuniform List<scalar> 
19000
(
1.13744e-06
-1.03145e-06
1.17236e-06
4.30977e-07
1.18349e-06
-8.73813e-07
1.2161e-06
1.20304e-06
1.1955e-06
1.64696e-06
1.12973e-06
-5.80358e-07
1.14259e-06
2.38118e-07
1.0769e-06
-2.17586e-06
1.13014e-06
-1.03641e-06
1.2236e-06
-1.89817e-07
1.21728e-06
-3.90893e-07
1.22268e-06
2.88763e-07
1.28452e-06
1.21187e-06
1.28661e-06
3.57574e-07
1.32225e-06
1.27605e-06
1.26507e-06
3.03352e-07
1.28108e-06
8.46487e-07
1.22718e-06
1.70321e-07
1.23059e-06
4.7754e-07
3.2682e-08
1.15302e-06
1.1966e-06
-1.00379e-06
1.23063e-06
3.96952e-07
1.2456e-06
-8.88781e-07
1.27909e-06
1.16955e-06
1.25646e-06
1.66958e-06
1.18891e-06
-5.12802e-07
1.18359e-06
2.43435e-07
1.11676e-06
-2.10903e-06
1.17289e-06
-1.09254e-06
1.27518e-06
-2.92103e-07
1.27243e-06
-3.88143e-07
1.2868e-06
2.74395e-07
1.34134e-06
1.15732e-06
1.35302e-06
3.45899e-07
1.37291e-06
1.25616e-06
1.33936e-06
3.36904e-07
1.32598e-06
8.59863e-07
1.30392e-06
1.92385e-07
1.27261e-06
5.08842e-07
5.32305e-08
1.25207e-06
1.25636e-06
-9.77366e-07
1.29131e-06
3.61998e-07
1.3111e-06
-9.08573e-07
1.34779e-06
1.13286e-06
1.32839e-06
1.68898e-06
1.25473e-06
-4.39135e-07
1.23597e-06
2.62194e-07
1.17816e-06
-2.05123e-06
1.22138e-06
-1.13576e-06
1.32187e-06
-3.92593e-07
1.33066e-06
-3.96935e-07
1.34897e-06
2.5609e-07
1.40176e-06
1.10453e-06
1.42037e-06
3.27284e-07
1.439e-06
1.23753e-06
1.41532e-06
3.60588e-07
1.40067e-06
8.74508e-07
1.38123e-06
2.11834e-07
1.36263e-06
5.27437e-07
8.33022e-08
1.33256e-06
1.31681e-06
-9.5007e-07
1.3498e-06
3.29009e-07
1.37855e-06
-9.37329e-07
1.42183e-06
1.08959e-06
1.40585e-06
1.70496e-06
1.32674e-06
-3.60031e-07
1.2932e-06
2.95736e-07
1.24535e-06
-2.00337e-06
1.27408e-06
-1.16449e-06
1.36807e-06
-4.86587e-07
1.393e-06
-4.21869e-07
1.41246e-06
2.3663e-07
1.46285e-06
1.05414e-06
1.48526e-06
3.0487e-07
1.5079e-06
1.21489e-06
1.49013e-06
3.78361e-07
1.48016e-06
8.84478e-07
1.45592e-06
2.36074e-07
1.44361e-06
5.39747e-07
1.23666e-07
1.40324e-06
1.37932e-06
-9.21035e-07
1.40714e-06
3.01187e-07
1.44599e-06
-9.76179e-07
1.4978e-06
1.03778e-06
1.48423e-06
1.71852e-06
1.40239e-06
-2.78185e-07
1.35915e-06
3.38978e-07
1.31709e-06
-1.96131e-06
1.33379e-06
-1.18119e-06
1.41808e-06
-5.70881e-07
1.45851e-06
-4.62298e-07
1.48046e-06
2.14683e-07
1.52726e-06
1.00734e-06
1.54964e-06
2.82494e-07
1.57728e-06
1.18725e-06
1.56379e-06
3.91851e-07
1.55952e-06
8.88752e-07
1.53089e-06
2.64699e-07
1.52006e-06
5.50577e-07
1.69359e-07
1.47437e-06
1.44613e-06
-8.91487e-07
1.4669e-06
2.80419e-07
1.51168e-06
-1.02096e-06
1.57161e-06
9.77853e-07
1.55976e-06
1.73037e-06
1.48059e-06
-1.99017e-07
1.43214e-06
3.8743e-07
1.38945e-06
-1.91863e-06
1.40064e-06
-1.19238e-06
1.47483e-06
-6.45063e-07
1.52552e-06
-5.12995e-07
1.55411e-06
1.86095e-07
1.59954e-06
9.61918e-07
1.61955e-06
2.6248e-07
1.64988e-06
1.15692e-06
1.63914e-06
4.02589e-07
1.63895e-06
8.88942e-07
1.60696e-06
2.96683e-07
1.59642e-06
5.61117e-07
2.18831e-07
1.54695e-06
1.51868e-06
-8.6395e-07
1.53213e-06
2.66973e-07
1.57484e-06
-1.06367e-06
1.64049e-06
9.122e-07
1.63105e-06
1.73981e-06
1.56148e-06
-1.29452e-07
1.51179e-06
4.37124e-07
1.4635e-06
-1.87034e-06
1.47449e-06
-1.20337e-06
1.53933e-06
-7.09912e-07
1.59444e-06
-5.68101e-07
1.63252e-06
1.48014e-07
1.68013e-06
9.14307e-07
1.69733e-06
2.45279e-07
1.72799e-06
1.12627e-06
1.71755e-06
4.13034e-07
1.7195e-06
8.86984e-07
1.68405e-06
3.32136e-07
1.67389e-06
5.71281e-07
2.70948e-07
1.62177e-06
1.5969e-06
-8.40722e-07
1.60391e-06
2.59968e-07
1.63638e-06
-1.09614e-06
1.70456e-06
8.44014e-07
1.69931e-06
1.74506e-06
1.64559e-06
-7.57319e-08
1.59768e-06
4.85041e-07
1.54145e-06
-1.81412e-06
1.55531e-06
-1.21723e-06
1.611e-06
-7.65595e-07
1.66638e-06
-6.23481e-07
1.71498e-06
9.94142e-08
1.7671e-06
8.6218e-07
1.78157e-06
2.30809e-07
1.81108e-06
1.09675e-06
1.79876e-06
4.25354e-07
1.80147e-06
8.84281e-07
1.76199e-06
3.71612e-07
1.75215e-06
5.81119e-07
3.24351e-07
1.69875e-06
1.67971e-06
-8.2286e-07
1.68175e-06
2.57927e-07
1.69891e-06
-1.1133e-06
1.76684e-06
7.76082e-07
1.76764e-06
1.74426e-06
1.73291e-06
-4.10021e-08
1.68927e-06
5.28685e-07
1.62546e-06
-1.75031e-06
1.64286e-06
-1.23462e-06
1.68788e-06
-8.10622e-07
1.74092e-06
-6.76519e-07
1.80086e-06
3.94714e-08
1.85863e-06
8.04416e-07
1.8701e-06
2.19333e-07
1.89752e-06
1.06934e-06
1.88189e-06
4.40979e-07
1.8847e-06
8.81471e-07
1.84088e-06
4.15433e-07
1.83087e-06
5.91129e-07
3.77593e-07
1.77763e-06
1.7659e-06
-8.10041e-07
1.76467e-06
2.59161e-07
1.76582e-06
-1.11445e-06
1.83169e-06
7.1021e-07
1.83953e-06
1.73642e-06
1.82263e-06
-2.41037e-08
1.78539e-06
5.65928e-07
1.71627e-06
-1.68119e-06
1.73565e-06
-1.254e-06
1.76764e-06
-8.42612e-07
1.81609e-06
-7.24974e-07
1.88809e-06
-3.25249e-08
1.95215e-06
7.4035e-07
1.96044e-06
2.11043e-07
1.98544e-06
1.04434e-06
1.96571e-06
4.60711e-07
1.96843e-06
8.78743e-07
1.92053e-06
4.63338e-07
1.9097e-06
6.0196e-07
4.29332e-07
1.85796e-06
1.8547e-06
-8.00991e-07
1.85184e-06
2.62022e-07
1.83992e-06
-1.10253e-06
1.90269e-06
6.47442e-07
1.91738e-06
1.72173e-06
1.91357e-06
-2.03009e-08
1.88437e-06
5.95132e-07
1.81304e-06
-1.60986e-06
1.83126e-06
-1.27222e-06
1.84884e-06
-8.6019e-07
1.89027e-06
-7.66406e-07
1.97297e-06
-1.15226e-07
2.04341e-06
6.69909e-07
2.04907e-06
2.05379e-07
2.07231e-06
1.02111e-06
2.04841e-06
4.84613e-07
2.05113e-06
8.76016e-07
2.00018e-06
5.14288e-07
1.98825e-06
6.13888e-07
4.78231e-07
1.93935e-06
1.94593e-06
-7.9408e-07
1.94286e-06
2.65087e-07
1.92248e-06
-1.08215e-06
1.98128e-06
5.88646e-07
2.00169e-06
1.70132e-06
2.00488e-06
-2.34859e-08
1.98468e-06
6.1533e-07
1.91407e-06
-1.53925e-06
1.92762e-06
-1.28577e-06
1.93172e-06
-8.64292e-07
1.96388e-06
-7.98562e-07
2.05224e-06
-2.03583e-07
2.12774e-06
5.94401e-07
2.13208e-06
2.01047e-07
2.15507e-06
9.98117e-07
2.12784e-06
5.11843e-07
2.13099e-06
8.72864e-07
2.0789e-06
5.66387e-07
2.06629e-06
6.26499e-07
5.22761e-07
2.02176e-06
2.03993e-06
-7.87819e-07
2.03773e-06
2.67287e-07
2.01308e-06
-1.0575e-06
2.0668e-06
5.34923e-07
2.09151e-06
1.67662e-06
2.09655e-06
-2.8532e-08
2.08559e-06
6.26291e-07
2.01795e-06
-1.4716e-06
2.02414e-06
-1.29197e-06
2.01775e-06
-8.57901e-07
2.03932e-06
-8.20125e-07
2.12522e-06
-2.89484e-07
2.2027e-06
5.16919e-07
2.20699e-06
1.96754e-07
2.23143e-06
9.73684e-07
2.20249e-06
5.40782e-07
2.20688e-06
8.68476e-07
2.15629e-06
6.16977e-07
2.14408e-06
6.38701e-07
5.6117e-07
2.10567e-06
2.13732e-06
-7.81138e-07
2.13665e-06
2.67953e-07
2.1103e-06
-1.03115e-06
2.1577e-06
4.87524e-07
2.18551e-06
1.64881e-06
2.18956e-06
-3.25821e-08
2.18741e-06
6.28439e-07
2.1241e-06
-1.40829e-06
2.12177e-06
-1.28964e-06
2.10852e-06
-8.44655e-07
2.11953e-06
-8.31136e-07
2.19435e-06
-3.64303e-07
2.26948e-06
4.41791e-07
2.27424e-06
1.91997e-07
2.30122e-06
9.46698e-07
2.27257e-06
5.69438e-07
2.27923e-06
8.61819e-07
2.23315e-06
6.63051e-07
2.22278e-06
6.49073e-07
5.91735e-07
2.19221e-06
2.23879e-06
-7.7344e-07
2.23997e-06
2.66777e-07
2.21275e-06
-1.00393e-06
2.25287e-06
4.47401e-07
2.2831e-06
1.61858e-06
2.28549e-06
-3.4975e-08
2.29121e-06
6.22721e-07
2.23272e-06
-1.3498e-06
2.22217e-06
-1.2791e-06
2.20505e-06
-8.27534e-07
2.20673e-06
-8.3281e-07
2.26403e-06
-4.21608e-07
2.33243e-06
3.73394e-07
2.33712e-06
1.87308e-07
2.36693e-06
9.16883e-07
2.34053e-06
5.95839e-07
2.35042e-06
8.51935e-07
2.31158e-06
7.01884e-07
2.30431e-06
6.56349e-07
6.13177e-07
2.28286e-06
2.34493e-06
-7.64495e-07
2.34798e-06
2.63726e-07
2.31965e-06
-9.75604e-07
2.35231e-06
4.14744e-07
2.38469e-06
1.58619e-06
2.38607e-06
-3.6352e-08
2.39834e-06
6.10451e-07
2.34435e-06
-1.29581e-06
2.32692e-06
-1.26167e-06
2.30773e-06
-8.08336e-07
2.30194e-06
-8.27026e-07
2.33893e-06
-4.58596e-07
2.39734e-06
3.14984e-07
2.40077e-06
1.83876e-07
2.43299e-06
8.84663e-07
2.41049e-06
6.18339e-07
2.42419e-06
8.38239e-07
2.39444e-06
7.31633e-07
2.39097e-06
6.59823e-07
6.2501e-07
2.37913e-06
2.45619e-06
-7.54287e-07
2.46099e-06
2.58925e-07
2.43101e-06
-9.4563e-07
2.45691e-06
3.88851e-07
2.49133e-06
1.55177e-06
2.49268e-06
-3.77011e-08
2.51003e-06
5.93096e-07
2.45961e-06
-1.24539e-06
2.43707e-06
-1.23913e-06
2.41659e-06
-7.87861e-07
2.40536e-06
-8.1579e-07
2.42277e-06
-4.76009e-07
2.46972e-06
2.68035e-07
2.47071e-06
1.82884e-07
2.50451e-06
8.50862e-07
2.487e-06
6.35855e-07
2.50456e-06
8.20677e-07
2.48453e-06
7.51658e-07
2.48499e-06
6.59366e-07
6.27814e-07
2.48218e-06
2.5729e-06
-7.42892e-07
2.57928e-06
2.5255e-07
2.54731e-06
-9.13665e-07
2.56778e-06
3.68384e-07
2.60402e-06
1.51553e-06
2.60611e-06
-3.97905e-08
2.62717e-06
5.72037e-07
2.57907e-06
-1.19728e-06
2.55315e-06
-1.2132e-06
2.5316e-06
-7.66317e-07
2.51668e-06
-8.00872e-07
2.51772e-06
-4.77045e-07
2.55353e-06
2.32226e-07
2.55148e-06
1.84929e-07
2.5859e-06
8.16448e-07
2.57375e-06
6.48005e-07
2.5947e-06
7.99728e-07
2.5839e-06
7.62449e-07
2.58792e-06
6.55353e-07
6.23072e-07
2.59266e-06
2.69534e-06
-7.30401e-07
2.70314e-06
2.44749e-07
2.66914e-06
-8.79665e-07
2.68571e-06
3.51815e-07
2.72342e-06
1.47781e-06
2.72665e-06
-4.30176e-08
2.7503e-06
5.48381e-07
2.70329e-06
-1.15027e-06
2.6754e-06
-1.18532e-06
2.65274e-06
-7.43653e-07
2.6355e-06
-7.83628e-07
2.6244e-06
-4.65948e-07
2.65066e-06
2.05961e-07
2.64582e-06
1.89776e-07
2.67992e-06
7.82343e-07
2.67285e-06
6.5508e-07
2.69633e-06
7.7625e-07
2.69352e-06
7.6525e-07
2.70028e-06
6.48602e-07
6.12596e-07
2.71075e-06
2.82375e-06
-7.16882e-07
2.83288e-06
2.35621e-07
2.79701e-06
-8.43792e-07
2.81101e-06
3.37806e-07
2.84974e-06
1.43908e-06
2.8542e-06
-4.74773e-08
2.8797e-06
5.22888e-07
2.8328e-06
-1.10337e-06
2.80395e-06
-1.15647e-06
2.78005e-06
-7.19752e-07
2.76139e-06
-7.64962e-07
2.74228e-06
-4.46842e-07
2.76111e-06
1.8713e-07
2.75438e-06
1.96504e-07
2.78747e-06
7.49254e-07
2.78471e-06
6.57841e-07
2.80972e-06
7.51239e-07
2.81341e-06
7.61565e-07
2.8219e-06
6.40113e-07
5.98124e-07
2.83637e-06
2.95839e-06
-7.02377e-07
2.9688e-06
2.25216e-07
2.93128e-06
-8.06276e-07
2.94372e-06
3.25369e-07
2.983e-06
1.3998e-06
2.98858e-06
-5.30641e-08
3.01547e-06
4.95999e-07
2.96809e-06
-1.05598e-06
2.93891e-06
-1.1273e-06
2.91367e-06
-6.94509e-07
2.89411e-06
-7.45404e-07
2.87033e-06
-4.23065e-07
2.88366e-06
1.73801e-07
2.87629e-06
2.03877e-07
2.90793e-06
7.17615e-07
2.90856e-06
6.57207e-07
2.9342e-06
7.25601e-07
2.94299e-06
7.5278e-07
2.95231e-06
6.30787e-07
5.81094e-07
2.96934e-06
3.09953e-06
-6.86902e-07
3.11119e-06
2.13556e-07
3.07223e-06
-7.67317e-07
3.08376e-06
3.13838e-07
3.1232e-06
1.36036e-06
3.12966e-06
-5.95283e-08
3.15772e-06
4.67942e-07
3.10957e-06
-1.00783e-06
3.08043e-06
-1.09816e-06
3.05381e-06
-6.67889e-07
3.03363e-06
-7.25226e-07
3.00756e-06
-3.96996e-07
3.01681e-06
1.64554e-07
3.00993e-06
2.1076e-07
3.03997e-06
6.87573e-07
3.04316e-06
6.5402e-07
3.06873e-06
7.00025e-07
3.08153e-06
7.39982e-07
3.09105e-06
6.21263e-07
5.62618e-07
3.10953e-06
3.24747e-06
-6.70457e-07
3.26037e-06
2.00649e-07
3.22011e-06
-7.27056e-07
3.2312e-06
3.02748e-07
3.27049e-06
1.32107e-06
3.27744e-06
-6.64808e-08
3.30655e-06
4.3883e-07
3.25763e-06
-9.58909e-07
3.22871e-06
-1.06924e-06
3.20078e-06
-6.39952e-07
3.18005e-06
-7.045e-07
3.15333e-06
-3.7028e-07
3.15937e-06
1.58518e-07
3.15376e-06
2.16371e-07
3.18228e-06
6.59055e-07
3.18736e-06
6.48939e-07
3.21239e-06
6.7499e-07
3.22843e-06
7.23941e-07
3.23782e-06
6.11875e-07
5.43587e-07
3.25685e-06
3.40251e-06
-6.53031e-07
3.41666e-06
1.86496e-07
3.37518e-06
-6.85579e-07
3.3862e-06
2.91726e-07
3.42516e-06
1.28212e-06
3.43207e-06
-7.33997e-08
3.46216e-06
4.08743e-07
3.41261e-06
-9.09361e-07
3.384e-06
-1.04062e-06
3.3549e-06
-6.10859e-07
3.33357e-06
-6.83162e-07
3.30735e-06
-3.44059e-07
3.31067e-06
1.55192e-07
3.30669e-06
2.20349e-07
3.3339e-06
6.31848e-07
3.34042e-06
6.4242e-07
3.36455e-06
6.50858e-07
3.38339e-06
7.05104e-07
3.3925e-06
6.02765e-07
5.24762e-07
3.41132e-06
3.56498e-06
-6.34601e-07
3.58038e-06
1.711e-07
3.53774e-06
-6.42939e-07
3.54904e-06
2.80425e-07
3.5876e-06
1.24356e-06
3.59386e-06
-7.96593e-08
3.62482e-06
3.77783e-07
3.57488e-06
-8.59418e-07
3.54655e-06
-1.01229e-06
3.51655e-06
-5.80858e-07
3.49441e-06
-6.61022e-07
3.46952e-06
-3.19175e-07
3.47047e-06
1.54249e-07
3.4681e-06
2.22712e-07
3.49432e-06
6.05628e-07
3.50197e-06
6.34774e-07
3.52495e-06
6.2788e-07
3.54628e-06
6.83769e-07
3.55516e-06
5.93884e-07
5.06811e-07
3.57312e-06
3.73523e-06
-6.1513e-07
3.75186e-06
1.54473e-07
3.70811e-06
-5.99185e-07
3.72002e-06
2.68513e-07
3.7583e-06
1.20527e-06
3.76324e-06
-8.4598e-08
3.79492e-06
3.46103e-07
3.74481e-06
-8.09302e-07
3.71665e-06
-9.84132e-07
3.68608e-06
-5.50289e-07
3.66282e-06
-6.37762e-07
3.63989e-06
-2.96251e-07
3.63876e-06
1.55384e-07
3.63775e-06
2.23725e-07
3.66333e-06
5.80039e-07
3.67196e-06
6.26152e-07
3.69358e-06
6.06259e-07
3.71714e-06
6.60211e-07
3.7261e-06
5.84917e-07
4.90345e-07
3.74257e-06
3.91364e-06
-5.94577e-07
3.93144e-06
1.36664e-07
3.88665e-06
-5.54387e-07
3.89947e-06
2.55686e-07
3.93775e-06
1.167e-06
3.94076e-06
-8.76077e-08
3.97295e-06
3.13909e-07
3.92282e-06
-7.5917e-07
3.89461e-06
-9.55922e-07
3.86389e-06
-5.19571e-07
3.83909e-06
-6.12963e-07
3.81858e-06
-2.7574e-07
3.81572e-06
1.58244e-07
3.81565e-06
2.23801e-07
3.84096e-06
5.54728e-07
3.85055e-06
6.16554e-07
3.87064e-06
5.86171e-07
3.89608e-06
6.34772e-07
3.90569e-06
5.75311e-07
4.75808e-07
3.92022e-06
4.10058e-06
-5.72907e-07
4.11947e-06
1.17771e-07
4.07374e-06
-5.08652e-07
4.08773e-06
2.41696e-07
4.1264e-06
1.12833e-06
4.127e-06
-8.82109e-08
4.15948e-06
2.81433e-07
4.10939e-06
-7.09087e-07
4.08081e-06
-9.27341e-07
4.05042e-06
-4.89177e-07
4.02366e-06
-5.86204e-07
4.0058e-06
-2.57879e-07
4.00169e-06
1.62349e-07
4.00203e-06
2.23463e-07
4.0274e-06
5.29362e-07
4.03809e-06
6.05857e-07
4.05648e-06
5.67784e-07
4.08343e-06
6.07827e-07
4.0943e-06
5.64434e-07
4.63446e-07
4.10666e-06
4.2965e-06
-5.50106e-07
4.31632e-06
9.79514e-08
4.2698e-06
-4.62134e-07
4.2851e-06
2.26399e-07
4.32464e-06
1.08879e-06
4.32253e-06
-8.61038e-08
4.35507e-06
2.48888e-07
4.30505e-06
-6.59063e-07
4.27569e-06
-8.97982e-07
4.24615e-06
-4.59634e-07
4.21701e-06
-5.57065e-07
4.20184e-06
-2.42706e-07
4.19705e-06
1.6714e-07
4.19728e-06
2.23228e-07
4.22294e-06
5.03702e-07
4.23494e-06
5.9386e-07
4.25158e-06
5.51137e-07
4.27949e-06
5.79919e-07
4.29227e-06
5.51654e-07
4.53163e-07
4.30256e-06
4.50187e-06
-5.26199e-07
4.52241e-06
7.74082e-08
4.4753e-06
-4.15027e-07
4.49189e-06
2.09808e-07
4.53277e-06
1.04792e-06
4.52781e-06
-8.11429e-08
4.56027e-06
2.1643e-07
4.51033e-06
-6.09131e-07
4.47975e-06
-8.674e-07
4.45153e-06
-4.31416e-07
4.41975e-06
-5.25278e-07
4.40703e-06
-2.29989e-07
4.40221e-06
1.71956e-07
4.40187e-06
2.23576e-07
4.42788e-06
4.7769e-07
4.44145e-06
5.80288e-07
4.45646e-06
5.36127e-07
4.48461e-06
5.51765e-07
4.49979e-06
5.36477e-07
4.44457e-07
4.5085e-06
4.71716e-06
-5.01245e-07
4.73821e-06
5.63579e-08
4.69075e-06
-3.67566e-07
4.70843e-06
1.9213e-07
4.75103e-06
1.00532e-06
4.74318e-06
-7.33009e-08
4.77547e-06
1.84145e-07
4.72578e-06
-5.59445e-07
4.69354e-06
-8.35155e-07
4.66706e-06
-4.04934e-07
4.63255e-06
-4.90772e-07
4.62177e-06
-2.19211e-07
4.61764e-06
1.76085e-07
4.6163e-06
2.24921e-07
4.64247e-06
4.51523e-07
4.65796e-06
5.64798e-07
4.67157e-06
5.22518e-07
4.69912e-06
5.2421e-07
4.71702e-06
5.18574e-07
4.36588e-07
4.72489e-06
4.94289e-06
-4.75337e-07
4.96425e-06
3.49982e-08
4.91672e-06
-3.20039e-07
4.93507e-06
1.73779e-07
4.97965e-06
9.60744e-07
4.96895e-06
-6.26e-08
5.00102e-06
1.5207e-07
4.9519e-06
-5.10325e-07
4.91762e-06
-8.00875e-07
4.89317e-06
-3.80486e-07
4.85613e-06
-4.53731e-07
4.84655e-06
-2.09633e-07
4.84375e-06
1.78891e-07
4.84119e-06
2.27478e-07
4.86703e-06
4.25683e-07
4.88474e-06
5.4709e-07
4.89735e-06
5.0991e-07
4.92344e-06
4.98112e-07
4.94409e-06
4.97928e-07
4.28701e-07
4.95198e-06
5.17956e-06
-4.48584e-07
5.20107e-06
1.34883e-08
5.15384e-06
-2.72802e-07
5.17227e-06
1.55342e-07
5.21892e-06
9.141e-07
5.20544e-06
-4.91237e-08
5.2372e-06
1.20317e-07
5.18915e-06
-4.62281e-07
5.15257e-06
-7.64294e-07
5.13031e-06
-3.58227e-07
5.0912e-06
-4.14615e-07
5.08197e-06
-2.00404e-07
5.08097e-06
1.79893e-07
5.07723e-06
2.31214e-07
5.10207e-06
4.00839e-07
5.12213e-06
5.27029e-07
5.13422e-06
4.97825e-07
5.15823e-06
4.74106e-07
5.1811e-06
4.75051e-07
4.19749e-07
5.19005e-06
5.4277e-06
-4.211e-07
5.44925e-06
-8.05189e-09
5.40275e-06
-2.26307e-07
5.42056e-06
1.37527e-07
5.46922e-06
8.6544e-07
5.4534e-06
-3.32977e-08
5.48431e-06
8.94074e-08
5.43799e-06
-4.15962e-07
5.39897e-06
-7.25276e-07
5.37892e-06
-3.38178e-07
5.33843e-06
-3.74125e-07
5.32867e-06
-1.90639e-07
5.3298e-06
1.78762e-07
5.32514e-06
2.35868e-07
5.34826e-06
3.77718e-07
5.37053e-06
5.04764e-07
5.38273e-06
4.85628e-07
5.40419e-06
4.52639e-07
5.42841e-06
4.50831e-07
4.08798e-07
5.43936e-06
5.68785e-06
-3.92996e-07
5.70933e-06
-2.95233e-08
5.66413e-06
-1.81116e-07
5.68054e-06
1.21123e-07
5.73104e-06
8.14943e-07
5.71345e-06
-1.57119e-08
5.74277e-06
6.00864e-08
5.69887e-06
-3.72058e-07
5.65741e-06
-6.83822e-07
5.63943e-06
-3.20192e-07
5.59843e-06
-3.33132e-07
5.58737e-06
-1.7958e-07
5.59075e-06
1.7539e-07
5.58563e-06
2.40981e-07
5.60635e-06
3.57003e-07
5.63041e-06
4.80702e-07
5.6434e-06
4.72639e-07
5.66226e-06
4.33778e-07
5.68668e-06
4.26411e-07
3.95317e-07
5.70016e-06
5.96059e-06
-3.6439e-07
5.98187e-06
-5.08038e-08
5.93871e-06
-1.37954e-07
5.95286e-06
1.06968e-07
6.00488e-06
7.62924e-07
5.98613e-06
3.03451e-09
6.0131e-06
3.31168e-08
5.97225e-06
-3.31206e-07
5.92853e-06
-6.40104e-07
5.91231e-06
-3.03964e-07
5.87178e-06
-2.92606e-07
5.85882e-06
-1.66623e-07
5.86434e-06
1.69869e-07
5.85938e-06
2.45949e-07
5.87717e-06
3.39208e-07
5.90248e-06
4.55393e-07
5.91669e-06
4.58425e-07
5.9334e-06
4.17067e-07
5.95673e-06
4.03083e-07
3.79174e-07
5.97288e-06
6.24652e-06
-3.35423e-07
6.26744e-06
-7.17215e-08
6.22725e-06
-9.77701e-08
6.23824e-06
9.59773e-08
6.2913e-06
7.09867e-07
6.27206e-06
2.22795e-08
6.29593e-06
9.24261e-09
6.25864e-06
-2.93918e-07
6.21303e-06
-5.94488e-07
6.1981e-06
-2.89032e-07
6.15894e-06
-2.53453e-07
6.1438e-06
-1.51483e-07
6.15112e-06
1.62552e-07
6.14702e-06
2.50047e-07
6.16176e-06
3.24471e-07
6.18748e-06
4.29671e-07
6.20315e-06
4.42753e-07
6.2183e-06
4.01926e-07
6.23972e-06
3.81655e-07
3.60979e-07
6.25792e-06
6.54631e-06
-3.06263e-07
6.56662e-06
-9.2029e-08
6.53066e-06
-6.18171e-08
6.53747e-06
8.91767e-08
6.59089e-06
6.56445e-07
6.57185e-06
4.13161e-08
6.592e-06
-1.09084e-08
6.55859e-06
-2.60509e-07
6.5116e-06
-5.47497e-07
6.49741e-06
-2.74838e-07
6.46044e-06
-2.16486e-07
6.44309e-06
-1.34135e-07
6.45169e-06
1.5395e-07
6.44909e-06
2.52655e-07
6.46095e-06
3.12606e-07
6.48629e-06
4.04332e-07
6.5034e-06
4.25638e-07
6.51759e-06
3.87745e-07
6.53675e-06
3.62491e-07
3.41768e-07
6.55596e-06
6.86065e-06
-2.77127e-07
6.88001e-06
-1.11387e-07
6.84969e-06
-3.14939e-08
6.85132e-06
8.75457e-08
6.9043e-06
6.0346e-07
6.88619e-06
5.94255e-08
6.90214e-06
-2.68494e-08
6.87271e-06
-2.3108e-07
6.82496e-06
-4.99751e-07
6.81091e-06
-2.60789e-07
6.77679e-06
-1.82369e-07
6.75745e-06
-1.14791e-07
6.76678e-06
1.44625e-07
6.7661e-06
2.53334e-07
6.77547e-06
3.03236e-07
6.79962e-06
3.80174e-07
6.81802e-06
4.07242e-07
6.8319e-06
3.7386e-07
6.84882e-06
3.45576e-07
3.22664e-07
6.86792e-06
7.19027e-06
-2.48259e-07
7.20829e-06
-1.29406e-07
7.18413e-06
-7.3349e-09
7.18061e-06
9.10631e-08
7.23227e-06
5.51802e-07
7.21578e-06
7.59141e-08
7.22722e-06
-3.82878e-08
7.20161e-06
-2.0547e-07
7.15385e-06
-4.51992e-07
7.13937e-06
-2.46309e-07
7.10852e-06
-1.51517e-07
7.08764e-06
-9.39116e-08
7.09695e-06
1.35308e-07
7.09876e-06
2.51531e-07
7.1061e-06
2.95893e-07
7.12824e-06
3.58039e-07
7.14748e-06
3.87996e-07
7.16153e-06
3.59811e-07
7.17687e-06
3.30236e-07
3.04651e-07
7.19489e-06
7.5359e-06
-2.19931e-07
7.55213e-06
-1.45639e-07
7.53315e-06
1.16418e-08
7.52615e-06
9.80663e-08
7.57566e-06
5.02296e-07
7.56129e-06
9.02833e-08
7.56816e-06
-4.51579e-08
7.54599e-06
-1.83298e-07
7.49899e-06
-4.05e-07
7.48361e-06
-2.30921e-07
7.45619e-06
-1.24098e-07
7.43439e-06
-7.21121e-08
7.44296e-06
1.26734e-07
7.4477e-06
2.46796e-07
7.45387e-06
2.89715e-07
7.47328e-06
3.38633e-07
7.49243e-06
3.68847e-07
7.50628e-06
3.45956e-07
7.52073e-06
3.1579e-07
2.87722e-07
7.53766e-06
7.8983e-06
-1.92422e-07
7.9123e-06
-1.59638e-07
7.89767e-06
2.62763e-08
7.8887e-06
1.0703e-07
7.93535e-06
4.55655e-07
7.92339e-06
1.02237e-07
7.92594e-06
-4.77036e-08
7.90657e-06
-1.63932e-07
7.86107e-06
-3.595e-07
7.84455e-06
-2.14396e-07
7.82038e-06
-9.99347e-08
7.79845e-06
-5.01829e-08
7.80561e-06
1.19577e-07
7.81339e-06
2.39015e-07
7.81997e-06
2.83142e-07
7.83685e-06
3.21745e-07
7.85408e-06
3.51624e-07
7.8664e-06
3.33633e-07
7.87897e-06
3.03222e-07
2.70134e-07
7.89656e-06
8.27828e-06
-1.66023e-07
8.2895e-06
-1.70854e-07
8.27878e-06
3.6999e-08
8.26915e-06
1.16659e-07
8.31227e-06
4.12531e-07
8.3028e-06
1.11705e-07
8.30144e-06
-4.63396e-08
8.2842e-06
-1.46693e-07
8.24086e-06
-3.16164e-07
8.22307e-06
-1.96599e-07
8.2019e-06
-7.87682e-08
8.18038e-06
-2.86661e-08
8.18585e-06
1.14109e-07
8.19577e-06
2.291e-07
8.20421e-06
2.74696e-07
8.22428e-06
3.01679e-07
8.25035e-06
3.25548e-07
8.27144e-06
3.12542e-07
8.2863e-06
2.88367e-07
2.59717e-07
8.29671e-06
8.67665e-06
-1.41011e-07
8.68448e-06
-1.78685e-07
8.67744e-06
4.40355e-08
8.6682e-06
1.25901e-07
8.70733e-06
3.73404e-07
8.70032e-06
1.18711e-07
8.69565e-06
-4.16672e-08
8.67979e-06
-1.30832e-07
8.63899e-06
-2.75364e-07
8.62012e-06
-1.77734e-07
8.60155e-06
-6.01945e-08
8.58114e-06
-8.25564e-09
8.58486e-06
1.10391e-07
8.5967e-06
2.17255e-07
8.60829e-06
2.63104e-07
8.62685e-06
2.83119e-07
8.64893e-06
3.03476e-07
8.66814e-06
2.93331e-07
8.68185e-06
2.74651e-07
2.48752e-07
8.69282e-06
9.09425e-06
-1.17643e-07
9.09775e-06
-1.82183e-07
9.09455e-06
4.72337e-08
9.08672e-06
1.3373e-07
9.12151e-06
3.38615e-07
9.11673e-06
1.23497e-07
9.10932e-06
-3.42661e-08
9.09423e-06
-1.15737e-07
9.05634e-06
-2.3747e-07
9.03666e-06
-1.58062e-07
9.02005e-06
-4.35765e-08
9.00154e-06
1.02543e-08
9.00376e-06
1.08169e-07
9.01618e-06
2.04832e-07
9.02785e-06
2.51431e-07
9.04405e-06
2.6692e-07
9.06638e-06
2.81147e-07
9.08688e-06
2.72831e-07
9.10172e-06
2.59817e-07
2.39945e-07
9.11052e-06
9.53193e-06
-9.61168e-08
9.52998e-06
-1.80228e-07
9.53104e-06
4.6168e-08
9.52535e-06
1.39423e-07
9.55581e-06
3.08153e-07
9.55283e-06
1.26479e-07
9.54339e-06
-2.48206e-08
9.52857e-06
-1.00922e-07
9.49362e-06
-2.02517e-07
9.47342e-06
-1.37864e-07
9.45883e-06
-2.89813e-08
9.44239e-06
2.66907e-08
9.44307e-06
1.07485e-07
9.45504e-06
1.92862e-07
9.46445e-06
2.42029e-07
9.47277e-06
2.586e-07
9.48364e-06
2.70276e-07
9.4951e-06
2.61366e-07
9.50829e-06
2.46633e-07
2.23992e-07
9.52424e-06
9.9906e-06
-7.65776e-08
9.98293e-06
-1.72559e-07
9.98783e-06
4.127e-08
9.98492e-06
1.42333e-07
1.00112e-05
2.81818e-07
1.00096e-05
1.28112e-07
9.99862e-06
-1.38253e-08
9.98378e-06
-8.6082e-08
9.95178e-06
-1.70517e-07
9.93151e-06
-1.17598e-07
9.91834e-06
-1.58052e-08
9.9036e-06
4.14323e-08
9.90282e-06
1.08262e-07
9.91478e-06
1.80905e-07
9.92905e-06
2.27758e-07
9.94581e-06
2.41836e-07
9.96687e-06
2.49214e-07
9.98765e-06
2.40586e-07
1.00013e-05
2.32983e-07
2.18275e-07
1.0007e-05
1.04711e-05
-5.90679e-08
1.04596e-05
-1.61018e-07
1.0466e-05
3.48755e-08
1.04661e-05
1.42248e-07
1.04888e-05
2.59067e-07
1.04882e-05
1.28731e-07
1.04759e-05
-1.5539e-09
1.0461e-05
-7.11382e-08
1.04315e-05
-1.41037e-07
1.04118e-05
-9.78967e-08
1.03999e-05
-3.87808e-09
1.03871e-05
5.41799e-08
1.03851e-05
1.10296e-07
1.03945e-05
1.71463e-07
1.04052e-05
2.17121e-07
1.04142e-05
2.32778e-07
1.04247e-05
2.38729e-07
1.04364e-05
2.28936e-07
1.04492e-05
2.20184e-07
2.03958e-07
1.04635e-05
1.09745e-05
-4.35611e-08
1.09607e-05
-1.47183e-07
1.09666e-05
2.89774e-08
1.09696e-05
1.39227e-07
1.09896e-05
2.39048e-07
1.09895e-05
1.28836e-07
1.09764e-05
1.15429e-08
1.0961e-05
-5.57457e-08
1.09341e-05
-1.14165e-07
1.0915e-05
-7.87182e-08
1.09037e-05
7.42777e-09
1.08923e-05
6.55469e-08
1.08895e-05
1.13112e-07
1.08972e-05
1.63745e-07
1.09074e-05
2.06915e-07
1.09178e-05
2.22395e-07
1.09298e-05
2.26745e-07
1.09432e-05
2.15498e-07
1.09572e-05
2.0619e-07
1.92574e-07
1.09686e-05
1.15018e-05
-2.99578e-08
1.14868e-05
-1.32175e-07
1.14908e-05
2.48973e-08
1.14964e-05
1.33627e-07
1.15146e-05
2.20903e-07
1.15148e-05
1.2866e-07
1.15012e-05
2.50816e-08
1.14853e-05
-3.97837e-08
1.14604e-05
-8.92811e-08
1.14416e-05
-5.99676e-08
1.1431e-05
1.80201e-08
1.14211e-05
7.5517e-08
1.14175e-05
1.16656e-07
1.14237e-05
1.5754e-07
1.14343e-05
1.96298e-07
1.14459e-05
2.10857e-07
1.1458e-05
2.14635e-07
1.14704e-05
2.0309e-07
1.14837e-05
1.92878e-07
1.81172e-07
1.14951e-05
1.2054e-05
-1.81164e-08
1.20385e-05
-1.16724e-07
1.20404e-05
2.30354e-08
1.20478e-05
1.26176e-07
1.20646e-05
2.0412e-07
1.20653e-05
1.28019e-07
1.20514e-05
3.89465e-08
1.20348e-05
-2.31892e-08
1.20115e-05
-6.59519e-08
1.19934e-05
-4.19363e-08
1.19831e-05
2.833e-08
1.19743e-05
8.43139e-08
1.19709e-05
1.20055e-07
1.19766e-05
1.5189e-07
1.19875e-05
1.85399e-07
1.1999e-05
1.99354e-07
1.20107e-05
2.02945e-07
1.2022e-05
1.91755e-07
1.20342e-05
1.80667e-07
1.69787e-07
1.20456e-05
1.26323e-05
-7.86913e-09
1.2617e-05
-1.01425e-07
1.26168e-05
2.33098e-08
1.2625e-05
1.17994e-07
1.26409e-05
1.88176e-07
1.26422e-05
1.26755e-07
1.26283e-05
5.28325e-08
1.26111e-05
-6.05991e-09
1.2589e-05
-4.37964e-08
1.25715e-05
-2.44176e-08
1.25618e-05
3.80051e-08
1.25549e-05
9.12584e-08
1.25519e-05
1.22973e-07
1.25566e-05
1.47236e-07
1.2567e-05
1.74956e-07
1.25783e-05
1.88043e-07
1.259e-05
1.9124e-07
1.26007e-05
1.81106e-07
1.26121e-05
1.69234e-07
1.58114e-07
1.26238e-05
1.32381e-05
9.61993e-10
1.32233e-05
-8.66687e-08
1.32214e-05
2.52833e-08
1.32293e-05
1.10092e-07
1.32445e-05
1.72986e-07
1.32466e-05
1.2457e-07
1.32331e-05
6.63553e-08
1.32156e-05
1.14562e-08
1.31945e-05
-2.26735e-08
1.31778e-05
-7.70394e-09
1.31689e-05
4.68568e-08
1.31634e-05
9.67985e-08
1.3161e-05
1.25321e-07
1.3165e-05
1.43239e-07
1.3175e-05
1.64962e-07
1.31862e-05
1.76838e-07
1.31977e-05
1.79738e-07
1.32081e-05
1.70732e-07
1.32185e-05
1.58823e-07
1.47037e-07
1.32296e-05
1.38726e-05
8.53914e-09
1.38586e-05
-7.271e-08
1.38555e-05
2.84053e-08
1.38624e-05
1.03191e-07
1.38766e-05
1.5882e-07
1.38799e-05
1.21273e-07
1.38674e-05
7.88489e-08
1.38496e-05
2.92622e-08
1.38295e-05
-2.61827e-09
1.38138e-05
8.03741e-09
1.38056e-05
5.50009e-08
1.38014e-05
1.01059e-07
1.38e-05
1.26698e-07
1.38034e-05
1.39859e-07
1.38123e-05
1.55992e-07
1.38233e-05
1.65901e-07
1.38345e-05
1.68545e-07
1.3845e-05
1.6025e-07
1.38544e-05
1.49369e-07
1.36952e-07
1.38645e-05
1.45372e-05
1.49997e-08
1.45241e-05
-5.96541e-08
1.45204e-05
3.21699e-08
1.4526e-05
9.75645e-08
1.45387e-05
1.46152e-07
1.4543e-05
1.16953e-07
1.45322e-05
8.96511e-08
1.45144e-05
4.70593e-08
1.44952e-05
1.6551e-08
1.44807e-05
2.25976e-08
1.44735e-05
6.21379e-08
1.44703e-05
1.04262e-07
1.44695e-05
1.27496e-07
1.44723e-05
1.37055e-07
1.44805e-05
1.47822e-07
1.44912e-05
1.55228e-07
1.45021e-05
1.57602e-07
1.45124e-05
1.49944e-07
1.45214e-05
1.40422e-07
1.28008e-07
1.45303e-05
1.52334e-05
2.04571e-08
1.52213e-05
-4.7512e-08
1.52173e-05
3.61573e-08
1.52216e-05
9.32368e-08
1.52321e-05
1.35645e-07
1.52373e-05
1.11766e-07
1.52287e-05
9.82414e-08
1.52115e-05
6.42788e-08
1.51931e-05
3.50016e-08
1.51796e-05
3.6043e-08
1.51735e-05
6.82121e-08
1.51714e-05
1.06442e-07
1.51712e-05
1.2769e-07
1.51738e-05
1.34376e-07
1.51811e-05
1.40561e-07
1.51911e-05
1.45181e-07
1.52016e-05
1.47134e-07
1.52114e-05
1.40138e-07
1.52205e-05
1.31356e-07
1.19854e-07
1.52286e-05
1.59628e-05
2.50002e-08
1.59515e-05
-3.6214e-08
1.59475e-05
4.01499e-08
1.59507e-05
9.00245e-08
1.59586e-05
1.27765e-07
1.59642e-05
1.06148e-07
1.5958e-05
1.04413e-07
1.59421e-05
8.01879e-08
1.59245e-05
5.26134e-08
1.59119e-05
4.86899e-08
1.59069e-05
7.32033e-08
1.5906e-05
1.07351e-07
1.59065e-05
1.27114e-07
1.59091e-05
1.31869e-07
1.59152e-05
1.34399e-07
1.59245e-05
1.3592e-07
1.59347e-05
1.36902e-07
1.59442e-05
1.30636e-07
1.59533e-05
1.22226e-07
1.12212e-07
1.5961e-05
1.67269e-05
2.87116e-08
1.67163e-05
-2.56675e-08
1.67124e-05
4.40793e-08
1.67147e-05
8.77478e-08
1.67198e-05
1.22674e-07
1.6725e-05
1.00965e-07
1.67214e-05
1.08019e-07
1.67076e-05
9.39545e-08
1.66912e-05
6.89937e-08
1.66793e-05
6.06384e-08
1.6675e-05
7.74975e-08
1.66754e-05
1.06939e-07
1.66769e-05
1.25614e-07
1.66794e-05
1.29351e-07
1.66848e-05
1.28996e-07
1.66932e-05
1.27567e-07
1.67031e-05
1.27007e-07
1.67121e-05
1.21563e-07
1.67207e-05
1.13607e-07
1.046e-07
1.67284e-05
1.75274e-05
3.16759e-08
1.75176e-05
-1.5863e-08
1.75136e-05
4.80804e-08
1.75152e-05
8.60973e-08
1.75178e-05
1.20114e-07
1.75215e-05
9.73035e-08
1.75204e-05
1.09094e-07
1.75095e-05
1.04846e-07
1.74947e-05
8.37743e-08
1.74835e-05
7.18627e-08
1.74795e-05
8.15171e-08
1.74809e-05
1.0546e-07
1.74837e-05
1.22846e-07
1.74866e-05
1.26444e-07
1.74915e-05
1.24126e-07
1.74987e-05
1.20354e-07
1.75078e-05
1.17878e-07
1.75168e-05
1.12639e-07
1.75249e-05
1.05424e-07
9.69457e-08
1.75326e-05
1.8366e-05
3.39958e-08
1.83569e-05
-6.76755e-09
1.83527e-05
5.22707e-08
1.83542e-05
8.46383e-08
1.83548e-05
1.19479e-07
1.83562e-05
9.59712e-08
1.83569e-05
1.08333e-07
1.83495e-05
1.12305e-07
1.83367e-05
9.65794e-08
1.83263e-05
8.22318e-08
1.83224e-05
8.53952e-08
1.83244e-05
1.0351e-07
1.83284e-05
1.18767e-07
1.83321e-05
1.22755e-07
1.83367e-05
1.19518e-07
1.83431e-05
1.14034e-07
1.83512e-05
1.09721e-07
1.836e-05
1.03905e-07
1.83678e-05
9.76045e-08
8.95879e-08
1.83751e-05
1.92446e-05
3.57809e-08
1.92362e-05
1.5989e-09
1.92318e-05
5.67275e-08
1.92332e-05
8.31758e-08
1.92328e-05
1.19904e-07
1.92318e-05
9.70307e-08
1.92332e-05
1.06933e-07
1.92293e-05