/*--------------------------------*- C++ -*----------------------------------*\
| =========                 |                                                 |
| \\      /  F ield         | OpenFOAM: The Open Source CFD Toolbox           |
|  \\    /   O peration     | Version:  v1912                                 |
|   \\  /    A nd           | Website:  www.openfoam.com                      |
|    \\/     M anipulation  |                                                 |
\*---------------------------------------------------------------------------*/
FoamFile
{
    version     2.0;
    format      ascii;
    class       volScalarField;
    location    "0.65";
    object      p;
}
// * * * * * * * * * * * * * * * * * * * * * * * * * * * * * * * * * * * * * //

dimensions      [0 2 -2 0 0 0 0];


internalField   nonuniform List<scalar> 
9600
(
3.10023e-11
0.00327813
0.00435326
0.00290438
0.00122364
0.00340782
0.00304307
0.00380293
0.00513793
0.00618731
0.00570673
0.00519897
0.0055722
0.00671502
0.00615696
0.00750556
0.00821835
0.0115376
0.0102731
0.0136607
2.09809e-06
0.00328279
0.00434155
0.00289804
0.00123431
0.00341054
0.00303495
0.00380848
0.00513718
0.00617148
0.00571911
0.00519199
0.00559318
0.006694
0.00616137
0.00750048
0.00823025
0.0112425
0.0103317
0.0132776
5.89761e-06
0.00328626
0.00432472
0.00289677
0.00124562
0.00340849
0.00303026
0.00381625
0.00513202
0.0061546
0.0057265
0.00518573
0.00561385
0.00667772
0.00617422
0.00748641
0.00824766
0.0110529
0.0103578
0.0128721
1.2076e-05
0.00328736
0.00430686
0.00290104
0.00125999
0.00340309
0.00303103
0.00382147
0.00512476
0.00613771
0.00572579
0.0051809
0.00563782
0.00666562
0.00618824
0.00746587
0.0082674
0.0108568
0.0103525
0.0124952
2.20526e-05
0.00328667
0.0042873
0.00291046
0.00127907
0.0033949
0.0030373
0.00382391
0.0051152
0.00612002
0.00572127
0.00517691
0.00566541
0.00665267
0.0062022
0.00744103
0.00828543
0.0106594
0.0103245
0.0121453
3.65789e-05
0.00328387
0.00426631
0.00292435
0.00130342
0.00338521
0.00304876
0.00382433
0.00510392
0.00610141
0.00571477
0.00517289
0.00569569
0.00663723
0.00621614
0.00741358
0.00830091
0.0104646
0.0102749
0.0118143
5.54933e-05
0.00327925
0.0042451
0.0029415
0.00133273
0.00337521
0.00306456
0.00382397
0.00509163
0.00608164
0.00570759
0.00516767
0.00572807
0.00661897
0.00622998
0.007385
0.00831168
0.0102749
0.0102033
0.0115013
7.8106e-05
0.00327362
0.00422445
0.00296089
0.00136628
0.0033655
0.00308394
0.00382406
0.00507851
0.00606043
0.00570014
0.0051603
0.00576207
0.00659787
0.00624381
0.00735638
0.00831488
0.0100928
0.010111
0.0112043
0.000103604
0.00326769
0.00420453
0.00298186
0.00140336
0.00335626
0.00310654
0.00382541
0.0050645
0.00603759
0.0056925
0.00515022
0.00579717
0.00657455
0.00625723
0.00732836
0.0083086
0.00992005
0.00999863
0.0109193
0.00013127
0.00326181
0.00418516
0.00300397
0.00144328
0.00334744
0.00313224
0.00382842
0.00504961
0.00601296
0.00568467
0.00513716
0.00583299
0.00654984
0.00626903
0.00730187
0.00829177
0.00975661
0.00986677
0.0106434
0.000160584
0.00325615
0.0041661
0.00302675
0.00148552
0.00333896
0.00316085
0.00383312
0.00503395
0.00598643
0.00567671
0.0051212
0.00586916
0.00652453
0.00627785
0.00727798
0.00826344
0.00960118
0.00971804
0.0103737
0.00019122
0.00325073
0.00414711
0.00304979
0.00152967
0.00333072
0.00319194
0.00383928
0.00501777
0.00595796
0.00566872
0.00510273
0.00590513
0.00649944
0.00628243
0.00725734
0.00822277
0.00945208
0.009556
0.0101059
0.000223004
0.00324551
0.00412807
0.00307278
0.00157551
0.00332259
0.00322493
0.00384652
0.00500139
0.00592752
0.00566082
0.00508231
0.00594012
0.00647555
0.00628154
0.00724005
0.00816964
0.00930689
0.00938453
0.00983565
0.000255856
0.00324043
0.00410895
0.00309547
0.00162298
0.00331447
0.00325915
0.00385441
0.00498507
0.00589513
0.00565306
0.0050607
0.00597321
0.00645378
0.00627421
0.0072258
0.0081046
0.00916227
0.009208
0.00956063
0.000289753
0.00323542
0.00408979
0.0031177
0.00167211
0.00330627
0.00329409
0.0038626
0.00496901
0.00586088
0.00564533
0.00503867
0.00600343
0.00643499
0.00625966
0.00721391
0.00802895
0.00901411
0.00903097
0.00928094
0.000324707
0.00323044
0.00407066
0.00313934
0.00172292
0.00329796
0.00332939
0.00387084
0.00495333
0.00582494
0.00563737
0.00501698
0.0060298
0.00641989
0.00623734
0.0072032
0.00794489
0.00885807
0.008857
0.00899822
0.000360757
0.0032254
0.00405168
0.00316028
0.00177542
0.0032895
0.00336485
0.00387902
0.00493809
0.00578752
0.00562875
0.00499638
0.00605146
0.00640894
0.00620719
0.00719179
0.00785525
0.00869048
0.00868744
0.00871549
0.000397957
0.00322022
0.00403293
0.00318045
0.00182962
0.00328091
0.00340037
0.00388706
0.00492316
0.00574897
0.00561901
0.0049774
0.00606765
0.00640232
0.00616962
0.0071772
0.00776313
0.00850955
0.0085216
0.00843694
0.000436373
0.00321481
0.00401456
0.00319977
0.0018855
0.00327217
0.00343588
0.00389498
0.00490833
0.0057098
0.0056077
0.00496039
0.00607781
0.00639988
0.0061254
0.00715654
0.0076713
0.0083148
0.00835778
0.00816743
0.000476082
0.00320907
0.00399668
0.00321817
0.00194301
0.00326331
0.00347126
0.00390289
0.00489332
0.0056705
0.00559443
0.0049455
0.00608164
0.00640109
0.00607572
0.0071269
0.00758196
0.00810754
0.00819244
0.00791178
0.000517175
0.00320285
0.00397943
0.0032356
0.00200209
0.0032544
0.00350635
0.00391093
0.0048777
0.00563154
0.00557887
0.00493276
0.00607909
0.00640505
0.00602189
0.00708582
0.00749627
0.0078916
0.00802141
0.00767377
0.000559749
0.00319603
0.00396292
0.00325202
0.00206266
0.00324553
0.00354096
0.00391938
0.00486099
0.00559328
0.0055609
0.00492194
0.00607033
0.00641065
0.00596519
0.00703137
0.00741459
0.00767065
0.00784064
0.00745545
0.000603907
0.00318847
0.00394729
0.0032674
0.00212458
0.00323687
0.00357482
0.00392862
0.00484279
0.00555596
0.00554061
0.00491249
0.00605562
0.00641682
0.00590668
0.00696214
0.00733666
0.00744859
0.00764693
0.00725714
0.000649768
0.00317998
0.00393264
0.00328174
0.00218765
0.00322866
0.00360753
0.00393905
0.00482286
0.00551953
0.00551831
0.00490384
0.00603522
0.00642267
0.00584736
0.00687738
0.00726122
0.00722832
0.00743871
0.00707709
0.000697462
0.00317041
0.00391905
0.00329509
0.00225165
0.00322118
0.00363864
0.00395106
0.00480102
0.00548374
0.00549451
0.00489549
0.0060093
0.00642718
0.00578825
0.00677689
0.00718631
0.00700317
0.00721587
0.00691155
0.000747117
0.00315958
0.00390662
0.00330752
0.00231628
0.00321487
0.00366758
0.00396488
0.00477736
0.00544823
0.00546967
0.00488696
0.00597791
0.0064294
0.00573035
0.00666056
0.00710978
0.00679186
0.00697942
0.00675544
0.000798864
0.00314732
0.00389536
0.00331919
0.00238114
0.00321033
0.00369388
0.0039805
0.00475228
0.00541243
0.00544419
0.00487793
0.00594085
0.00642845
0.00567474
0.00652888
0.00702904
0.0066027
0.0067312
0.0066028
0.000852857
0.00313346
0.00388524
0.00333038
0.0024457
0.00320806
0.00371726
0.00399784
0.00472628
0.00537563
0.00541831
0.00486836
0.00589797
0.00642312
0.00562248
0.00638317
0.00694073
0.00643428
0.00647439
0.00644638
0.000909242
0.00311789
0.00387619
0.00334143
0.0025094
0.00320849
0.00373763
0.00401655
0.00470002
0.00533737
0.00539197
0.00485818
0.0058494
0.00641222
0.00557432
0.0062256
0.0068412
0.0062881
0.00621432
0.0062775
0.000968158
0.00310053
0.00386801
0.00335272
0.00257166
0.00321199
0.00375516
0.00403588
0.00467412
0.00529755
0.00536498
0.00484725
0.00579524
0.0063948
0.00553057
0.00605881
0.00672747
0.00616401
0.00595891
0.00608817
0.00102975
0.00308133
0.00386043
0.0033647
0.00263203
0.00321876
0.00377032
0.00405501
0.00464891
0.00525617
0.00533712
0.00483557
0.00573535
0.00636986
0.00549141
0.00588572
0.00659761
0.00605925
0.00571731
0.00587427
0.00109414
0.00306032
0.00385306
0.00337778
0.00269019
0.00322874
0.00378381
0.00407332
0.00462439
0.00521345
0.00530804
0.00482296
0.00566981
0.00633651
0.00545666
0.0057096
0.00645057
0.00596865
0.00549796
0.00563778
0.00116145
0.00303763
0.00384541
0.00339232
0.00274597
0.00324153
0.00379651
0.00409057
0.00460024
0.00516949
0.0052775
0.00480919
0.00559875
0.00629399
0.00542577
0.0055336
0.00628698
0.00588625
0.00530716
0.00538646
0.00123174
0.00301356
0.00383685
0.00340861
0.00279946
0.00325651
0.00380919
0.00410668
0.00457599
0.00512429
0.0052454
0.00479414
0.0055223
0.00624145
0.00539834
0.00536075
0.00610821
0.00580605
0.00514795
0.00513202
0.00130508
0.00298859
0.00382668
0.00342672
0.00285104
0.00327289
0.00382215
0.00412213
0.00455129
0.00507771
0.00521182
0.00477767
0.00544073
0.00617814
0.00537381
0.00519386
0.00591608
0.00572272
0.00501992
0.00488802
0.00138145
0.0029632
0.00381423
0.00344656
0.00290118
0.00328999
0.00383546
0.00413776
0.00452613
0.00502915
0.00517663
0.00475977
0.0053544
0.00610357
0.00535126
0.00503545
0.00571293
0.0056321
0.00491914
0.00466661
0.00146082
0.00293791
0.0037988
0.00346795
0.00295035
0.00330752
0.00384895
0.00415401
0.00450079
0.00497808
0.00513955
0.00474044
0.00526375
0.00601746
0.00532955
0.00488802
0.00550107
0.00553142
0.00483991
0.0044761
0.00154309
0.00291328
0.00377983
0.00349063
0.00299884
0.00332532
0.00386231
0.00417098
0.00447587
0.00492422
0.00510009
0.0047196
0.00516934
0.0059198
0.00530729
0.00475393
0.00528263
0.00541877
0.0047771
0.00431979
0.00162806
0.00289002
0.00375705
0.00351416
0.00304667
0.00334325
0.00387535
0.00418857
0.00445212
0.00486755
0.00505767
0.00469749
0.00507177
0.00581052
0.00528293
0.00463553
0.00506005
0.00529187
0.00472651
0.00419741
0.00171544
0.00286846
0.00373038
0.00353816
0.00309376
0.00336117
0.00388813
0.00420619
0.0044299
0.00480862
0.00501186
0.00467421
0.00497174
0.00569001
0.00525456
0.00453467
0.00483668
0.00514719
0.00468299
0.00410868
0.00180484
0.0028502
0.00370005
0.00356223
0.00313992
0.00337872
0.00390091
0.00422346
0.00440912
0.00474815
0.00496253
0.00464955
0.00487013
0.00555882
0.00522603
0.004453
0.00461774
0.00498106
0.00463884
0.00405305
0.00189583
0.00283533
0.00366648
0.00358591
0.00318499
0.00339525
0.00391383
0.00424038
0.00438917
0.00468654
0.0049102
0.00462349
0.00476792
0.00541672
0.00518421
0.00439132
0.00440936
0.00479317
0.00458396
0.00402357
0.00198786
0.00282447
0.00363017
0.0036087
0.00322897
0.00340985
0.00392677
0.00425748
0.0043696
0.0046237
0.00485531
0.00459651
0.00466645
0.00526423
0.00513237
0.00434897
0.0042171
0.00458776
0.0045094
0.00400746
0.00208033
0.00281815
0.00359175
0.00363012
0.00327212
0.0034216
0.00393898
0.00427601
0.00435065
0.00455857
0.00479767
0.00457055
0.00456789
0.00510343
0.005066
0.00432324
0.00404889
0.00437103
0.00441139
0.00399181
0.0021727
0.00281679
0.0035519
0.00364973
0.00331498
0.00342951
0.00394896
0.00429714
0.00433332
0.00449042
0.00473635
0.00454719
0.00447537
0.00493469
0.00498005
0.00430896
0.00391339
0.00415044
0.00428912
0.00396801
0.00226438
0.00282074
0.00351139
0.003667
0.00335823
0.00343317
0.00395438
0.00432116
0.00431985
0.00441927
0.00466941
0.00452586
0.0043923
0.00476059
0.00487158
0.00429801
0.00381579
0.00393549
0.00414109
0.00393451
0.00235482
0.00283017
0.00347108
0.00368133
0.00340251
0.00343298
0.00395254
0.00434819
0.0043131
0.00434605
0.00459486
0.00450459
0.00432175
0.00458677
0.00474097
0.00427934
0.0037541
0.00374014
0.00396667
0.0038878
0.0024435
0.0028452
0.00343187
0.0036921
0.0034482
0.00342991
0.00394111
0.00437572
0.00431579
0.00427189
0.00451078
0.00448031
0.0042658
0.00442182
0.00459146
0.00424266
0.00371884
0.00358111
0.0037744
0.00381586
0.00252997
0.00286585
0.00339463
0.00369862
0.0034954
0.00342578
0.00391826
0.00439946
0.00432937
0.00420317
0.00441669
0.00444928
0.00422502
0.00427151
0.00442824
0.004182
0.00369739
0.00346772
0.00358339
0.00370568
0.00261382
0.002892
0.0033602
0.00370026
0.00354377
0.00342299
0.00388327
0.00441455
0.00435379
0.00414497
0.00431395
0.00440731
0.00419708
0.00414183
0.00425766
0.00409688
0.00367501
0.00339306
0.0034174
0.00356138
0.00269463
0.00292353
0.00332891
0.00369634
0.00359242
0.00342407
0.00383698
0.0044162
0.00438567
0.00410146
0.00420674
0.00435068
0.0041767
0.00403635
0.00408853
0.00399071
0.00364154
0.00334178
0.00329357
0.00340885
0.00277203
0.00296011
0.00330294
0.00368639
0.00363989
0.00343139
0.00378193
0.0044005
0.00441928
0.00407551
0.00410189
0.00427897
0.0041574
0.00395503
0.00392923
0.00386798
0.00359547
0.00329968
0.0032054
0.00327635
0.00284574
0.0030011
0.00328316
0.00367064
0.00368411
0.00344673
0.00372197
0.0043647
0.0044486
0.00406823
0.00400532
0.0041941
0.00413298
0.00389569
0.00378654
0.0037322
0.00353699
0.00326187
0.00313602
0.00317817
0.00291564
0.00304562
0.0032704
0.00364975
0.00372255
0.00347072
0.00366162
0.00430805
0.00446686
0.00407799
0.00392217
0.00409938
0.00409888
0.00385438
0.003668
0.0035901
0.00346102
0.00323008
0.00307802
0.00310245
0.00298173
0.00309264
0.00326522
0.00362489
0.0037528
0.00350271
0.0036051
0.00419887
0.00446654
0.00409975
0.00385814
0.00400068
0.00405276
0.00382411
0.00357734
0.00345357
0.00336288
0.0031981
0.00303619
0.00303623
0.00304407
0.00314111
0.00326779
0.00359786
0.00377295
0.00354096
0.00355861
0.00411093
0.00444506
0.00412594
0.00381428
0.00390498
0.00399657
0.00379849
0.00351029
0.0033352
0.00325054
0.00315139
0.0030126
0.00298299
0.00310281
0.00319003
0.00327785
0.00357083
0.00378199
0.00358207
0.0035258
0.00401426
0.0043999
0.00414822
0.00378863
0.00381568
0.00393238
0.00377582
0.00346257
0.00323936
0.00313917
0.0030812
0.00299468
0.00295219
0.00315812
0.00323844
0.00329491
0.00354567
0.00378011
0.00362146
0.00350772
0.00391682
0.0043307
0.00415944
0.00377862
0.00373647
0.00386034
0.00375406
0.00343382
0.00316338
0.0030394
0.00299692
0.00296299
0.00293939
0.00321028
0.00328547
0.00331806
0.00352399
0.00376827
0.00365506
0.00350338
0.00382566
0.0042417
0.00415291
0.00377889
0.00367078
0.00378219
0.00372712
0.00342318
0.0031088
0.00295236
0.00291258
0.00291156
0.00292841
0.00325956
0.0033304
0.00334591
0.00350714
0.00374824
0.00368013
0.00350989
0.00374538
0.00414196
0.00412755
0.00378146
0.00361823
0.00370278
0.00368986
0.00342446
0.00308154
0.00287897
0.00283347
0.00285049
0.00290393
0.00330615
0.00337281
0.00337665
0.00349586
0.00372285
0.00369517
0.00352253
0.00367856
0.00403863
0.00408423
0.00378205
0.00357697
0.00362467
0.00364277
0.003428
0.00308144
0.00282685
0.0027595
0.00278913
0.00286479
0.00335022
0.0034124
0.00340839
0.00349021
0.00369508
0.00370009
0.00353655
0.00362566
0.00393768
0.00402556
0.00377695
0.0035468
0.00355001
0.00358619
0.00342661
0.00310114
0.00280519
0.00269421
0.00272898
0.00282006
0.00339186
0.003449
0.00343965
0.00348967
0.00366724
0.00369585
0.00354862
0.00358466
0.00384431
0.00395649
0.00376266
0.00352648
0.00348289
0.00352003
0.00341489
0.00313168
0.00281678
0.00264828
0.00266899
0.00277606
0.00343096
0.00348257
0.00346938
0.00349322
0.00364097
0.00368436
0.00355696
0.00355237
0.00375996
0.00388313
0.00373873
0.00351084
0.00342856
0.00345037
0.00338765
0.00316084
0.0028551
0.0026354
0.00261457
0.00273158
0.00346737
0.0035132
0.00349703
0.00349945
0.00361705
0.00366779
0.00356071
0.00352613
0.00368426
0.00380916
0.00370811
0.00349631
0.00338653
0.00338496
0.00334741
0.00317726
0.00290889
0.00266189
0.00258121
0.00268602
0.00350094
0.0035409
0.00352236
0.00350715
0.0035956
0.00364784
0.00355982
0.00350417
0.0036165
0.00373549
0.0036728
0.00348317
0.00335323
0.00332927
0.00330342
0.00317731
0.0029607
0.00271972
0.00258535
0.0026494
0.00353156
0.00356553
0.00354514
0.00351559
0.00357642
0.00362562
0.00355462
0.0034854
0.00355612
0.00366297
0.00363226
0.0034719
0.00332979
0.00328127
0.00326325
0.00316974
0.002999
0.00279445
0.00263234
0.00264033
0.00355914
0.00358697
0.00356512
0.00352436
0.00355925
0.00360182
0.00354561
0.00346905
0.0035029
0.00359314
0.00358607
0.00345878
0.00331874
0.00324319
0.0032265
0.00316413
0.00302647
0.0028663
0.0027126
0.00267486
0.00358365
0.00360515
0.00358196
0.00353313
0.00354395
0.00357675
0.00353285
0.00345393
0.0034559
0.00352626
0.00353638
0.00343894
0.00331574
0.00322292
0.00319352
0.00316329
0.00305609
0.00292977
0.00280956
0.00275402
0.00360508
0.00362017
0.00359542
0.00354142
0.00353063
0.00355085
0.00351613
0.00343932
0.00341502
0.00346155
0.00348378
0.00341309
0.00331265
0.0032206
0.00317255
0.00316548
0.00309741
0.0029958
0.00290997
0.00286475
0.0036234
0.00363223
0.00360536
0.00354865
0.00351931
0.00352462
0.00349517
0.00342339
0.00337998
0.00340007
0.00342676
0.00338149
0.00330374
0.0032288
0.00317012
0.00317262
0.00315304
0.0030817
0.00302303
0.00299864
0.00363865
0.00364153
0.00361181
0.00355428
0.00351001
0.00349893
0.00347067
0.00340438
0.00334896
0.00334431
0.00336609
0.00334144
0.00328618
0.00323681
0.00318441
0.00318853
0.00321781
0.00319754
0.00316965
0.00316605
0.00365084
0.00364835
0.00361515
0.00355775
0.00350246
0.00347455
0.00344329
0.00338188
0.00331977
0.00329432
0.00330553
0.00329332
0.00325736
0.0032364
0.00320784
0.00321799
0.00328972
0.00333967
0.00336282
0.00338728
0.00366005
0.00365304
0.0036159
0.00355863
0.00349602
0.00345269
0.00341415
0.00335575
0.00329081
0.00324852
0.0032488
0.00324326
0.00321884
0.00322421
0.00323192
0.00325966
0.00336984
0.00350196
0.00360548
0.00367771
0.00366646
0.00365586
0.00361377
0.00355679
0.00348994
0.00343383
0.00338561
0.00332662
0.00326167
0.00320691
0.0031951
0.00319961
0.00318772
0.00321257
0.00326553
0.00332673
0.00346909
0.00366902
0.00384111
0.00394245
0.00367041
0.00365719
0.00361108
0.00355251
0.00348346
0.00341768
0.00335953
0.00329697
0.00323276
0.00317002
0.00314387
0.00315916
0.00317177
0.00322482
0.00333715
0.0034476
0.0035983
0.00380427
0.0039911
0.00409672
0.00367239
0.00365732
0.00360786
0.00354706
0.00347634
0.00340363
0.00333658
0.00326892
0.00320642
0.00314524
0.00310646
0.0031175
0.0031442
0.00320984
0.00337344
0.00356351
0.00375595
0.00397378
0.00416983
0.00428006
0.003673
0.00365624
0.00360438
0.00354107
0.00346879
0.00339135
0.00331658
0.00324279
0.00317981
0.00312778
0.0030972
0.00312296
0.00318731
0.00326427
0.00341128
0.00360476
0.0037902
0.00398023
0.00415868
0.004275
0.00367281
0.00365538
0.00360198
0.00353659
0.00346325
0.00338315
0.00330409
0.003227
0.00316072
0.00311252
0.00308349
0.00309542
0.00317254
0.00328685
0.00345531
0.00368757
0.00391799
0.00411671
0.00427466
0.0043659
0.00367287
0.00365462
0.00360003
0.00353236
0.00345657
0.00337378
0.0032906
0.00320983
0.00314062
0.00309299
0.00307359
0.00309115
0.00317653
0.00331366
0.00348895
0.00371502
0.00394964
0.00414913
0.0042977
0.00437537
0.0163607
0.0109601
0.00317768
-0.00269257
-0.00428243
-0.0033903
-0.00211657
-0.00104541
-0.00025105
0.000265032
0.000502287
0.000580462
0.00066635
0.000804899
0.000988673
0.00115061
0.00121478
0.0012559
0.00130943
0.00131384
0.00135567
0.00150683
0.00164383
0.00169444
0.00174623
0.00186585
0.00200287
0.00211038
0.00221252
0.00232646
0.00243982
0.00253558
0.00262107
0.00271545
0.00282076
0.00292289
0.00301252
0.00310825
0.00322431
0.00333476
0.00343368
0.00354588
0.00366038
0.003762
0.00387058
0.00398217
0.0040867
0.00420899
0.00433025
0.00443694
0.0045429
0.00463973
0.00474547
0.00488112
0.00501082
0.00514886
0.00532742
0.005497
0.0056185
0.00571057
0.00582753
0.0059905
0.00616967
0.00633179
0.00650299
0.00669438
0.00688231
0.007069
0.00727076
0.00748743
0.00770654
0.00793691
0.00817507
0.00841265
0.00865426
0.00890488
0.00916622
0.00942558
0.0096868
0.00995193
0.0102312
0.0105252
0.0108258
0.0111278
0.0114253
0.0117326
0.0120431
0.0123692
0.0126983
0.0130359
0.0133769
0.0137201
0.0140709
0.0144239
0.0147895
0.0151476
0.0155258
0.015894
0.0161838
0.0165125
0.0156727
0.0108191
0.00326738
-0.00254048
-0.00419193
-0.00334934
-0.00209341
-0.00102939
-0.000238219
0.000276238
0.000512126
0.000588794
0.000673388
0.000810907
0.000993953
0.00115546
0.0012191
0.00125971
0.00131296
0.00131696
0.00135829
0.0015093
0.00164629
0.00169667
0.00174815
0.0018676
0.00200454
0.00211192
0.00221392
0.00232776
0.00244105
0.00253674
0.00262215
0.00271645
0.00282171
0.0029238
0.00301339
0.00310905
0.00322508
0.00333552
0.00343439
0.00354656
0.00366105
0.00376264
0.00387119
0.00398276
0.00408725
0.00420952
0.00433078
0.00443744
0.00454338
0.00464019
0.00474588
0.00488151
0.00501119
0.00514919
0.00532773
0.00549731
0.0056188
0.00571084
0.00582776
0.0059907
0.00616986
0.00633197
0.00650315
0.00669452
0.00688244
0.00706912
0.00727086
0.00748752
0.00770663
0.00793699
0.00817514
0.00841271
0.00865432
0.00890493
0.00916626
0.00942562
0.00968684
0.00995197
0.0102313
0.0105252
0.0108258
0.0111278
0.0114253
0.0117326
0.0120431
0.0123692
0.0126983
0.0130359
0.0133769
0.0137201
0.014071
0.0144239
0.0147895
0.0151476
0.0155258
0.015894
0.0161838
0.0165124
0.0150316
0.0106642
0.00344514
-0.00225702
-0.00403449
-0.00329003
-0.00206495
-0.00101075
-0.00022485
0.000286616
0.000520986
0.000596841
0.00068074
0.000817317
0.000999428
0.00116023
0.00122316
0.00126322
0.00131618
0.00131973
0.00136061
0.00151152
0.00164843
0.00169856
0.00174981
0.00186917
0.00200602
0.00211325
0.00221513
0.0023289
0.00244212
0.00253773
0.00262304
0.00271728
0.00282251
0.00292457
0.0030141
0.00310971
0.00322572
0.00333615
0.00343496
0.00354711
0.0036616
0.00376315
0.00387168
0.00398324
0.0040877
0.00420995
0.00433121
0.00443785
0.00454378
0.00464056
0.0047462
0.00488183
0.00501149
0.00514946
0.005328
0.0054976
0.00561906
0.00571105
0.00582793
0.00599087
0.00617003
0.00633213
0.00650327
0.00669465
0.00688255
0.00706921
0.00727095
0.0074876
0.0077067
0.00793705
0.0081752
0.00841276
0.00865436
0.00890496
0.0091663
0.00942566
0.00968687
0.00995199
0.0102313
0.0105252
0.0108259
0.0111278
0.0114253
0.0117326
0.0120431
0.0123692
0.0126983
0.0130359
0.0133769
0.0137201
0.014071
0.0144239
0.0147896
0.0151476
0.0155258
0.015894
0.0161838
0.0165124
0.014424
0.0104983
0.00366821
-0.00189503
-0.00380855
-0.0031963
-0.00201684
-0.00097966
-0.000204201
0.000300458
0.000531427
0.000606373
0.000690017
0.000825677
0.00100648
0.0011663
0.00122848
0.00126797
0.00132059
0.0013237
0.00136395
0.00151431
0.00165088
0.00170084
0.00175199
0.0018712
0.00200785
0.00211487
0.00221662
0.00233029
0.0024434
0.00253889
0.00262408
0.00271824
0.00282341
0.00292542
0.00301489
0.00311043
0.00322642
0.00333682
0.00343558
0.00354771
0.00366219
0.00376369
0.00387219
0.00398376
0.00408818
0.00421041
0.00433167
0.00443828
0.00454421
0.00464097
0.00474656
0.00488218
0.00501182
0.00514974
0.00532831
0.00549793
0.00561935
0.00571128
0.00582812
0.00599106
0.00617022
0.0063323
0.00650342
0.00669479
0.00688268
0.00706932
0.00727104
0.00748769
0.00770678
0.00793712
0.00817527
0.00841282
0.00865441
0.00890501
0.00916634
0.0094257
0.0096869
0.00995201
0.0102313
0.0105253
0.0108259
0.0111278
0.0114254
0.0117326
0.0120431
0.0123692
0.0126983
0.0130359
0.0133769
0.0137201
0.014071
0.0144239
0.0147896
0.0151476
0.0155258
0.015894
0.0161839
0.0165124
0.0138228
0.0103129
0.0039003
-0.00150937
-0.0035547
-0.00308542
-0.00195773
-0.000939165
-0.000176224
0.000318766
0.000544391
0.000618123
0.000701942
0.00083666
0.00101545
0.0011737
0.00123517
0.00127415
0.0013266
0.00132973
0.00136932
0.00151832
0.00165394
0.00170385
0.0017551
0.00187402
0.00201022
0.002117
0.00221867
0.00233218
0.00244508
0.00254039
0.00262544
0.00271947
0.00282452
0.00292644
0.00301584
0.00311131
0.00322724
0.00333759
0.0034363
0.00354841
0.00366286
0.0037643
0.00387278
0.00398436
0.00408874
0.00421094
0.00433218
0.00443876
0.00454471
0.00464146
0.00474697
0.00488258
0.00501221
0.00515011
0.00532872
0.00549835
0.00561972
0.00571157
0.00582837
0.0059913
0.00617047
0.00633252
0.00650361
0.00669498
0.00688285
0.00706946
0.00727117
0.00748781
0.00770689
0.00793721
0.00817536
0.0084129
0.00865448
0.00890507
0.0091664
0.00942575
0.00968694
0.00995205
0.0102313
0.0105253
0.0108259
0.0111278
0.0114254
0.0117327
0.0120432
0.0123692
0.0126983
0.0130359
0.0133769
0.0137201
0.014071
0.0144239
0.0147896
0.0151476
0.0155258
0.0158941
0.016184
0.0165124
0.0132314
0.0101066
0.00412421
-0.00111895
-0.00328706
-0.00296712
-0.00189568
-0.000894816
-0.000143573
0.000340866
0.000559934
0.000631975
0.000716053
0.000849706
0.00102579
0.00118199
0.00124287
0.00128146
0.00133395
0.00133791
0.00137715
0.00152399
0.00165798
0.00170797
0.00175953
0.00187785
0.00201324
0.00211971
0.00222137
0.00233473
0.00244731
0.00254237
0.00262727
0.00272113
0.00282596
0.00292773
0.00301706
0.00311242
0.00322823
0.0033385
0.00343717
0.00354925
0.00366363
0.00376499
0.00387344
0.00398506
0.00408942
0.00421157
0.00433274
0.0044393
0.00454531
0.00464204
0.00474747
0.00488305
0.00501268
0.0051506
0.00532925
0.00549887
0.00562017
0.00571197
0.00582873
0.00599164
0.00617079
0.00633282
0.00650389
0.00669523
0.00688308
0.00706966
0.00727135
0.00748798
0.00770703
0.00793735
0.00817549
0.00841301
0.00865457
0.00890515
0.00916648
0.00942583
0.009687
0.0099521
0.0102314
0.0105253
0.0108259
0.0111279
0.0114254
0.0117327
0.0120432
0.0123693
0.0126983
0.013036
0.013377
0.0137201
0.014071
0.0144239
0.0147896
0.0151476
0.0155259
0.0158941
0.0161841
0.0165124
0.0126576
0.00987653
0.00433157
-0.0007273
-0.00300607
-0.00284214
-0.00183287
-0.000849197
-0.000108015
0.000366025
0.000577803
0.000647517
0.000731575
0.000863945
0.00103685
0.00119067
0.00125106
0.0012893
0.00134202
0.00134765
0.00138706
0.00153128
0.00166321
0.00171351
0.00176555
0.00188291
0.00201698
0.002123
0.00222471
0.00233789
0.00245011
0.00254491
0.00262969
0.00272333
0.00282783
0.00292939
0.00301866
0.00311388
0.00322944
0.00333957
0.00343823
0.00355027
0.00366456
0.0037658
0.00387423
0.0039859
0.00409028
0.00421234
0.00433339
0.00443993
0.00454603
0.00464277
0.00474806
0.00488357
0.00501325
0.00515127
0.00532998
0.00549954
0.00562077
0.00571252
0.00582925
0.00599212
0.00617124
0.00633325
0.0065043
0.0066956
0.0068834
0.00706995
0.00727162
0.00748822
0.00770725
0.00793754
0.00817567
0.00841318
0.00865471
0.00890527
0.0091666
0.00942593
0.00968709
0.00995217
0.0102314
0.0105254
0.010826
0.0111279
0.0114255
0.0117327
0.0120432
0.0123693
0.0126983
0.013036
0.013377
0.0137201
0.014071
0.0144239
0.0147896
0.0151477
0.0155259
0.0158942
0.0161843
0.0165124
0.0121054
0.00962405
0.00452169
-0.000332965
-0.00271047
-0.00271021
-0.0017703
-0.000803736
-7.05617e-05
0.000393783
0.000597736
0.00066439
0.000748013
0.000878906
0.00104843
0.00119968
0.00125954
0.00129737
0.00135038
0.00135816
0.00139815
0.00153964
0.00166944
0.00172041
0.00177317
0.00188923
0.00202151
0.00212687
0.00222858
0.00234153
0.00245332
0.00254792
0.00263267
0.00272609
0.00283016
0.00293147
0.00302073
0.00311578
0.00323097
0.00334087
0.00343952
0.00355152
0.00366567
0.00376677
0.00387515
0.0039869
0.00409134
0.00421328
0.00433416
0.00444069
0.00454695
0.00464371
0.00474878
0.00488411
0.00501389
0.00515212
0.00533092
0.00550039
0.00562154
0.0057133
0.00583
0.0059928
0.00617186
0.00633386
0.00650489
0.00669613
0.00688385
0.00707037
0.007272
0.00748857
0.00770756
0.00793783
0.00817594
0.00841341
0.00865492
0.00890546
0.00916677
0.00942609
0.00968722
0.00995228
0.0102315
0.0105255
0.0108261
0.011128
0.0114255
0.0117328
0.0120433
0.0123693
0.0126984
0.013036
0.013377
0.0137202
0.014071
0.0144239
0.0147896
0.0151477
0.0155259
0.0158943
0.0161846
0.0165125
0.0115795
0.00935702
0.0046955
6.13488e-05
-0.00240249
-0.00257196
-0.00170849
-0.000759105
-3.1654e-05
0.000423998
0.000619656
0.000682461
0.000765198
0.000894475
0.00106054
0.00120913
0.00126841
0.00130576
0.00135897
0.00136902
0.00140978
0.00154854
0.0016763
0.0017283
0.00178203
0.00189665
0.00202681
0.00213128
0.00223288
0.00234548
0.00245676
0.00255121
0.00263607
0.00272933
0.00283289
0.00293391
0.00302324
0.00311817
0.00323288
0.00334246
0.00344107
0.00355299
0.00366698
0.00376793
0.00387624
0.00398809
0.00409261
0.00421441
0.00433505
0.00444161
0.00454814
0.00464498
0.00474971
0.0048847
0.00501455
0.00515311
0.00533204
0.00550141
0.00562252
0.00571435
0.00583105
0.00599371
0.00617267
0.0063347
0.00650571
0.00669686
0.00688448
0.00707096
0.00727255
0.00748906
0.00770799
0.00793824
0.00817632
0.00841375
0.00865522
0.00890573
0.00916703
0.00942631
0.00968741
0.00995244
0.0102317
0.0105256
0.0108262
0.0111281
0.0114256
0.0117328
0.0120433
0.0123694
0.0126984
0.0130361
0.0133771
0.0137202
0.0140711
0.014424
0.0147896
0.0151477
0.0155259
0.0158944
0.0161849
0.0165126
0.0110873
0.00908278
0.00484851
0.000449055
-0.00208442
-0.00242621
-0.00164656
-0.000715412
8.3963e-06
0.000456612
0.000643648
0.0007018
0.000783183
0.000910706
0.00107325
0.00121911
0.00127778
0.0013146
0.00136791
0.00138021
0.00142181
0.00155779
0.00168349
0.00173674
0.00179168
0.00190488
0.00203274
0.00213618
0.00223756
0.00234967
0.00246032
0.00255462
0.0026397
0.0027329
0.00283593
0.00293663
0.00302611
0.00312097
0.00323517
0.00334437
0.0034429
0.00355469
0.00366848
0.00376928
0.00387752
0.00398947
0.00409409
0.00421568
0.00433603
0.00444264
0.00454958
0.00464665
0.004751
0.00488545
0.00501525
0.00515415
0.00533324
0.00550252
0.00562368
0.00571571
0.00583244
0.00599489
0.0061737
0.00633577
0.00650681
0.00669783
0.00688534
0.00707177
0.00727329
0.00748971
0.00770858
0.00793879
0.00817683
0.0084142
0.00865563
0.00890611
0.00916738
0.00942663
0.00968768
0.00995267
0.0102319
0.0105258
0.0108264
0.0111283
0.0114257
0.011733
0.0120434
0.0123695
0.0126985
0.0130361
0.0133771
0.0137203
0.0140711
0.014424
0.0147897
0.0151478
0.015526
0.0158946
0.0161853
0.0165128
0.0106324
0.00880472
0.0049748
0.000825662
-0.00175598
-0.00227029
-0.00158334
-0.00067295
4.90327e-05
0.000491504
0.000669872
0.000722585
0.000802065
0.000927646
0.00108661
0.00122969
0.00128774
0.001324
0.00137732
0.00139188
0.00143436
0.00156746
0.00169092
0.00174544
0.00180178
0.00191363
0.00203914
0.00214146
0.00224256
0.00235409
0.00246401
0.0025581
0.00264348
0.00273669
0.0028392
0.00293954
0.0030292
0.00312409
0.00323779
0.00334657
0.00344499
0.00355661
0.00367016
0.00377081
0.00387899
0.00399105
0.00409577
0.00421708
0.00433706
0.00444371
0.00455117
0.00464866
0.00475273
0.00488652
0.0050161
0.00515522
0.00533438
0.00550356
0.0056249
0.00571734
0.00583421
0.00599637
0.00617495
0.00633708
0.00650817
0.00669905
0.00688643
0.00707282
0.00727427
0.00749055
0.00770933
0.00793949
0.00817749
0.0084148
0.00865615
0.0089066
0.00916785
0.00942706
0.00968805
0.00995297
0.0102321
0.010526
0.0108266
0.0111285
0.0114259
0.0117331
0.0120435