/*--------------------------------*- C++ -*----------------------------------*\
| =========                 |                                                 |
| \\      /  F ield         | OpenFOAM: The Open Source CFD Toolbox           |
|  \\    /   O peration     | Version:  v1912                                 |
|   \\  /    A nd           | Website:  www.openfoam.com                      |
|    \\/     M anipulation  |                                                 |
\*---------------------------------------------------------------------------*/
FoamFile
{
    version     2.0;
    format      ascii;
    class       surfaceScalarField;
    location    "3.95";
    object      phi;
}
// * * * * * * * * * * * * * * * * * * * * * * * * * * * * * * * * * * * * * //

dimensions      [0 3 -1 0 0 0 0];
oriented        oriented;


internalField   nonuniform List<scalar> 
19000
(
1.1386e-06
-5.33564e-07
1.18756e-06
3.0831e-07
1.20719e-06
-2.72621e-06
1.26594e-06
9.64332e-07
1.27008e-06
1.18444e-06
1.31549e-06
2.47442e-06
1.26873e-06
-2.07929e-07
1.19293e-06
-6.37352e-07
1.16492e-06
-2.26678e-06
1.17722e-06
-1.76965e-06
1.20835e-06
-1.6775e-06
1.23867e-06
-5.64536e-07
1.25628e-06
-1.72736e-07
1.27504e-06
-8.30489e-08
1.30151e-06
6.57802e-07
1.27143e-06
-1.72832e-07
1.31353e-06
8.06398e-07
1.24316e-06
-2.40295e-07
1.26814e-06
4.11145e-07
-3.46118e-07
1.16184e-06
1.19719e-06
-5.06496e-07
1.24494e-06
2.60564e-07
1.27335e-06
-2.75462e-06
1.33536e-06
9.02317e-07
1.33586e-06
1.18394e-06
1.38711e-06
2.42318e-06
1.33435e-06
-1.55172e-07
1.25908e-06
-5.62077e-07
1.20574e-06
-2.21345e-06
1.20776e-06
-1.77166e-06
1.24534e-06
-1.71508e-06
1.28919e-06
-6.0839e-07
1.3114e-06
-1.94941e-07
1.33899e-06
-1.10641e-07
1.35967e-06
6.37123e-07
1.34772e-06
-1.60882e-07
1.36983e-06
7.84285e-07
1.33134e-06
-2.01802e-07
1.32211e-06
4.20369e-07
-2.94134e-07
1.27013e-06
1.25727e-06
-4.80981e-07
1.29137e-06
2.26464e-07
1.32737e-06
-2.79062e-06
1.40753e-06
8.22156e-07
1.41446e-06
1.17701e-06
1.45419e-06
2.38345e-06
1.39638e-06
-9.73614e-08
1.32438e-06
-4.90075e-07
1.26101e-06
-2.15008e-06
1.25476e-06
-1.76542e-06
1.28289e-06
-1.74321e-06
1.33399e-06
-6.59492e-07
1.36668e-06
-2.27628e-07
1.39826e-06
-1.42226e-07
1.43216e-06
6.03229e-07
1.42676e-06
-1.55488e-07
1.45143e-06
7.59615e-07
1.42222e-06
-1.72586e-07
1.41629e-06
4.26297e-07
-2.43028e-07
1.36518e-06
1.31939e-06
-4.56266e-07
1.33163e-06
2.14226e-07
1.36931e-06
-2.82831e-06
1.47276e-06
7.1871e-07
1.50004e-06
1.14973e-06
1.52612e-06
2.35737e-06
1.46397e-06
-3.5218e-08
1.39388e-06
-4.1998e-07
1.32364e-06
-2.07984e-06
1.30852e-06
-1.7503e-06
1.32646e-06
-1.76115e-06
1.37908e-06
-7.12116e-07
1.42205e-06
-2.70603e-07
1.45984e-06
-1.80006e-07
1.50211e-06
5.6095e-07
1.5047e-06
-1.58077e-07
1.52793e-06
7.3639e-07
1.49951e-06
-1.44169e-07
1.49466e-06
4.31143e-07
-1.81757e-07
1.43339e-06
1.38549e-06
-4.33399e-07
1.37279e-06
2.26926e-07
1.40478e-06
-2.8603e-06
1.52824e-06
5.95243e-07
1.58381e-06
1.09417e-06
1.60008e-06
2.3411e-06
1.53218e-06
3.26848e-08
1.46545e-06
-3.5325e-07
1.39255e-06
-2.00694e-06
1.37051e-06
-1.72826e-06
1.37985e-06
-1.77048e-06
1.43152e-06
-7.63787e-07
1.48108e-06
-3.2016e-07
1.52529e-06
-2.2422e-07
1.57447e-06
5.11767e-07
1.58186e-06
-1.65462e-07
1.6088e-06
7.09447e-07
1.57863e-06
-1.13993e-07
1.57415e-06
4.35616e-07
-1.14895e-07
1.50729e-06
1.45721e-06
-4.14934e-07
1.4228e-06
2.61336e-07
1.44386e-06
-2.88136e-06
1.5807e-06
4.58402e-07
1.66267e-06
1.01221e-06
1.67483e-06
2.32893e-06
1.60223e-06
1.05278e-07
1.53929e-06
-2.903e-07
1.46474e-06
-1.9324e-06
1.43818e-06
-1.7017e-06
1.44175e-06
-1.77404e-06
1.49289e-06
-8.14931e-07
1.54604e-06
-3.73312e-07
1.59545e-06
-2.73625e-07
1.64984e-06
4.57373e-07
1.6609e-06
-1.7652e-07
1.69079e-06
6.79551e-07
1.65813e-06
-8.13286e-08
1.6531e-06
4.40645e-07
-4.30581e-08
1.58126e-06
1.53448e-06
-4.03197e-07
1.48616e-06
3.0966e-07
1.49508e-06
-2.89028e-06
1.63835e-06
3.15127e-07
1.73806e-06
9.12499e-07
1.74909e-06
2.31791e-06
1.67337e-06
1.80996e-07
1.61512e-06
-2.32047e-07
1.5399e-06
-1.85718e-06
1.51024e-06
-1.67204e-06
1.50984e-06
-1.77365e-06
1.5616e-06
-8.6669e-07
1.61646e-06
-4.28176e-07
1.66979e-06
-3.26949e-07
1.72795e-06
3.99214e-07
1.74134e-06
-1.89907e-07
1.77352e-06
6.4737e-07
1.73739e-06
-4.52e-08
1.73116e-06
4.46871e-07
3.23184e-08
1.65579e-06
1.61573e-06
-3.98793e-07
1.56296e-06
3.62422e-07
1.56124e-06
-2.88856e-06
1.70326e-06
1.7311e-07
1.81003e-06
8.05725e-07
1.82147e-06
2.30647e-06
1.74524e-06
2.57232e-07
1.69304e-06
-1.79845e-07
1.61823e-06
-1.78237e-06
1.58613e-06
-1.63994e-06
1.58212e-06
-1.76964e-06
1.63483e-06
-9.194e-07
1.68999e-06
-4.83341e-07
1.74626e-06
-3.83217e-07
1.807e-06
3.3848e-07
1.82126e-06
-2.04167e-07
1.85482e-06
6.1381e-07
1.81459e-06
-4.97914e-09
1.80686e-06
4.54605e-07
1.09537e-07
1.72964e-06
1.69925e-06
-4.00469e-07
1.65027e-06
4.11401e-07
1.63934e-06
-2.87763e-06
1.77114e-06
4.13009e-08
1.87602e-06
7.0085e-07
1.89036e-06
2.29213e-06
1.81761e-06
3.29974e-07
1.773e-06
-1.35227e-07
1.69991e-06
-1.70928e-06
1.66589e-06
-1.60593e-06
1.65742e-06
-1.76116e-06
1.70979e-06
-9.71774e-07
1.76357e-06
-5.37119e-07
1.82161e-06
-4.41257e-07
1.88384e-06
2.76255e-07
1.89761e-06
-2.1794e-07
1.93193e-06
5.7949e-07
1.88772e-06
3.92267e-08
1.87884e-06
4.63486e-07
1.86417e-07
1.80196e-06
1.78428e-06
-4.06022e-07
1.74416e-06
4.51517e-07
1.72406e-06
-2.85753e-06
1.83727e-06
-7.1912e-08
1.93447e-06
6.03655e-07
1.95546e-06
2.27114e-06
1.89086e-06
3.94571e-07
1.85496e-06
-9.93249e-08
1.78494e-06
-1.63925e-06
1.74981e-06
-1.57081e-06
1.7355e-06
-1.74685e-06
1.78469e-06
-1.02097e-06
1.83474e-06
-5.87169e-07
1.89256e-06
-4.99074e-07
1.95502e-06
2.13791e-07
1.96715e-06
-2.30067e-07
2.00203e-06
5.44611e-07
1.955e-06
8.62532e-08
1.94604e-06
4.72452e-07
2.6014e-07
1.87231e-06
1.87102e-06
-4.13297e-07
1.84148e-06
4.81065e-07
1.81169e-06
-2.82774e-06
1.90143e-06
-1.61655e-07
1.98801e-06
5.17072e-07
2.01885e-06
2.2403e-06
1.96595e-06
4.47468e-07
1.93899e-06
-7.23632e-08
1.87312e-06
-1.57338e-06
1.83811e-06
-1.5358e-06
1.81687e-06
-1.72561e-06
1.85931e-06
-1.06341e-06
1.90284e-06
-6.30696e-07
1.95732e-06
-5.53551e-07
2.01831e-06
1.52799e-07
2.02775e-06
-2.39506e-07
2.06326e-06
5.09102e-07
2.01563e-06
1.33883e-07
2.00824e-06
4.79844e-07
3.27439e-07
1.94094e-06
1.96023e-06
-4.2069e-07
1.94062e-06
5.00674e-07
1.90138e-06
-2.7885e-06
1.96769e-06
-2.27972e-07
2.04258e-06
4.42191e-07
2.0841e-06
2.19878e-06
2.04409e-06
4.87471e-07
2.02538e-06
-5.36455e-08
1.96425e-06
-1.51225e-06
1.93078e-06
-1.50232e-06
1.90244e-06
-1.69728e-06
1.93512e-06
-1.09608e-06
1.96957e-06
-6.65146e-07
2.01677e-06
-6.0076e-07
2.07404e-06
9.55336e-08
2.07971e-06
-2.4518e-07
2.11587e-06
4.72947e-07
2.07051e-06
1.79243e-07
2.06664e-06
4.83716e-07
3.85072e-07
2.00901e-06
2.0527e-06
-4.27197e-07
2.04143e-06
5.11945e-07
1.9941e-06
-2.74117e-06
2.04075e-06
-2.74624e-07
2.10385e-06
3.79094e-07
2.15443e-06
2.1482e-06
2.12635e-06
5.15551e-07
2.11472e-06
-4.20199e-08
2.05833e-06
-1.45587e-06
2.02754e-06
-1.47153e-06
1.99304e-06
-1.66279e-06
2.01459e-06
-1.11762e-06
2.03854e-06
-6.8909e-07
2.0747e-06
-6.36927e-07
2.12577e-06
4.44633e-08
2.12655e-06
-2.45961e-07
2.16303e-06
4.36469e-07
2.12277e-06
2.19508e-07
2.12405e-06
4.82432e-07
4.30409e-07
2.07871e-06
2.14908e-06
-4.32281e-07
2.14455e-06
5.16484e-07
2.09105e-06
-2.68768e-06
2.12294e-06
-3.06506e-07
2.17469e-06
3.27343e-07
2.23166e-06
2.09123e-06
2.21355e-06
5.33658e-07
2.20795e-06
-3.64195e-08
2.15575e-06
-1.40366e-06
2.12808e-06
-1.44387e-06
2.08906e-06
-1.62376e-06
2.10013e-06
-1.12869e-06
2.1138e-06
-7.02766e-07
2.13659e-06
-6.59717e-07
2.17954e-06
1.51517e-09
2.17453e-06
-2.40944e-07
2.2106e-06
4.0039e-07
2.17744e-06
2.52674e-07
2.18459e-06
4.7528e-07
4.62056e-07
2.15294e-06
2.24993e-06
-4.3572e-07
2.2509e-06
5.15516e-07
2.19287e-06
-2.62966e-06
2.21401e-06
-3.27646e-07
2.25522e-06
2.86137e-07
2.31642e-06
2.03003e-06
2.30641e-06
5.43661e-07
2.30605e-06
-3.60584e-08
2.25714e-06
-1.35475e-06
2.23231e-06
-1.41903e-06
2.19043e-06
-1.58188e-06
2.19306e-06
-1.13133e-06
2.19822e-06
-7.07931e-07
2.20758e-06
-6.6907e-07
2.24178e-06
-3.26816e-08
2.23073e-06
-2.299e-07
2.26553e-06
3.65587e-07
2.24017e-06
2.78033e-07
2.25266e-06
4.62794e-07
4.80154e-07
2.23456e-06
2.35567e-06
-4.37511e-07
2.36128e-06
5.09902e-07
2.29972e-06
-2.56809e-06
2.31278e-06
-3.40707e-07
2.34459e-06
2.54321e-07
2.40897e-06
1.96566e-06
2.40558e-06
5.47049e-07
2.40981e-06
-4.02808e-08
2.36322e-06
-1.30817e-06
2.34041e-06
-1.39622e-06
2.2969e-06
-1.53837e-06
2.2935e-06
-1.12792e-06
2.29266e-06
-7.07092e-07
2.29061e-06
-6.67022e-07
2.31693e-06
-5.90011e-08
2.30062e-06
-2.13588e-07
2.33344e-06
3.32771e-07
2.31541e-06
2.96061e-07
2.33164e-06
4.46559e-07
4.86196e-07
2.3256e-06
2.46667e-06
-4.37781e-07
2.47628e-06
5.00292e-07
2.41164e-06
-2.50346e-06
2.41843e-06
-3.47499e-07
2.44232e-06
2.30435e-07
2.50968e-06
1.89829e-06
2.51159e-06
5.45141e-07
2.51965e-06
-4.83353e-08
2.47455e-06
-1.26307e-06
2.45284e-06
-1.37451e-06
2.4084e-06
-1.49393e-06
2.40087e-06
-1.1204e-06
2.3964e-06
-7.02623e-07
2.38603e-06
-6.56642e-07
2.40636e-06
-7.93335e-08
2.38636e-06
-1.93595e-07
2.41685e-06
3.02288e-07
2.40506e-06
3.07845e-07
2.42307e-06
4.28554e-07
4.82508e-07
2.42676e-06
2.58323e-06
-4.36716e-07
2.5963e-06
4.87226e-07
2.52879e-06
-2.43595e-06
2.53083e-06
-3.49537e-07
2.54837e-06
2.12893e-07
2.61886e-06
1.82781e-06
2.62476e-06
5.39243e-07
2.63573e-06
-5.93111e-08
2.59148e-06
-1.21882e-06
2.57009e-06
-1.35312e-06
2.5251e-06
-1.44894e-06
2.51459e-06
-1.10989e-06
2.5082e-06
-6.96235e-07
2.49244e-06
-6.40875e-07
2.50883e-06
-9.57283e-08
2.48707e-06
-1.71829e-07
2.51517e-06
2.74181e-07
2.50853e-06
3.14487e-07
2.52683e-06
4.10254e-07
4.71828e-07
2.53751e-06
2.7056e-06
-4.34484e-07
2.7217e-06
4.71126e-07
2.65144e-06
-2.3657e-06
2.65011e-06
-3.48201e-07
2.66278e-06
2.00223e-07
2.73651e-06
1.75408e-06
2.74518e-06
5.30572e-07
2.75811e-06
-7.22445e-08
2.71428e-06
-1.175e-06
2.69263e-06
-1.33146e-06
2.6474e-06
-1.40371e-06
2.6344e-06
-1.09689e-06
2.6271e-06
-6.88933e-07
2.60809e-06
-6.21869e-07
2.62213e-06
-1.09763e-07
2.60026e-06
-1.49964e-07
2.62604e-06
2.48403e-07
2.62373e-06
3.16793e-07
2.64145e-06
3.92533e-07
4.56542e-07
2.65674e-06
2.83398e-06
-4.31192e-07
2.85283e-06
4.52277e-07
2.77989e-06
-2.29277e-06
2.77634e-06
-3.44643e-07
2.78534e-06
1.91223e-07
2.86233e-06
1.67708e-06
2.87283e-06
5.20074e-07
2.88685e-06
-8.62705e-08
2.84318e-06
-1.13132e-06
2.82081e-06
-1.30909e-06
2.7757e-06
-1.3586e-06
2.76038e-06
-1.08157e-06
2.75269e-06
-6.8124e-07
2.73178e-06
-6.00955e-07
2.74433e-06
-1.22314e-07
2.72355e-06
-1.29188e-07
2.74698e-06
2.24977e-07
2.74847e-06
3.15304e-07
2.76524e-06
3.75764e-07
4.38407e-07
2.78337e-06
2.96857e-06
-4.26869e-07
2.99003e-06
4.30816e-07
2.91445e-06
-2.21719e-06
2.90952e-06
-3.39715e-07
2.91574e-06
1.85004e-07
2.99592e-06
1.59691e-06
3.00765e-06
5.08339e-07
3.0221e-06
-1.00719e-07
2.97843e-06
-1.08765e-06
2.95495e-06
-1.28561e-06
2.91038e-06
-1.31404e-06
2.8928e-06
-1.06399e-06
2.88502e-06
-6.73457e-07
2.86301e-06
-5.78951e-07
2.87441e-06
-1.33715e-07
2.85542e-06
-1.10199e-07
2.87641e-06
2.03994e-07
2.88123e-06
3.1048e-07
2.89705e-06
3.59942e-07
4.18697e-07
2.91676e-06
3.10961e-06
-4.21476e-07
3.13364e-06
4.06787e-07
3.05545e-06
-2.139e-06
3.04975e-06
-3.34017e-07
3.05381e-06
1.80953e-07
3.13692e-06
1.5138e-06
3.14961e-06
4.95646e-07
3.16403e-06
-1.15138e-07
3.12032e-06
-1.04395e-06
3.09534e-06
-1.26063e-06
3.05175e-06
-1.27045e-06
3.03193e-06
-1.04417e-06
3.02425e-06
-6.65782e-07
3.00177e-06
-5.56469e-07
3.01206e-06
-1.44004e-07
2.99524e-06
-9.33782e-08
3.01368e-06
1.85556e-07
3.02136e-06
3.02801e-07
3.0364e-06
3.44905e-07
3.98323e-07
3.05677e-06
3.25736e-06
-4.14925e-07
3.28393e-06
3.80221e-07
3.20324e-06
-2.05832e-06
3.19723e-06
-3.28005e-07
3.1995e-06
1.78681e-07
3.28509e-06
1.42821e-06
3.29868e-06
4.8206e-07
3.31282e-06
-1.29276e-07
3.26916e-06
-1.00028e-06
3.24233e-06
-1.2338e-06
3.20005e-06
-1.22817e-06
3.17803e-06
-1.02216e-06
3.17057e-06
-6.58313e-07
3.14815e-06
-5.34056e-07
3.15726e-06
-1.53111e-07
3.14283e-06
-7.8945e-08
3.15873e-06
1.69652e-07
3.16873e-06
2.92806e-07
3.18317e-06
3.30464e-07
3.77889e-07
3.2036e-06
3.41212e-06
-4.07116e-07
3.44112e-06
3.51228e-07
3.35816e-06
-1.97536e-06
3.35224e-06
-3.22081e-07
3.35295e-06
1.77967e-07
3.44034e-06
1.34082e-06
3.45488e-06
4.67515e-07
3.46864e-06
-1.43035e-07
3.42525e-06
-9.56896e-07
3.39633e-06
-1.20488e-06
3.35554e-06
-1.18738e-06
3.33139e-06
-9.97999e-07
3.32408e-06
-6.5101e-07
3.3022e-06
-5.12177e-07
3.31004e-06
-1.60946e-07
3.29813e-06
-6.70341e-08
3.31169e-06
1.56086e-07
3.32343e-06
2.81071e-07
3.33748e-06
3.16409e-07
3.57732e-07
3.35764e-06
3.57427e-06
-3.97973e-07
3.60542e-06
3.20075e-07
3.52054e-06
-1.89048e-06
3.5151e-06
-3.1664e-07
3.51437e-06
1.7869e-07
3.60268e-06
1.25252e-06
3.6183e-06
4.5189e-07
3.63167e-06
-1.56401e-07
3.58892e-06
-9.1415e-07
3.55777e-06
-1.17372e-06
3.51845e-06
-1.14807e-06
3.49233e-06
-9.71877e-07
3.48495e-06
-6.43629e-07
3.46396e-06
-4.91187e-07
3.47044e-06
-1.67419e-07
3.46111e-06
-5.77094e-08
3.47273e-06
1.44465e-07
3.48568e-06
2.68124e-07
3.49954e-06
3.02549e-07
3.37972e-07
3.5193e-06
3.74422e-06
-3.87486e-07
3.77708e-06
2.87213e-07
3.69067e-06
-1.80407e-06
3.68611e-06
-3.12085e-07
3.68406e-06
1.80739e-07
3.77232e-06
1.16426e-06
3.78914e-06
4.35067e-07
3.80211e-06
-1.69367e-07
3.7605e-06
-8.7254e-07
3.72712e-06
-1.14034e-06
3.68908e-06
-1.11003e-06
3.66122e-06
-9.4402e-07
3.65342e-06
-6.3583e-07
3.63355e-06
-4.71315e-07
3.63858e-06
-1.72447e-07
3.63181e-06
-5.09401e-08
3.64201e-06
1.34258e-07
3.65575e-06
2.5439e-07
3.66958e-06
2.88716e-07
3.18579e-07
3.68897e-06
3.92243e-06
-3.75726e-07
3.9564e-06
2.5324e-07
3.86888e-06
-1.71654e-06
3.86559e-06
-3.08801e-07
3.8624e-06
1.83931e-07
3.94966e-06
1.07701e-06
3.96775e-06
4.16977e-07
3.98024e-06
-1.81859e-07
3.94029e-06
-8.32587e-07
3.90484e-06
-1.1049e-06
3.86777e-06
-1.07295e-06
3.83844e-06
-9.14692e-07
3.82985e-06
-6.27237e-07
3.8112e-06
-4.52667e-07
3.81474e-06
-1.75988e-07
3.81036e-06
-4.65622e-08
3.81974e-06
1.24885e-07
3.83396e-06
2.40163e-07
3.84792e-06
2.74758e-07
2.99476e-07
3.86702e-06
4.10936e-06
-3.62838e-07
4.14379e-06
2.18808e-07
4.05552e-06
-1.62827e-06
4.05384e-06
-3.07116e-07
4.04981e-06
1.87959e-07
4.13523e-06
9.91587e-07
4.1546e-06
3.9761e-07
4.16643e-06
-1.93691e-07
4.1286e-06
-7.94762e-07
4.09138e-06
-1.06768e-06
4.05495e-06
-1.03651e-06
4.02444e-06
-8.84191e-07
4.0147e-06
-6.17492e-07
3.99729e-06
-4.35254e-07
3.99936e-06
-1.78065e-07
3.99709e-06
-4.42932e-08
4.00617e-06
1.1581e-07
4.02069e-06
2.25646e-07
4.03489e-06
2.60559e-07
2.80586e-07
4.05378e-06
4.30547e-06
-3.4901e-07
4.33978e-06
1.84504e-07
4.25104e-06
-1.53954e-06
4.25116e-06
-3.07233e-07
4.24674e-06
1.92379e-07
4.32962e-06
9.08709e-07
4.35025e-06
3.76977e-07
4.36112e-06
-2.04563e-07
4.32576e-06
-7.59397e-07
4.28713e-06
-1.02906e-06
4.25104e-06
-1.00042e-06
4.21966e-06
-8.52815e-07
4.2085e-06
-6.06331e-07
4.19227e-06
-4.19016e-07
4.19297e-06
-1.7877e-07
4.19241e-06
-4.37377e-08
4.20162e-06
1.06608e-07
4.21634e-06
2.10924e-07
4.2308e-06
2.46092e-07
2.61881e-07
4.24951e-06
4.51119e-06
-3.34422e-07
4.54494e-06
1.50754e-07
4.45595e-06
-1.45055e-06
4.45788e-06
-3.09164e-07
4.45361e-06
1.96651e-07
4.5334e-06
8.28917e-07
4.55529e-06
3.55091e-07
4.56484e-06
-2.14118e-07
4.53207e-06
-7.26629e-07
4.49248e-06
-9.89461e-07
4.4565e-06
-9.64445e-07
4.42454e-06
-8.20858e-07
4.41184e-06
-5.93631e-07
4.39667e-06
-4.03838e-07
4.39614e-06
-1.78246e-07
4.39686e-06
-4.44512e-08
4.40642e-06
9.70453e-08
4.42137e-06
1.95976e-07
4.43601e-06
2.3145e-07
2.43452e-07
4.45444e-06
4.72691e-06
-3.19217e-07
4.75988e-06
1.17784e-07
4.67081e-06
-1.36148e-06
4.67435e-06
-3.12704e-07
4.67081e-06
2.00191e-07
4.74711e-06
7.52623e-07
4.77025e-06
3.31944e-07
4.77819e-06
-2.2205e-07
4.74793e-06
-6.96373e-07
4.7078e-06
-9.49329e-07
4.67179e-06
-9.28434e-07
4.63953e-06
-7.88598e-07
4.62531e-06
-5.79413e-07
4.61106e-06
-3.89594e-07
4.60945e-06
-1.76634e-07
4.611e-06
-4.5999e-08
4.621e-06
8.70451e-08
4.63621e-06
1.80764e-07
4.65094e-06
2.16721e-07
2.25545e-07
4.66885e-06
4.95306e-06
-3.03476e-07
4.9852e-06
8.56398e-08
4.89626e-06
-1.27255e-06
4.90098e-06
-3.17423e-07
4.89872e-06
2.02453e-07
4.97122e-06
6.80128e-07
4.99564e-06
3.07524e-07
5.00181e-06
-2.28222e-07
4.97376e-06
-6.68325e-07
4.93348e-06
-9.09051e-07
4.89738e-06
-8.92333e-07
4.86505e-06
-7.56269e-07
4.84945e-06
-5.63807e-07
4.83603e-06
-3.76184e-07
4.83349e-06
-1.74094e-07
4.83546e-06
-4.79673e-08
4.84587e-06
7.66341e-08
4.86131e-06
1.65328e-07
4.87609e-06
2.01945e-07
2.08401e-07
4.89323e-06
5.19007e-06
-2.87232e-07
5.22145e-06
5.42637e-08
5.13293e-06
-1.18403e-06
5.13823e-06
-3.22722e-07
5.13771e-06
2.02969e-07
5.20615e-06
6.11688e-07
5.23187e-06
2.81802e-07
5.2363e-06
-2.32649e-07
5.21006e-06
-6.42083e-07
5.16997e-06
-8.68965e-07
5.1338e-06
-8.56162e-07
5.10158e-06
-7.24042e-07
5.08477e-06
-5.47e-07
5.07216e-06
-3.63571e-07
5.06889e-06
-1.7083e-07
5.07093e-06
-5.00088e-08
5.08157e-06
6.59956e-08
5.09712e-06
1.49784e-07
5.112e-06
1.87061e-07
1.92222e-07
5.12818e-06
5.43845e-06
-2.70492e-07
5.46914e-06
2.35763e-08
5.38145e-06
-1.09634e-06
5.38662e-06
-3.27891e-07
5.38821e-06
2.01379e-07
5.4524e-06
5.47494e-07
5.47937e-06
2.54834e-07
5.48222e-06
-2.35495e-07
5.45737e-06
-6.17234e-07
5.41776e-06
-8.29357e-07
5.3816e-06
-8.19999e-07
5.34961e-06
-6.92052e-07
5.33177e-06
-5.2916e-07
5.31998e-06
-3.51786e-07
5.31622e-06
-1.67063e-07
5.31809e-06
-5.18799e-08
5.32868e-06
5.54021e-08
5.34419e-06
1.34274e-07
5.3592e-06
1.72057e-07
1.77028e-07
5.37439e-06
5.69873e-06
-2.53265e-07
5.72875e-06
-6.44517e-09
5.64246e-06
-1.01004e-06
5.64674e-06
-3.3217e-07
5.65069e-06
1.97426e-07
5.71052e-06
4.87666e-07
5.73857e-06
2.26785e-07
5.74009e-06
-2.37019e-07
5.71627e-06
-5.93414e-07
5.67738e-06
-7.90464e-07
5.64134e-06
-7.83963e-07
5.60971e-06
-6.6042e-07
5.59098e-06
-5.10431e-07
5.58e-06
-3.40803e-07
5.57606e-06
-1.63131e-07
5.57757e-06
-5.33843e-08
5.58785e-06
4.51188e-08
5.6032e-06
1.18921e-07
5.61833e-06
1.56934e-07
1.62749e-07
5.63261e-06
5.97151e-06
-2.35579e-07
6.0008e-06
-3.57355e-08
5.91656e-06
-9.25805e-07
5.91922e-06
-3.3483e-07
5.92568e-06
1.90962e-07
5.98112e-06
4.3223e-07
6.00996e-06
1.9794e-07
6.01045e-06
-2.37506e-07
5.98738e-06
-5.70346e-07
5.9494e-06
-7.52476e-07
5.91362e-06
-7.48184e-07
5.88247e-06
-6.29272e-07
5.86296e-06
-4.90923e-07
5.85272e-06
-3.30562e-07
5.84898e-06
-1.59392e-07
5.85e-06
-5.44048e-08
5.8598e-06
3.532e-08
5.87481e-06
1.0391e-07
5.88996e-06
1.41789e-07
1.49105e-07
5.9036e-06
6.25742e-06
-2.17507e-07
6.2858e-06
-6.41213e-08
6.20437e-06
-8.44376e-07
6.20473e-06
-3.35186e-07
6.21375e-06
1.81937e-07
6.2649e-06
3.81082e-07
6.29415e-06
1.68693e-07
6.29388e-06
-2.37237e-07
6.27134e-06
-5.47811e-07
6.23441e-06
-7.15546e-07
6.19902e-06
-7.12795e-07
6.16852e-06
-5.98765e-07
6.14833e-06
-4.70732e-07
6.13869e-06
-3.20921e-07
6.1355e-06
-1.56209e-07
6.13607e-06
-5.4967e-08
6.14513e-06
2.62572e-08
6.15975e-06
8.92894e-08
6.17466e-06
1.2688e-07
1.35744e-07
6.18802e-06
6.55712e-06
-1.99162e-07
6.58434e-06
-9.13366e-08
6.50653e-06
-7.66563e-07
6.50398e-06
-3.32642e-07
6.51545e-06
1.70467e-07
6.56259e-06
3.33949e-07
6.59175e-06
1.39525e-07
6.591e-06
-2.3648e-07
6.56884e-06
-5.25649e-07
6.53307e-06
-6.79779e-07
6.49819e-06
-6.7792e-07
6.46848e-06
-5.69054e-07
6.44777e-06
-4.50022e-07
6.43845e-06
-3.11598e-07
6.43611e-06
-1.5387e-07
6.4364e-06
-5.52561e-08
6.44456e-06
1.80961e-08
6.45863e-06
7.52144e-08
6.47328e-06
1.12232e-07
1.22675e-07
6.48635e-06
6.87133e-06
-1.807e-07
6.89704e-06
-1.17044e-07
6.82366e-06
-6.93185e-07
6.81776e-06
-3.26744e-07
6.83139e-06
1.56835e-07
6.87485e-06
2.9049e-07
6.90346e-06
1.10913e-07
6.90242e-06
-2.35439e-07
6.88057e-06
-5.03793e-07
6.84602e-06
-6.4523e-07
6.81178e-06
-6.43686e-07
6.78298e-06
-5.4025e-07
6.76202e-06
-4.29058e-07
6.75269e-06
-3.02271e-07
6.75128e-06
-1.52461e-07
6.75161e-06
-5.55907e-08
6.75876e-06
1.09457e-08
6.77226e-06
6.17226e-08
6.78642e-06
9.80684e-08
1.09871e-07
6.79922e-06
7.20074e-06
-1.62307e-07
7.22456e-06
-1.40861e-07
7.15648e-06
-6.25109e-07
7.14686e-06
-3.17117e-07
7.16225e-06
1.41444e-07
7.20238e-06
2.50356e-07
7.22999e-06
8.33003e-08
7.22884e-06
-2.34289e-07
7.20728e-06
-4.82224e-07
7.17394e-06
-6.11897e-07
7.14051e-06
-6.10252e-07
7.11266e-06
-5.12405e-07
7.0917e-06
-4.0809e-07
7.08218e-06
-2.92757e-07
7.0816e-06
-1.51881e-07
7.08225e-06
-5.62361e-08
7.08834e-06
4.85125e-09
7.10127e-06
4.87975e-08
7.11501e-06
8.43266e-08
9.7449e-08
7.12743e-06
7.54612e-06
-1.44198e-07
7.5676e-06
-1.62348e-07
7.50548e-06
-5.6298e-07
7.49205e-06
-3.03695e-07
7.50874e-06
1.24755e-07
7.54589e-06
2.13205e-07
7.57208e-06
5.71158e-08
7.57095e-06
-2.33162e-07
7.54973e-06
-4.61006e-07
7.5176e-06
-5.7976e-07
7.48505e-06
-5.7771e-07
7.45829e-06
-4.85639e-07
7.43754e-06
-3.87339e-07
7.42781e-06
-2.83026e-07
7.4278e-06
-1.51875e-07
7.42893e-06
-5.73684e-08
7.43375e-06
2.89139e-11
7.44554e-06
3.70108e-08
7.45933e-06
7.0536e-08
8.53717e-08
7.47141e-06
7.90821e-06
-1.26593e-07
7.92693e-06
-1.81069e-07
7.87079e-06
-5.06841e-07
7.85412e-06
-2.87029e-07
7.87158e-06
1.07294e-07
7.90614e-06
1.78652e-07
7.93058e-06
3.2671e-08
7.92948e-06
-2.32064e-07
7.9087e-06
-4.40221e-07
7.87775e-06
-5.48817e-07
7.84618e-06
-5.46141e-07
7.82052e-06
-4.59979e-07
7.80017e-06
-3.6699e-07
7.79038e-06
-2.73226e-07
7.79091e-06
-1.52414e-07
7.7928e-06
-5.92511e-08
7.79606e-06
-3.23165e-09
7.80469e-06
2.83806e-08
7.81663e-06
5.85935e-08
7.15367e-08
7.83047e-06
8.28781e-06
-1.09724e-07
8.30328e-06
-1.96537e-07
8.25301e-06
-4.56571e-07
8.23394e-06
-2.6796e-07
8.25161e-06
8.962e-08
8.28382e-06
1.46445e-07
8.30632e-06
1.01734e-08
8.30522e-06
-2.30963e-07
8.28498e-06
-4.19983e-07
8.25522e-06
-5.19059e-07
8.22471e-06
-5.15629e-07
8.20018e-06
-4.35452e-07
8.18051e-06
-3.47312e-07
8.17042e-06
-2.63136e-07
8.17156e-06
-1.53558e-07
8.17564e-06
-6.33315e-08
8.18014e-06
-7.72703e-09
8.18934e-06
1.91719e-08
8.2029e-06
4.50349e-08
5.8673e-08
8.21577e-06
8.68575e-06
-9.38136e-08
8.69752e-06
-2.0831e-07
8.65294e-06
-4.11989e-07
8.63231e-06
-2.47328e-07
8.64967e-06
7.22605e-08
8.6798e-06
1.16315e-07
8.70023e-06
-1.02512e-08
8.69895e-06
-2.29689e-07
8.67943e-06
-4.00459e-07
8.65085e-06
-4.90482e-07
8.62145e-06
-4.86226e-07
8.598e-06
-4.12006e-07
8.57912e-06
-3.28433e-07
8.56895e-06
-2.52963e-07
8.5709e-06
-1.55514e-07
8.57807e-06
-7.04937e-08
8.58655e-06
-1.62059e-08
8.59688e-06
8.84153e-09
8.60848e-06
3.34286e-08
4.84691e-08
8.61869e-06
9.10287e-06
-7.90665e-08
9.11051e-06
-2.15946e-07
9.07136e-06
-3.7284e-07
9.0503e-06
-2.26265e-07
9.06654e-06
5.60152e-08
9.09485e-06
8.80104e-08
9.11317e-06
-2.8577e-08
9.11164e-06
-2.28152e-07
9.09281e-06
-3.81629e-07
9.06554e-06
-4.63217e-07
9.03726e-06
-4.57943e-07
9.01509e-06
-3.89841e-07
8.99705e-06
-3.10386e-07
8.98681e-06
-2.42728e-07
8.98838e-06
-1.57084e-07
8.9959e-06
-7.80161e-08
9.0045e-06
-2.48076e-08
9.01428e-06
-9.33472e-10
9.02443e-06
2.32811e-08
4.02209e-08
9.03267e-06
9.54005e-06
-6.56575e-08
9.54323e-06
-2.19123e-07
9.50919e-06
-3.38802e-07
9.48871e-06
-2.05788e-07
9.50321e-06
4.15213e-08
9.52986e-06
6.13578e-08
9.54616e-06
-4.48734e-08
9.54422e-06
-2.26216e-07
9.52604e-06
-3.63449e-07
9.5001e-06
-4.37276e-07
9.4731e-06
-4.30943e-07
9.45205e-06
-3.68788e-07
9.43514e-06
-2.9348e-07
9.42535e-06
-2.32932e-07
9.42511e-06
-1.5685e-07
9.42867e-06
-8.15704e-08
9.42956e-06
-2.57024e-08
9.43145e-06
-2.8263e-09
9.43892e-06
1.58151e-08
2.80939e-08
9.45105e-06
9.99819e-06
-5.37154e-08
9.99662e-06
-2.17548e-07
9.96738e-06
-3.09568e-07
9.9487e-06
-1.8711e-07
9.96079e-06
2.94337e-08
9.9856e-06
3.65524e-08
1.00002e-05
-5.94437e-08
9.99763e-06
-2.23676e-07
9.98008e-06
-3.45905e-07
9.95548e-06
-4.12675e-07
9.92991e-06
-4.05376e-07
9.90994e-06
-3.4881e-07
9.8938e-06
-2.77344e-07
9.88309e-06
-2.22222e-07
9.88143e-06
-1.55189e-07
9.88764e-06
-8.77795e-08
9.89599e-06
-3.40538e-08
9.9029e-06
-9.73176e-09
9.91049e-06
8.2177e-09
2.22639e-08
9.91632e-06
1.04782e-05
-4.33091e-08
1.0472e-05
-2.11291e-07
1.04469e-05
-2.84538e-07
1.04309e-05
-1.71087e-07
1.04404e-05
1.99293e-08
1.04632e-05
1.38238e-08
1.04761e-05
-7.23822e-08
1.0473e-05
-2.20599e-07
1.04559e-05
-3.28759e-07
1.04326e-05
-3.89396e-07
1.04083e-05
-3.81047e-07
1.03891e-05
-3.29677e-07
1.03737e-05
-2.61928e-07
1.03632e-05
-2.11672e-07
1.03612e-05
-1.53238e-07
1.03661e-05
-9.26583e-08
1.03708e-05
-3.88089e-08
1.03734e-05
-1.23175e-08
1.03793e-05
2.33632e-09
1.40173e-08
1.03876e-05
1.09812e-05
-3.44441e-08
1.0971e-05
-2.01164e-07
1.0949e-05
-2.62555e-07
1.0936e-05
-1.58089e-07
1.09435e-05
1.25135e-08
1.09635e-05
-6.18641e-09
1.0975e-05
-8.38861e-08
1.09714e-05
-2.17044e-07
1.09544e-05
-3.11765e-07
1.09322e-05
-3.67161e-07
1.09089e-05
-3.57749e-07
1.08904e-05
-3.11185e-07
1.08758e-05
-2.47297e-07
1.08652e-05
-2.01114e-07
1.08618e-05
-1.4984e-07
1.08653e-05
-9.60982e-08
1.08704e-05
-4.39792e-08
1.08744e-05
-1.62722e-08
1.08793e-05
-2.61309e-09
6.8984e-09
1.08864e-05
1.1508e-05
-2.70485e-08
1.14952e-05
-1.88349e-07
1.14749e-05
-2.423e-07
1.14647e-05
-1.47928e-07
1.1471e-05
6.29162e-09
1.14878e-05
-2.30546e-08
1.14979e-05
-9.39431e-08
1.14939e-05
-2.13089e-07
1.14771e-05
-2.94903e-07
1.14554e-05
-3.45452e-07
1.14327e-05
-3.35124e-07
1.14146e-05
-2.93029e-07
1.1401e-05
-2.33725e-07
1.13908e-05
-1.90934e-07
1.13862e-05
-1.45257e-07
1.13884e-05
-9.82343e-08
1.13941e-05
-4.96822e-08
1.13988e-05
-2.10371e-08
1.14034e-05
-7.18044e-09
-1.25008e-10
1.14104e-05
1.20598e-05
-2.09998e-08
1.20453e-05
-1.73855e-07
1.20257e-05
-2.22734e-07
1.20181e-05
-1.40328e-07
1.2024e-05
4.47478e-10
1.20375e-05
-3.66436e-08
1.20458e-05
-1.02204e-07
1.20417e-05
-2.0898e-07
1.20251e-05
-2.78291e-07
1.20039e-05
-3.24236e-07
1.1982e-05
-3.13264e-07
1.19645e-05
-2.75506e-07
1.19518e-05
-2.21023e-07
1.19421e-05
-1.812e-07
1.19369e-05
-1.40107e-07
1.19382e-05
-9.95818e-08
1.19437e-05
-5.51662e-08
1.19493e-05
-2.6633e-08
1.19533e-05
-1.11931e-08
-5.96046e-09
1.19592e-05
1.26377e-05
-1.61013e-08
1.26224e-05
-1.58518e-07
1.26028e-05
-2.032e-07
1.25972e-05
-1.34752e-07
1.26033e-05
-5.63531e-09
1.2614e-05
-4.72699e-08
1.262e-05
-1.0827e-07
1.26159e-05
-2.0486e-07
1.26e-05
-2.62383e-07
1.25794e-05
-3.03596e-07
1.25582e-05
-2.92134e-07
1.25413e-05
-2.58617e-07
1.25293e-05
-2.08981e-07
1.25206e-05
-1.72533e-07
1.25155e-05
-1.34987e-07
1.25159e-05
-9.99365e-08
1.25204e-05
-5.96748e-08
1.25262e-05
-3.24193e-08
1.25305e-05
-1.54991e-08
-1.0551e-08
1.25351e-05
1.3243e-05
-1.21273e-08
1.32275e-05
-1.43029e-07
1.32075e-05
-1.83196e-07
1.32035e-05
-1.30743e-07
1.32101e-05
-1.22867e-08
1.32184e-05
-5.55158e-08
1.3222e-05
-1.11887e-07
1.32177e-05
-2.00582e-07
1.32029e-05
-2.47603e-07
1.31831e-05
-2.83823e-07
1.31628e-05
-2.71831e-07
1.31465e-05
-2.42274e-07
1.31351e-05
-1.97608e-07
1.31273e-05
-1.64742e-07
1.31221e-05
-1.29795e-07
1.31216e-05
-9.93738e-08
1.31254e-05
-6.35149e-08
1.3131e-05
-3.79855e-08
1.31356e-05
-2.01163e-08
-1.4217e-08
1.31393e-05
1.38769e-05
-8.82513e-09
1.38618e-05
-1.2797e-07
1.38414e-05
-1.6283e-07
1.38381e-05
-1.27435e-07
1.38454e-05
-1.95273e-08
1.38519e-05
-6.20618e-08
1.38531e-05
-1.13093e-07
1.38484e-05
-1.95826e-07
1.38349e-05
-2.34092e-07
1.38166e-05
-2.65543e-07
1.37971e-05
-2.52372e-07
1.37813e-05
-2.26453e-07
1.37701e-05
-1.86412e-07
1.37628e-05
-1.57464e-07
1.37581e-05
-1.25056e-07
1.37571e-05
-9.84361e-08
1.37601e-05
-6.64286e-08
1.37649e-05
-4.28142e-08
1.37695e-05
-2.47521e-08
-1.76296e-08
1.37729e-05
1.45408e-05
-5.96655e-09
1.45266e-05
-1.13799e-07
1.45062e-05
-1.42436e-07
1.45027e-05
-1.23923e-07
1.45104e-05
-2.71658e-08
1.45159e-05
-6.75656e-08
1.45149e-05
-1.12141e-07
1.45093e-05
-1.90163e-07
1.4497e-05
-2.21794e-07
1.44805e-05
-2.49045e-07
1.44622e-05
-2.34143e-07
1.44469e-05
-2.11121e-07
1.44357e-05
-1.75238e-07
1.44289e-05
-1.50595e-07
1.44246e-05
-1.20825e-07
1.44233e-05
-9.70868e-08
1.44252e-05
-6.83636e-08
1.44294e-05
-4.69969e-08
1.4434e-05
-2.93131e-08
-2.10526e-08
1.44374e-05
1.52363e-05
-3.35787e-09
1.52233e-05
-1.00781e-07
1.52032e-05
-1.2243e-07
1.51988e-05
-1.19437e-07
1.52065e-05
-3.4897e-08
1.52114e-05
-7.25215e-08
1.52087e-05
-1.09366e-07
1.5202e-05
-1.83475e-07
1.51905e-05
-2.10287e-07
1.51758e-05
-2.3434e-07
1.51594e-05
-2.17808e-07
1.51447e-05
-1.96376e-07
1.51336e-05
-1.64133e-07
1.51267e-05
-1.43712e-07
1.51227e-05
-1.16823e-07
1.51213e-05
-9.56721e-08
1.51226e-05
-6.97171e-08
1.51261e-05
-5.04669e-08
1.51303e-05
-3.35018e-08
-2.43459e-08
1.51336e-05
1.59648e-05
-8.64853e-10
1.59531e-05
-8.9002e-08
1.59339e-05
-1.03235e-07
1.59279e-05
-1.13513e-07
1.59352e-05
-4.21981e-08
1.59398e-05
-7.70842e-08
1.59357e-05
-1.05255e-07
1.59281e-05
-1.75893e-07
1.59168e-05
-1.99002e-07
1.59038e-05
-2.21269e-07
1.58896e-05
-2.03657e-07
1.58761e-05
-1.82893e-07
1.5865e-05
-1.52996e-07
1.5858e-05
-1.36715e-07
1.58541e-05
-1.12931e-07
1.58527e-05
-9.4323e-08
1.58536e-05
-7.05867e-08
1.58563e-05
-5.31029e-08
1.58599e-05
-3.71532e-08
-2.75921e-08
1.58632e-05
1.67282e-05
1.57126e-09
1.67176e-05
-7.83911e-08
1.66995e-05
-8.5188e-08
1.66921e-05
-1.06081e-07
1.66981e-05
-4.81836e-08
1.67025e-05
-8.14806e-08
1.66977e-05
-1.00538e-07
1.66892e-05
-1.6734e-07
1.66779e-05
-1.87731e-07
1.66658e-05
-2.09186e-07
1.66538e-05
-1.91622e-07
1.66424e-05
-1.71507e-07
1.66316e-05
-1.42219e-07
1.66244e-05
-1.29509e-07
1.66204e-05
-1.08872e-07
1.66189e-05
-9.28845e-08
1.66195e-05
-7.1108e-08
1.66215e-05
-5.51253e-08
1.66245e-05
-4.02195e-08
-3.0735e-08
1.66277e-05
1.7528e-05
3.93849e-09
1.75183e-05
-6.86849e-08
1.75017e-05
-6.85894e-08
1.74929e-05
-9.734e-08
1.74967e-05
-5.19111e-08
1.75012e-05
-8.5998e-08
1.74967e-05
-9.6071e-08
1.74873e-05
-1.57961e-07
1.74759e-05
-1.76324e-07
1.74641e-05
-1.9732e-07
1.74537e-05
-1.81215e-07
1.74446e-05
-1.6244e-07
1.74351e-05
-1.32753e-07
1.74276e-05
-1.21959e-07
1.74232e-05
-1.04487e-07
1.74215e-05
-9.12207e-08
1.74219e-05
-7.1442e-08
1.74234e-05
-5.6663e-08
1.74259e-05
-4.27262e-08
-3.35096e-08
1.74287e-05
1.83661e-05
6.17253e-09
1.83569e-05
-5.95031e-08
1.8342e-05
-5.36869e-08
1.83324e-05
-8.7727e-08
1.83334e-05
-5.28796e-08
1.83378e-05
-9.0425e-08
1.83342e-05
-9.24757e-08
1.83247e-05
-1.48411e-07
1.83131e-05
-1.64752e-07
1.83013e-05
-1.85507e-07
1.82914e-05