/*--------------------------------*- C++ -*----------------------------------*\
| =========                 |                                                 |
| \\      /  F ield         | OpenFOAM: The Open Source CFD Toolbox           |
|  \\    /   O peration     | Version:  v1912                                 |
|   \\  /    A nd           | Website:  www.openfoam.com                      |
|    \\/     M anipulation  |                                                 |
\*---------------------------------------------------------------------------*/
FoamFile
{
    version     2.0;
    format      ascii;
    class       volVectorField;
    location    "3.95";
    object      U;
}
// * * * * * * * * * * * * * * * * * * * * * * * * * * * * * * * * * * * * * //

dimensions      [0 1 -1 0 0 0 0];


internalField   nonuniform List<vector> 
9600
(
(0.792721 -0.00559245 0)
(1.14626 0.00378605 0)
(0.89179 -0.0321622 0)
(1.16707 0.0128249 0)
(1.00557 0.0167358 0)
(1.16704 0.0382868 0)
(1.08788 -0.00410896 0)
(1.08512 -0.0126778 0)
(0.958805 -0.0454287 0)
(1.03493 -0.0379185 0)
(0.979121 -0.0388121 0)
(1.08787 -0.0137778 0)
(1.03247 -0.00440159 0)
(1.11355 -0.00200308 0)
(1.07544 0.0223025 0)
(1.14155 -0.00688983 0)
(1.05083 0.0327023 0)
(1.17885 -0.0121337 0)
(0.966383 0.0193072 0)
(1.18215 -0.0196127 0)
(0.81929 -0.00522253 0)
(1.12724 0.00307107 0)
(0.910231 -0.0327188 0)
(1.16297 0.012175 0)
(1.02215 0.0167265 0)
(1.15715 0.0376534 0)
(1.11016 -0.0029674 0)
(1.07344 -0.0107809 0)
(0.981712 -0.0443903 0)
(0.992343 -0.0382523 0)
(0.977486 -0.0398824 0)
(1.056 -0.0148981 0)
(1.04968 -0.0050922 0)
(1.08868 -0.00286781 0)
(1.10217 0.0213145 0)
(1.11233 -0.0059035 0)
(1.09838 0.0310609 0)
(1.12682 -0.00955585 0)
(1.06011 0.0202887 0)
(1.08485 -0.0190733 0)
(0.859696 -0.00495335 0)
(1.09466 0.00262279 0)
(0.92021 -0.0330393 0)
(1.1438 0.0112915 0)
(1.0521 0.016718 0)
(1.15196 0.0369306 0)
(1.11579 -0.00213332 0)
(1.06591 -0.00961039 0)
(0.995936 -0.0431274 0)
(0.976027 -0.0380816 0)
(0.976193 -0.0404986 0)
(1.02451 -0.0161725 0)
(1.05322 -0.00577925 0)
(1.07448 -0.00382557 0)
(1.10812 0.020401 0)
(1.11793 -0.00545531 0)
(1.11544 0.0295965 0)
(1.1345 -0.00722172 0)
(1.09556 0.0182862 0)
(1.09701 -0.0122455 0)
(0.90399 -0.00469729 0)
(1.05713 0.00234576 0)
(0.923651 -0.0334701 0)
(1.1102 0.0100765 0)
(1.07988 0.0165056 0)
(1.1524 0.0363654 0)
(1.1185 -0.00108967 0)
(1.0649 -0.00822099 0)
(1.00538 -0.0418108 0)
(0.971002 -0.0378844 0)
(0.971699 -0.0410785 0)
(1.0035 -0.0174999 0)
(1.04566 -0.00685986 0)
(1.06737 -0.00486935 0)
(1.10715 0.0193002 0)
(1.12078 -0.0057488 0)
(1.12709 0.0295036 0)
(1.13337 -0.0072087 0)
(1.11113 0.0200819 0)
(1.0974 -0.0107425 0)
(0.942954 -0.0044489 0)
(1.02574 0.00234016 0)
(0.921473 -0.033872 0)
(1.0716 0.00855242 0)
(1.09483 0.0159017 0)
(1.15543 0.03604 0)
(1.11676 -6.05193e-06 0)
(1.06437 -0.00699594 0)
(1.01229 -0.0403582 0)
(0.972612 -0.0374373 0)
(0.969244 -0.0413696 0)
(0.992313 -0.0188115 0)
(1.03733 -0.00817962 0)
(1.06296 -0.00605112 0)
(1.10533 0.0176746 0)
(1.12298 -0.00568651 0)
(1.1326 0.0281649 0)
(1.13835 -0.00533611 0)
(1.11793 0.020101 0)
(1.10174 -0.00750991 0)
(0.970747 -0.00423584 0)
(1.00763 0.00260861 0)
(0.917466 -0.0342066 0)
(1.03905 0.00683222 0)
(1.09772 0.0149091 0)
(1.15722 0.035843 0)
(1.11249 0.00117098 0)
(1.06442 -0.00579876 0)
(1.01688 -0.0389306 0)
(0.975996 -0.0369279 0)
(0.968713 -0.0415403 0)
(0.987724 -0.0201257 0)
(1.03213 -0.00961604 0)
(1.06029 -0.0074986 0)
(1.10424 0.0160029 0)
(1.12388 -0.00612845 0)
(1.1366 0.0270983 0)
(1.14082 -0.00412695 0)
(1.12188 0.0200579 0)
(1.10287 -0.00386385 0)
(0.9865 -0.00408481 0)
(1.00287 0.0030865 0)
(0.915708 -0.0344106 0)
(1.01885 0.00500707 0)
(1.0938 0.013601 0)
(1.15613 0.0356698 0)
(1.10593 0.00242415 0)
(1.06395 -0.00469909 0)
(1.01982 -0.0374582 0)
(0.97993 -0.0363261 0)
(0.968986 -0.0415977 0)
(0.986656 -0.0214506 0)
(1.02959 -0.0111396 0)
(1.05844 -0.00907163 0)
(1.10365 0.0141201 0)
(1.12322 -0.00657214 0)
(1.13885 0.0259062 0)
(1.14078 -0.00267708 0)
(1.1226 0.0203879 0)
(1.10132 -0.000170583 0)
(0.993067 -0.00400923 0)
(1.00645 0.00366915 0)
(0.918902 -0.034463 0)
(1.00991 0.00313058 0)
(1.08583 0.0120973 0)
(1.15067 0.0354894 0)
(1.09729 0.00369574 0)
(1.06254 -0.00370211 0)
(1.02171 -0.0359992 0)
(0.984033 -0.0356809 0)
(0.969388 -0.0415791 0)
(0.986598 -0.0228111 0)
(1.02775 -0.0126943 0)
(1.0558 -0.0107592 0)
(1.10222 0.0121435 0)
(1.12004 -0.00707992 0)
(1.13816 0.0245927 0)
(1.1371 -0.00106096 0)
(1.11947 0.0207093 0)
(1.0965 0.00362343 0)
(0.994575 -0.00400295 0)
(1.01243 0.00424506 0)
(0.927309 -0.0343721 0)
(1.00639 0.00131454 0)
(1.07345 0.0105578 0)
(1.13921 0.0352822 0)
(1.08689 0.00494072 0)
(1.05987 -0.00282709 0)
(1.02283 -0.0345435 0)
(0.988122 -0.0349763 0)
(0.969897 -0.0414559 0)
(0.98592 -0.0241826 0)
(1.02459 -0.0142331 0)
(1.05062 -0.0125154 0)
(1.09795 0.0100967 0)
(1.1129 -0.00759602 0)
(1.13288 0.0232334 0)
(1.12888 0.000724942 0)
(1.11178 0.021084 0)
(1.08827 0.00754564 0)
(0.994429 -0.00404711 0)
(1.01691 0.00474686 0)
(0.939056 -0.0341548 0)
(1.00275 -0.000294385 0)
(1.05646 0.00911104 0)
(1.12152 0.0350208 0)
(1.07553 0.0060913 0)
(1.05585 -0.00209917 0)
(1.0233 -0.0331323 0)
(0.991955 -0.0342353 0)
(0.970838 -0.0412033 0)
(0.983939 -0.0255076 0)
(1.01891 -0.015697 0)
(1.0417 -0.0142941 0)
(1.08892 0.00801333 0)
(1.10058 -0.00807172 0)
(1.12155 0.0218503 0)
(1.11546 0.00267386 0)
(1.09921 0.0215134 0)
(1.07668 0.0113585 0)
(0.994473 -0.00411721 0)
(1.01861 0.00513588 0)
(0.951547 -0.0338276 0)
(0.996918 -0.00160218 0)
(1.0371 0.00781968 0)
(1.09961 0.034639 0)
(1.06433 0.00708323 0)
(1.05065 -0.00153012 0)
(1.02313 -0.0317742 0)
(0.995223 -0.0334728 0)
(0.972513 -0.0407799 0)
(0.980834 -0.0266979 0)
(1.01067 -0.0170114 0)
(1.02908 -0.0160152 0)
(1.07423 0.0059514 0)
(1.08279 -0.00846871 0)
(1.10355 0.0204529 0)
(1.09683 0.00470545 0)
(1.08211 0.0219078 0)
(1.06218 0.0149448 0)
(0.995198 -0.00419383 0)
(1.01795 0.00540552 0)
(0.962807 -0.0333985 0)
(0.989872 -0.00259761 0)
(1.01903 0.00669745 0)
(1.07682 0.0340934 0)
(1.05418 0.00785707 0)
(1.04464 -0.00112057 0)
(1.02232 -0.0304974 0)
(0.997656 -0.0327235 0)
(0.974925 -0.040171 0)
(0.977372 -0.0276576 0)
(1.00097 -0.0180975 0)
(1.01415 -0.0175601 0)
(1.05461 0.00397824 0)
(1.06062 -0.00873656 0)
(1.07974 0.0190446 0)
(1.074 0.00670105 0)
(1.0617 0.0221973 0)
(1.04575 0.0181111 0)
(0.996388 -0.00426482 0)
(1.01591 0.00557054 0)
(0.971962 -0.0328794 0)
(0.98343 -0.00331131 0)
(1.00491 0.00574133 0)
(1.05605 0.0333834 0)
(1.04545 0.00841413 0)
(1.03838 -0.00084803 0)
(1.02096 -0.0293176 0)
(0.999156 -0.0320148 0)
(0.977722 -0.0393948 0)
(0.974435 -0.0283262 0)
(0.991466 -0.0188888 0)
(0.999222 -0.0188104 0)
(1.03238 0.0021915 0)
(1.03648 -0.00884421 0)
(1.0525 0.0176393 0)
(1.04906 0.00853647 0)
(1.03998 0.0222921 0)
(1.02887 0.0207029 0)
(0.997658 -0.00432327 0)
(1.01339 0.00565197 0)
(0.978996 -0.0322844 0)
(0.978661 -0.00380572 0)
(0.995211 0.00494111 0)
(1.03869 0.0325449 0)
(1.03802 0.00879533 0)
(1.03248 -0.000691699 0)
(1.01929 -0.0282381 0)
(0.999848 -0.0313729 0)
(0.980374 -0.0385001 0)
(0.972561 -0.0287093 0)
(0.983617 -0.0193733 0)
(0.98653 -0.0196773 0)
(1.01079 0.000656875 0)
(1.01348 -0.00874829 0)
(1.02538 0.0162439 0)
(1.02481 0.0101092 0)
(1.0194 0.0221087 0)
(1.01321 0.022637 0)
(0.998718 -0.00436575 0)
(1.01099 0.00566553 0)
(0.984265 -0.0316267 0)
(0.975625 -0.00414431 0)
(0.988805 0.00428903 0)
(1.02488 0.031626 0)
(1.03167 0.00902445 0)
(1.02741 -0.00064 0)
(1.01757 -0.0272402 0)
(1 -0.0308055 0)
(0.982455 -0.0375345 0)
(0.971769 -0.0288571 0)
(0.978085 -0.0196006 0)
(0.977346 -0.0201343 0)
(0.992696 -0.000591581 0)
(0.99432 -0.00844068 0)
(1.00189 0.0148677 0)
(1.00398 0.0113581 0)
(1.00215 0.0216538 0)
(1.00022 0.0238536 0)
(0.999432 -0.00439163 0)
(1.00903 0.00562548 0)
(0.98815 -0.0309195 0)
(0.973897 -0.00436221 0)
(0.984344 0.00377661 0)
(1.01423 0.030656 0)
(1.02634 0.00912953 0)
(1.0234 -0.000678929 0)
(1.01599 -0.0263031 0)
(0.999908 -0.0302994 0)
(0.983821 -0.0365312 0)
(0.971731 -0.0288348 0)
(0.974703 -0.0196405 0)
(0.971691 -0.0202211 0)
(0.979601 -0.00156641 0)
(0.980408 -0.00794198 0)
(0.984302 0.0135489 0)
(0.988273 0.0122719 0)
(0.989459 0.0209809 0)
(0.990694 0.0244018 0)
(0.99979 -0.0044015 0)
(1.00761 0.00553986 0)
(0.990938 -0.0301727 0)
(0.973056 -0.00448328 0)
(0.981041 0.00338893 0)
(1.00635 0.0296434 0)
(1.02209 0.00913571 0)
(1.02041 -0.000795939 0)
(1.01465 -0.0254061 0)
(0.999757 -0.0298298 0)
(0.984577 -0.0355063 0)
(0.972072 -0.0286948 0)
(0.972852 -0.0195598 0)
(0.968732 -0.020018 0)
(0.971385 -0.00231845 0)
(0.971617 -0.00728002 0)
(0.97299 0.0123112 0)
(0.977967 0.0128865 0)
(0.981378 0.0201837 0)
(0.984588 0.0244072 0)
(0.999849 -0.0043971 0)
(1.0067 0.00541265 0)
(0.992857 -0.0293907 0)
(0.972834 -0.00453488 0)
(0.978631 0.00310258 0)
(1.00085 0.0285851 0)
(1.01892 0.00906642 0)
(1.01825 -0.000976408 0)
(1.01352 -0.0245306 0)
(0.999633 -0.0293754 0)
(0.984938 -0.0344647 0)
(0.972565 -0.0284687 0)
(0.971899 -0.0194097 0)
(0.96743 -0.0196113 0)
(0.966891 -0.00291285 0)
(0.966795 -0.00651776 0)
(0.966835 0.0111668 0)
(0.972136 0.0132567 0)
(0.977006 0.0193334 0)
(0.981235 0.0240129 0)
(0.999688 -0.00438038 0)
(1.00619 0.00525121 0)
(0.994125 -0.0285752 0)
(0.973051 -0.00453438 0)
(0.977023 0.00289497 0)
(0.997251 0.0274786 0)
(1.0167 0.00894191 0)
(1.01671 -0.00120011 0)
(1.01256 -0.0236638 0)
(0.999546 -0.0289204 0)
(0.985088 -0.0334098 0)
(0.973138 -0.0281688 0)
(0.97143 -0.0192251 0)
(0.967004 -0.0190783 0)
(0.964753 -0.00340748 0)
(0.964544 -0.00572648 0)
(0.964114 0.0101182 0)
(0.969351 0.0134223 0)
(0.975088 0.0185161 0)
(0.979723 0.0233342 0)
(0.999374 -0.00435238 0)
(1.00594 0.00505848 0)
(0.994946 -0.0277264 0)
(0.973551 -0.00449867 0)
(0.976084 0.00274808 0)
(0.995054 0.0263216 0)
(1.01522 0.0087817 0)
(1.0156 -0.00145013 0)
(1.01172 -0.0228005 0)
(0.999477 -0.0284502 0)
(0.985143 -0.0323523 0)
(0.973791 -0.0278066 0)
(0.971253 -0.0190224 0)
(0.967038 -0.0184714 0)
(0.96394 -0.00384221 0)
(0.963757 -0.0049608 0)
(0.963321 0.0091614 0)
(0.968337 0.0134166 0)
(0.974525 0.0177446 0)
(0.979246 0.0224733 0)
(0.998957 -0.00431392 0)
(1.00586 0.00483599 0)
(0.99549 -0.0268432 0)
(0.974207 -0.00444316 0)
(0.975649 0.00264667 0)
(0.993783 0.0251145 0)
(1.01422 0.00859826 0)
(1.01479 -0.00171234 0)
(1.01099 -0.0219378 0)
(0.999402 -0.0279585 0)
(0.985158 -0.0313037 0)
(0.974524 -0.0273832 0)
(0.971305 -0.0188118 0)
(0.967367 -0.0178183 0)
(0.963877 -0.00423841 0)
(0.963785 -0.0042482 0)
(0.963502 0.00829861 0)
(0.968256 0.0132693 0)
(0.974614 0.0169957 0)
(0.979277 0.0215123 0)
(0.998486 -0.00426532 0)
(1.00584 0.00458608 0)
(0.995878 -0.0259275 0)
(0.974936 -0.00436952 0)
(0.975585 0.00257869 0)
(0.993079 0.02386 0)
(1.01349 0.00839575 0)
(1.01418 -0.00197648 0)
(1.01036 -0.0210734 0)
(0.999307 -0.0274384 0)
(0.985168 -0.0302713 0)
(0.975301 -0.026903 0)
(0.971553 -0.0186001 0)
(0.967917 -0.0171425 0)
(0.964291 -0.00459282 0)
(0.964307 -0.00361182 0)
(0.964181 0.00753683 0)
(0.968679 0.0129943 0)
(0.975001 0.0162926 0)
(0.979543 0.0205005 0)
(0.998018 -0.00420562 0)
(1.00581 0.00430891 0)
(0.996176 -0.0249807 0)
(0.975698 -0.00429156 0)
(0.975815 0.00253648 0)
(0.992701 0.0225625 0)
(1.01283 0.00817785 0)
(1.01367 -0.00223757 0)
(1.00982 -0.0202082 0)
(0.999184 -0.0268796 0)
(0.985206 -0.0292698 0)
(0.97607 -0.0263638 0)
(0.971957 -0.0183948 0)
(0.968619 -0.0164628 0)
(0.965023 -0.00490902 0)
(0.965147 -0.00305595 0)
(0.965135 0.006878 0)
(0.969397 0.0126092 0)
(0.975538 0.0156223 0)
(0.979925 0.0194893 0)
(0.99762 -0.00413349 0)
(1.00569 0.00400358 0)
(0.996406 -0.0240042 0)
(0.976483 -0.00421565 0)
(0.976294 0.00251747 0)
(0.992492 0.0212303 0)
(1.01212 0.0079445 0)
(1.01319 -0.00249326 0)
(1.00933 -0.0193465 0)
(0.999032 -0.0262773 0)
(0.985307 -0.0283033 0)
(0.976779 -0.0257689 0)
(0.972468 -0.0181957 0)
(0.969387 -0.015792 0)
(0.965941 -0.00518857 0)
(0.966163 -0.00258624 0)
(0.966238 0.00631036 0)
(0.970284 0.0121478 0)
(0.97616 0.0149657 0)
(0.980376 0.018494 0)
(0.997349 -0.00404831 0)
(1.00546 0.00367302 0)
(0.996556 -0.0230035 0)
(0.977287 -0.00414139 0)
(0.976977 0.00251928 0)
(0.992367 0.0198772 0)
(1.01127 0.00769075 0)
(1.01268 -0.0027407 0)
(1.00888 -0.0184957 0)
(0.998859 -0.0256269 0)
(0.985501 -0.0273688 0)
(0.9774 -0.025125 0)
(0.973052 -0.0179942 0)
(0.970142 -0.0151429 0)
(0.966927 -0.00542613 0)
(0.967228 -0.00221359 0)
(0.967399 0.00583376 0)
(0.971242 0.0116241 0)
(0.976826 0.0143155 0)
(0.980873 0.0175075 0)
(0.997242 -0.00394923 0)
(1.0051 0.00332074 0)
(0.996591 -0.0219832 0)
(0.978112 -0.00407571 0)
(0.977815 0.00254013 0)
(0.992294 0.0185156 0)
(1.01026 0.00741827 0)
(1.0121 -0.0029792 0)
(1.00843 -0.0176638 0)
(0.998674 -0.0249246 0)
(0.985801 -0.0264693 0)
(0.977932 -0.024434 0)
(0.973689 -0.0177845 0)
(0.970839 -0.0145276 0)
(0.967905 -0.00561358 0)
(0.968252 -0.0019313 0)
(0.968556 0.00542342 0)
(0.972201 0.0110582 0)
(0.977512 0.0136653 0)
(0.981402 0.016532 0)
(0.9973 -0.00383687 0)
(1.00466 0.00295267 0)
(0.996483 -0.020946 0)
(0.978959 -0.0040256 0)
(0.978754 0.00257824 0)
(0.992288 0.0171625 0)
(1.00912 0.00712509 0)
(1.01144 -0.00320735 0)
(1.00795 -0.0168597 0)
(0.998486 -0.0241746 0)
(0.986202 -0.0255983 0)
(0.978396 -0.0237017 0)
(0.974374 -0.0175594 0)
(0.971469 -0.0139508 0)
(0.968845 -0.00575465 0)
(0.969188 -0.00173704 0)
(0.969677 0.00504972 0)
(0.973121 0.0104739 0)
(0.978204 0.0130107 0)
(0.981953 0.015558 0)
(0.997489 -0.00371229 0)
(1.0042 0.00257607 0)
(0.996227 -0.0198977 0)
(0.979823 -0.00399319 0)
(0.979742 0.00263003 0)
(0.992378 0.0158342 0)
(1.00792 0.00680473 0)
(1.0107 -0.00342337 0)
(1.00744 -0.0160945 0)
(0.998301 -0.0233808 0)
(0.986678 -0.0247431 0)
(0.978828 -0.0229367 0)
(0.975104 -0.0173036 0)
(0.972054 -0.0134111 0)
(0.96975 -0.0058406 0)
(0.970036 -0.00162266 0)
(0.970757 0.00469954 0)
(0.973988 0.00987191 0)
(0.978889 0.0123512 0)
(0.982511 0.0145883 0)
(0.997755 -0.00357701 0)
(1.00376 0.00219775 0)
(0.995853 -0.0188443 0)
(0.980693 -0.00398186 0)
(0.98074 0.00269344 0)
(0.992584 0.0145412 0)
(1.00676 0.0064644 0)
(1.00992 -0.00362466 0)
(1.0069 -0.0153755 0)
(0.998121 -0.0225522 0)
(0.987187 -0.0238957 0)
(0.979264 -0.022147 0)
(0.975876 -0.0170056 0)
(0.972632 -0.0129064 0)
(0.970634 -0.00588134 0)
(0.970816 -0.00157512 0)
(0.971797 0.00435168 0)
(0.974799 0.00925523 0)
(0.979554 0.0116795 0)
(0.983058 0.0136277 0)
(0.998042 -0.00343377 0)
(1.00338 0.00182496 0)
(0.995417 -0.0177869 0)
(0.981554 -0.00399801 0)
(0.981716 0.00275654 0)
(0.992901 0.0132949 0)
(1.00569 0.00610747 0)
(1.00912 -0.00380459 0)
(1.00634 -0.0147052 0)
(0.997944 -0.0217059 0)
(0.98769 -0.0230505 0)
(0.97973 -0.0213373 0)
(0.976678 -0.0166682 0)
(0.973244 -0.0124338 0)
(0.971515 -0.00588431 0)
(0.971565 -0.00158263 0)
(0.972803 0.00398443 0)
(0.975563 0.00863428 0)
(0.980185 0.0110026 0)
(0.98358 0.0126834 0)
(0.998304 -0.00328305 0)
(1.00307 0.00145887 0)
(0.994986 -0.0167256 0)
(0.982392 -0.0040326 0)
(0.982649 0.00281352 0)
(0.993298 0.0120994 0)
(1.00476 0.00573478 0)
(1.00832 -0.00395867 0)
(1.00577 -0.014084 0)
(0.997767 -0.020845 0)
(0.988155 -0.0222049 0)
(0.980237 -0.0205259 0)
(0.977497 -0.0162894 0)
(0.973924 -0.0119862 0)
(0.972405 -0.00584337 0)
(0.972315 -0.00162591 0)
(0.973785 0.00359534 0)
(0.976298 0.0079955 0)
(0.980775 0.0103388 0)
(0.984062 0.0117656 0)
(0.998517 -0.00312769 0)
(1.00283 0.00110266 0)
(0.994618 -0.0156624 0)
(0.983201 -0.00408634 0)
(0.983529 0.00285469 0)
(0.99373 0.0109635 0)
(1.00398 0.00533526 0)
(1.00754 -0.00408789 0)
(1.00521 -0.0135115 0)
(0.997591 -0.0199759 0)
(0.988563 -0.021353 0)
(0.980782 -0.019711 0)
(0.97832 -0.0158747 0)
(0.974688 -0.0115663 0)
(0.973314 -0.00577246 0)
(0.973094 -0.00169235 0)
(0.974753 0.00318887 0)
(0.977028 0.00734608 0)
(0.981329 0.0096726 0)
(0.984499 0.0108737 0)
(0.998675 -0.00296682 0)
(1.00263 0.000755386 0)
(0.994347 -0.0146038 0)
(0.983982 -0.00415713 0)
(0.984351 0.00286858 0)
(0.994149 0.00988769 0)
(1.00332 0.00491612 0)
(1.00678 -0.00418332 0)
(1.00465 -0.0129804 0)
(0.997418 -0.0191153 0)
(0.988918 -0.0204966 0)
(0.981354 -0.0188903 0)
(0.979139 -0.0154254 0)
(0.975537 -0.0111717 0)
(0.974247 -0.00567475 0)
(0.973914 -0.00176127 0)
(0.975717 0.00276928 0)
(0.977771 0.00669444 0)
(0.981854 0.00899479 0)
(0.98489 0.0100278 0)
(0.998785 -0.00279983 0)
(1.00245 0.000417521 0)
(0.994183 -0.0135554 0)
(0.984746 -0.00422384 0)
(0.985121 0.00286013 0)
(0.994524 0.00887151 0)
(1.00276 0.00447893 0)
(1.00605 -0.00424563 0)
(1.00409 -0.012474 0)
(0.997251 -0.0182622 0)
(0.98923 -0.0196458 0)
(0.981941 -0.0180758 0)
(0.979948 -0.0149457 0)
(0.976455 -0.0107991 0)
(0.975207 -0.00555552 0)
(0.974773 -0.00183391 0)
(0.97668 0.00235224 0)
(0.978541 0.00603404 0)
(0.98237 0.00831312 0)
(0.985243 0.00925422 0)
(0.99886 -0.00262927 0)
(1.00228 8.4174e-05 0)
(0.994113 -0.0125166 0)
(0.985502 -0.00428567 0)
(0.985848 0.00281842 0)
(0.994839 0.007925 0)
(1.00228 0.00401312 0)
(1.00535 -0.00429013 0)
(1.00355 -0.0119948 0)
(0.997091 -0.0174174 0)
(0.989517 -0.0187936 0)
(0.982533 -0.017264 0)
(0.980747 -0.0144434 0)
(0.977424 -0.010452 0)
(0.97619 -0.00542632 0)
(0.975661 -0.00189391 0)
(0.977641 0.00194134 0)
(0.979337 0.00536913 0)
(0.982896 0.00761634 0)
(0.98557 0.0085298 0)
(0.998911 -0.00245374 0)
(1.00212 -0.000245445 0)
(0.994116 -0.0114966 0)
(0.986256 -0.0043347 0)
(0.986546 0.00273825 0)
(0.995098 0.00704329 0)
(1.00183 0.00353762 0)
(1.00467 -0.00430322 0)
(1.00302 -0.0115325 0)
(0.996943 -0.0165947 0)
(0.989793 -0.0179459 0)
(0.983123 -0.0164594 0)
(0.981535 -0.0139182 0)
(0.978426 -0.0101346 0)
(0.977196 -0.00529454 0)
(0.976564 -0.00193249 0)
(0.978587 0.00155426 0)
(0.980153 0.00471792 0)
(0.98344 0.0069142 0)
(0.985881 0.0078471 0)
(0.998949 -0.00227288 0)
(1.00197 -0.000562306 0)
(0.99417 -0.0105122 0)
(0.987009 -0.00435235 0)
(0.987226 0.00263078 0)
(0.995314 0.00622623 0)
(1.00142 0.00304597 0)
(1.00403 -0.00430037 0)
(1.00251 -0.0110754 0)
(0.996803 -0.0157936 0)
(0.99007 -0.0171088 0)
(0.983709 -0.0156679 0)
(0.982312 -0.0133738 0)
(0.979449 -0.00984138 0)
(0.978221 -0.00517125 0)
(0.977474 -0.0019629 0)
(0.979513 0.00117838 0)
(0.980977 0.00408933 0)
(0.984008 0.00620805 0)
(0.98619 0.00719141 0)
(0.998979 -0.00209006 0)
(1.00182 -0.000866859 0)
(0.994259 -0.00956235 0)
(0.987756 -0.0043386 0)
(0.987895 0.0024804 0)
(0.9955 0.0054805 0)
(1.00103 0.00256091 0)
(1.00341 -0.00429891 0)
(1.00202 -0.010631 0)
(0.996674 -0.0150177 0)
(0.990353 -0.0162877 0)
(0.984292 -0.0148933 0)
(0.983076 -0.0128073 0)
(0.98048 -0.0095639 0)
(0.979265 -0.00506864 0)
(0.978378 -0.00196772 0)
(0.980411 0.000839634 0)
(0.981802 0.00347827 0)
(0.984597 0.00551437 0)
(0.986523 0.00651296 0)
(0.999005 -0.00190366 0)
(1.00169 -0.00116004 0)
(0.994372 -0.00866408 0)
(0.988492 -0.00427622 0)
(0.988557 0.00230019 0)
(0.995671 0.00477709 0)
(1.00067 0.00207905 0)
(1.00284 -0.00427701 0)
(1.00155 -0.0101915 0)
(0.996555 -0.0142581 0)
(0.990643 -0.015481 0)
(0.984874 -0.0141515 0)
(0.983823 -0.0122175 0)
(0.981511 -0.00929543 0)
(0.980328 -0.00502361 0)
(0.979285 -0.00197066 0)
(0.981272 0.000551713 0)
(0.982614 0.0028849 0)
(0.985199 0.0048647 0)
(0.986874 0.00586272 0)
(0.999027 -0.00171825 0)
(1.00158 -0.00142952 0)
(0.994505 -0.00782257 0)
(0.989214 -0.00418104 0)
(0.98921 0.00209673 0)
(0.995832 0.00414551 0)
(1.00034 0.00159984 0)
(1.00229 -0.00426409 0)
(1.00111 -0.00975458 0)
(0.996449 -0.013529 0)
(0.990938 -0.0146788 0)
(0.985458 -0.013433 0)
(0.984553 -0.0116392 0)
(0.982521 -0.00900523 0)
(0.981406 -0.00498656 0)
(0.980198 -0.00198648 0)
(0.982094 0.000288421 0)
(0.983415 0.00230483 0)
(0.985827 0.00419737 0)
(0.98725 0.00523673 0)
(0.999048 -0.0015338 0)
(1.00149 -0.00168091 0)
(0.994655 -0.00704694 0)
(0.989917 -0.00402314 0)
(0.989858 0.00186075 0)
(0.995989 0.00354707 0)
(1.00004 0.00116174 0)
(1.00179 -0.00425569 0)
(1.0007 -0.00932735 0)
(0.996359 -0.0128209 0)
(0.99124 -0.0139142 0)
(0.98604 -0.0127211 0)
(0.985271 -0.0110666 0)
(0.98352 -0.0087375 0)
(0.982488 -0.00498841 0)
(0.98111 -0.00199051 0)
(0.982871 8.60901e-05 0)
(0.984179 0.00178824 0)
(0.986471 0.00352741 0)
(0.987677 0.0045672 0)
(0.999067 -0.0013534 0)
(1.00141 -0.00189742 0)
(0.994826 -0.00635252 0)
(0.990599 -0.00382892 0)
(0.990489 0.001629 0)
(0.996145 0.00299607 0)
(0.999764 0.000725527 0)
(1.00132 -0.00423682 0)
(1.00032 -0.00891523 0)
(0.996285 -0.0121389 0)
(0.991547 -0.0131571 0)
(0.986628 -0.0120623 0)
(0.985962 -0.010478 0)
(0.984481 -0.00843181 0)
(0.983587 -0.00502856 0)
(0.982046 -0.00207701 0)
(0.983608 -6.41184e-05 0)
(0.984898 0.00138029 0)
(0.987104 0.00295908 0)
(0.988136 0.00394203 0)
(0.999085 -0.00118033 0)
(1.00135 -0.00208716 0)
(0.995012 -0.00571488 0)
(0.99126 -0.0035934 0)
(0.991114 0.00137224 0)
(0.996298 0.00248797 0)
(0.999511 0.000343548 0)
(1.00089 -0.00423077 0)
(0.999976 -0.00851276 0)
(0.996234 -0.011487 0)
(0.991857 -0.0124221 0)
(0.987216 -0.0114168 0)
(0.986656 -0.00992785 0)
(0.985409 -0.00814167 0)
(0.984656 -0.00505272 0)
(0.983002 -0.00219871 0)
(0.984344 -0.000190386 0)
(0.985579 0.00102167 0)
(0.987718 0.00240396 0)
(0.988583 0.00331093 0)
(0.999102 -0.00101404 0)
(1.0013 -0.00223453 0)
(0.995222 -0.00515906 0)
(0.991894 -0.00333335 0)
(0.991715 0.0011313 0)
(0.996459 0.00200511 0)
(0.999286 -2.08386e-06 0)
(1.0005 -0.0042125 0)
(0.999667 -0.00812065 0)
(0.9962 -0.010862 0)
(0.992176 -0.0117243 0)
(0.987802 -0.0107941 0)
(0.987314 -0.00938088 0)
(0.986302 -0.00782482 0)
(0.985734 -0.00511614 0)
(0.983987 -0.00241529 0)
(0.98506 -0.000448346 0)
(0.986199 0.000630451 0)
(0.98829 0.00184356 0)
(0.989056 0.00270492 0)
(0.999121 -0.000860271 0)
(1.00126 -0.00233865 0)
(0.995445 -0.00466587 0)
(0.992511 -0.00306049 0)
(0.992304 0.000890157 0)
(0.996617 0.00156557 0)
(0.999085 -0.000326008 0)
(1.00015 -0.0041722 0)
(0.999387 -0.00775666 0)
(0.996189 -0.0102557 0)
(0.992498 -0.011053 0)
(0.988391 -0.0102103 0)
(0.987979 -0.00887095 0)
(0.987139 -0.00750184 0)
(0.986738 -0.00514781 0)
(0.984962 -0.00262139 0)
(0.985799 -0.000805538 0)
(0.986823 4.916e-05 0)
(0.98887 0.0011891 0)
(0.989601 0.00214948 0)
(0.999138 -0.000717738 0)
(1.00123 -0.00239923 0)
(0.995693 -0.00423125 0)
(0.9931 -0.00278564 0)
(0.992861 0.000671587 0)
(0.996783 0.00113368 0)
(0.998914 -0.000599772 0)
(0.999831 -0.00413825 0)
(0.999142 -0.0073839 0)
(0.9962 -0.00970546 0)
(0.992825 -0.0103966 0)
(0.988973 -0.00966197 0)
(0.988607 -0.00837103 0)
(0.987944 -0.00719215 0)
(0.987744 -0.00515941 0)
(0.98592 -0.00285794 0)
(0.986441 -0.000997624 0)
(0.987384 -9.92033e-05 0)
(0.989515 0.000893415 0)
(0.99029 0.00168176 0)
(0.999156 -0.000591134 0)
(1.0012 -0.00239835 0)
(0.99595 -0.00386438 0)
(0.993672 -0.00253167 0)
(0.993399 0.000491159 0)
(0.996948 0.000736601 0)
(0.998767 -0.000865824 0)
(0.999551 -0.00407859 0)
(0.998922 -0.00703568 0)
(0.996231 -0.00916549 0)
(0.993162 -0.00978595 0)
(0.989561 -0.00913345 0)
(0.989249 -0.00789731 0)
(0.988688 -0.00687902 0)
(0.98865 -0.0051473 0)
(0.986912 -0.00307501 0)
(0.987273 -0.00115025 0)
(0.988012 -0.000208529 0)
(0.989993 0.000581602 0)
(0.99071 0.00127414 0)
(0.999174 -0.000479985 0)
(1.00118 -0.00235197 0)
(0.996224 -0.00353992 0)
(0.994218 -0.00230047 0)
(0.993902 0.000332912 0)
(0.997114 0.000371583 0)
(0.998653 -0.00109802 0)
(0.999306 -0.00401193 0)
(0.998738 -0.0066821 0)
(0.996279 -0.00864566 0)
(0.993497 -0.00922192 0)
(0.990144 -0.00862657 0)
(0.989856 -0.00746895 0)
(0.989403 -0.00655826 0)
(0.989556 -0.00510438 0)
(0.987887 -0.00324836 0)
(0.988003 -0.00140149 0)
(0.988542 -0.000514632 0)
(0.990549 0.000188156 0)
(0.991301 0.000881651 0)
(0.999192 -0.000384356 0)
(1.00115 -0.00225192 0)
(0.996498 -0.00326829 0)
(0.994751 -0.00212104 0)
(0.994382 0.000231217 0)
(0.997274 3.84139e-05 0)
(0.998559 -0.00131478 0)
(0.999104 -0.00395514 0)
(0.998578 -0.00631878 0)
(0.996338 -0.00816822 0)
(0.993837 -0.0086582 0)
(0.990729 -0.0081632 0)
(0.990482 -0.00703901 0)
(0.990066 -0.00622722 0)
(0.990351 -0.00502571 0)
(0.98884 -0.00342236 0)
(0.988843 -0.00161871 0)
(0.989155 -0.000588622 0)
(0.991028 1.05522e-05 0)
(0.991736 0.000534736 0)
(0.99921 -0.000305685 0)
(1.00112 -0.00212318 0)
(0.996775 -0.00301473 0)
(0.995267 -0.00196918 0)
(0.994826 0.000128319 0)
(0.997425 -0.000248766 0)
(0.998495 -0.00150882 0)
(0.99894 -0.00388852 0)
(0.998453 -0.00597353 0)
(0.996416 -0.00766779 0)
(0.99417 -0.00813712 0)
(0.9913 -0.00771193 0)
(0.991081 -0.00666321 0)
(0.990704 -0.00592107 0)
(0.991135 -0.00486468 0)
(0.989771 -0.00351191 0)
(0.989669 -0.00185244 0)
(0.989732 -0.000770649 0)
(0.991481 -0.000227928 0)
(0.992216 0.000169059 0)
(0.999229 -0.000239474 0)
(1.00108 -0.001968 0)
(0.99704 -0.00277742 0)
(0.995764 -0.00187228 0)
(0.995252 4.71533e-05 0)
(0.997569 -0.000467515 0)
(0.998445 -0.00167097 0)
(0.998816 -0.00383267 0)
(0.998359 -0.00563158 0)
(0.996501 -0.00719716 0)
(0.994499 -0.00761772 0)
(0.991864 -0.00726995 0)
(0.991695 -0.00630071 0)
(0.99133 -0.00559908 0)
(0.991827 -0.0047156 0)
(0.990628 -0.00359329 0)
(0.990529 -0.00205408 0)
(0.99038 -0.00097228 0)
(0.99189 -0.000397793 0)
(0.99262 -0.000178463 0)
(0.999246 -0.00018557 0)
(1.00104 -0.00180389 0)
(0.997294 -0.00254434 0)
(0.996245 -0.00178576 0)
(0.995654 -3.49475e-05 0)
(0.9977 -0.000648604 0)
(0.998412 -0.00178967 0)
(0.998727 -0.00377332 0)
(0.998299 -0.00531876 0)
(0.996607 -0.00672573 0)
(0.994827 -0.00709435 0)
(0.992408 -0.00683533 0)
(0.99228 -0.00598288 0)
(0.991921 -0.00534979 0)
(0.992496 -0.00453568 0)
(0.991472 -0.00356932 0)
(0.991358 -0.00223338 0)
(0.991009 -0.00125688 0)
(0.992281 -0.000609909 0)
(0.993015 -0.000422141 0)
(0.999263 -0.000141975 0)
(1.001 -0.00163249 0)
(0.997531 -0.0023062 0)
(0.996703 -0.00173142 0)
(0.99604 -0.000122427 0)
(0.997828 -0.000780192 0)
(0.998388 -0.0018623 0)
(0.998667 -0.0037164 0)
(0.998274 -0.00502509 0)
(0.996727 -0.00628193 0)
(0.995145 -0.00659323 0)
(0.992925 -0.00641006 0)
(0.992852 -0.00567299 0)
(0.992522 -0.00509177 0)
(0.99313 -0.00433106 0)
(0.992218 -0.00357338 0)
(0.992125 -0.00242944 0)
(0.991684 -0.00150443 0)
(0.992734 -0.000792822 0)
(0.993359 -0.000594226 0)
(0.999279 -0.000105581 0)
(1.00095 -0.0014666 0)
(0.997748 -0.00206234 0)
(0.997138 -0.00168583 0)
(0.996413 -0.000219227 0)
(0.997951 -0.00088986 0)
(0.99837 -0.00189598 0)
(0.998633 -0.0036412 0)
(0.998283 -0.00476859 0)
(0.996871 -0.00587408 0)
(0.995463 -0.00610201 0)
(0.99342 -0.00597961 0)
(0.993396 -0.00535576 0)
(0.993091 -0.00488084 0)
(0.993714 -0.00419086 0)
(0.99292 -0.00355225 0)
(0.992885 -0.00253305 0)
(0.992363 -0.00169839 0)
(0.99319 -0.00102081 0)
(0.993657 -0.000786577 0)
(0.999293 -7.56234e-05 0)
(1.00091 -0.00130694 0)
(0.997944 -0.00181097 0)
(0.997542 -0.00164266 0)
(0.996771 -0.000335239 0)
(0.998079 -0.000982684 0)
(0.998361 -0.0018772 0)
(0.998613 -0.00353713 0)
(0.998318 -0.00453906 0)
(0.997039 -0.00551237 0)
(0.995781 -0.00565049 0)
(0.993885 -0.00556139 0)
(0.993901 -0.00504341 0)
(0.993636 -0.00467921 0)
(0.994286 -0.0040444 0)
(0.993582 -0.00348977 0)
(0.993581 -0.00262808 0)
(0.993006 -0.0019136 0)
(0.99367 -0.00124819 0)
(0.993982 -0.000956971 0)
(0.999305 -4.7513e-05 0)
(1.00087 -0.00116072 0)
(0.99812 -0.00156509 0)
(0.997914 -0.00159041 0)
(0.997118 -0.000448298 0)
(0.998217 -0.00106525 0)
(0.998363 -0.00183464 0)
(0.998602 -0.00341427 0)
(0.99837 -0.00431077 0)
(0.997229 -0.00521006 0)
(0.99611 -0.00524955 0)
(0.994332 -0.00515156 0)
(0.994371 -0.00470807 0)
(0.994147 -0.00446698 0)
(0.994821 -0.00391761 0)
(0.994188 -0.00345618 0)
(0.994225 -0.00270301 0)
(0.993643 -0.00207443 0)
(0.994181 -0.00143813 0)
(0.994318 -0.00111663 0)
(0.999316 -2.24388e-05 0)
(1.00083 -0.00102627 0)
(0.998278 -0.00132671 0)
(0.998252 -0.00152316 0)
(0.997449 -0.000557812 0)
(0.998367 -0.00114252 0)
(0.998378 -0.00177443 0)
(0.998601 -0.00326544 0)
(0.998429 -0.00407471 0)
(0.997433 -0.00494038 0)
(0.996458 -0.00491657 0)
(0.994772 -0.00478167 0)
(0.994799 -0.00437011 0)
(0.994608 -0.0042532 0)
(0.995319 -0.00380107 0)
(0.994764 -0.00341477 0)
(0.994838 -0.00273608 0)
(0.994245 -0.00219018 0)
(0.994685 -0.0016256 0)
(0.994663 -0.00128765 0)
(0.999326 3.45773e-06 0)
(1.0008 -0.000906308 0)
(0.998418 -0.00110512 0)
(0.998554 -0.00143311 0)
(0.997764 -0.000657221 0)
(0.998532 -0.00121718 0)
(0.998413 -0.00170077 0)
(0.998608 -0.00309929 0)
(0.998491 -0.00383702 0)
(0.997636 -0.00467167 0)
(0.996817 -0.00464869 0)
(0.995219 -0.00447678 0)
(0.995201 -0.00404764 0)
(0.995021 -0.00401154 0)
(0.995777 -0.00366739 0)
(0.995304 -0.00336646 0)
(0.99541 -0.00277085 0)
(0.994805 -0.00229493 0)
(0.99518 -0.00178508 0)
(0.995037 -0.00145271 0)
(0.999335 2.80847e-05 0)
(1.00077 -0.000798548 0)
(0.998548 -0.000899055 0)
(0.998822 -0.00132037 0)
(0.998058 -0.000729106 0)
(0.998714 -0.00129759 0)
(0.998471 -0.00162405 0)
(0.998624 -0.00293223 0)
(0.998557 -0.00359454 0)
(0.997831 -0.00440165 0)
(0.997173 -0.00440472 0)
(0.99568 -0.00424271 0)
(0.995596 -0.00376613 0)
(0.995387 -0.0037614 0)
(0.996178 -0.00351635 0)
(0.995797 -0.00331789 0)
(0.995948 -0.00279737 0)
(0.995342 -0.00237979 0)
(0.995659 -0.00190754 0)
(0.995426 -0.00160288 0)
(0.999343 5.09995e-05 0)
(1.00075 -0.000698051 0)
(0.99867 -0.000713345 0)
(0.999058 -0.00119346 0)
(0.998328 -0.000759905 0)
(0.998909 -0.00137558 0)
(0.998556 -0.00155711 0)
(0.998652 -0.00276078 0)
(0.998627 -0.00335268 0)
(0.998014 -0.00413158 0)
(0.997513 -0.00416465 0)
(0.996145 -0.00406831 0)
(0.996 -0.00354515 0)
(0.995725 -0.00353027 0)
(0.996524 -0.00334032 0)
(0.99624 -0.00324661 0)
(0.996451 -0.00280447 0)
(0.995853 -0.00244559 0)
(0.99612 -0.00201894 0)
(0.995815 -0.00173291 0)
(0.999351 7.30401e-05 0)
(1.00074 -0.000603473 0)
(0.998787 -0.000550643 0)
(0.999269 -0.00106066 0)
(0.998569 -0.000750668 0)
(0.999111 -0.0014406 0)
(0.99867 -0.001514 0)
(0.998697 -0.00258908 0)
(0.998701 -0.00312048 0)
(0.998186 -0.0038632 0)
(0.997824 -0.00391995 0)
(0.996602 -0.00391582 0)
(0.99642 -0.00338162 0)
(0.996057 -0.00332703 0)
(0.996827 -0.00316069 0)
(0.996623 -0.0031451 0)
(0.99691 -0.00279968 0)
(0.99633 -0.00248986 0)