/*--------------------------------*- C++ -*----------------------------------*\
| =========                 |                                                 |
| \\      /  F ield         | OpenFOAM: The Open Source CFD Toolbox           |
|  \\    /   O peration     | Version:  v1912                                 |
|   \\  /    A nd           | Website:  www.openfoam.com                      |
|    \\/     M anipulation  |                                                 |
\*---------------------------------------------------------------------------*/
FoamFile
{
    version     2.0;
    format      ascii;
    class       volScalarField;
    location    "0.75";
    object      p;
}
// * * * * * * * * * * * * * * * * * * * * * * * * * * * * * * * * * * * * * //

dimensions      [0 2 -2 0 0 0 0];


internalField   nonuniform List<scalar> 
9600
(
3.56242e-11
0.00169939
0.00152853
0.00192171
0.00131165
0.000531955
0.00269877
0.00397116
0.00361428
0.00307579
0.00239318
0.00181473
0.00114907
0.00309489
0.00247698
0.00384031
0.00393921
0.00645913
0.00777606
0.0133901
4.68956e-07
0.00169992
0.00152917
0.00191663
0.00131231
0.000563771
0.0026947
0.00393212
0.0036165
0.00302911
0.00240635
0.00180541
0.00115933
0.0030906
0.00248609
0.00384032
0.003958
0.00641992
0.00781357
0.0128212
1.59647e-06
0.00170068
0.00152958
0.00191384
0.0013151
0.000583584
0.00268352
0.00389172
0.00361593
0.00299332
0.0024124
0.00180923
0.00117392
0.00308398
0.0025115
0.00382567
0.00398498
0.00638435
0.00781948
0.0122964
3.59602e-06
0.0017015
0.00152993
0.00191345
0.00131785
0.000599639
0.00267314
0.00384759
0.00361059
0.00296033
0.0024136
0.00182696
0.00119341
0.00307619
0.00254405
0.00379911
0.00402163
0.00632567
0.00779492
0.0117983
6.70091e-06
0.00170227
0.00153011
0.00191462
0.00132068
0.000614198
0.00266519
0.00379842
0.00360315
0.00293185
0.00241511
0.00185303
0.00121633
0.00306589
0.0025796
0.00376697
0.00405928
0.00626034
0.00775035
0.011319
1.09303e-05
0.00170272
0.00153001
0.00191675
0.00132375
0.000629205
0.0026594
0.00374534
0.00359603
0.00290885
0.00241786
0.00188346
0.00124276
0.00305263
0.00261721
0.00373205
0.00409695
0.00619348
0.00768408
0.0108545
1.60842e-05
0.00170272
0.0015297
0.00191933
0.00132715
0.000646053
0.00265549
0.00369016
0.00358993
0.00288239
0.00242272
0.00191555
0.00127265
0.00303651
0.00265639
0.00369673
0.00413305
0.00612588
0.0075958
0.0104067
2.19013e-05
0.00170229
0.00152931
0.00192203
0.0013311
0.000665567
0.00265315
0.00363396
0.00358474
0.00285485
0.00242977
0.00194786
0.00130577
0.00301795
0.00269634
0.00366278
0.00416487
0.00605757
0.00748792
0.00997598
2.81761e-05
0.00170154
0.00152899
0.00192472
0.00133586
0.000687921
0.00265181
0.0035772
0.00358007
0.00282592
0.00243884
0.00197969
0.0013416
0.00299762
0.00273616
0.00363128
0.00418968
0.00598905
0.00736279
0.00955869
3.47886e-05
0.00170061
0.00152885
0.00192732
0.00134155
0.000712771
0.00265096
0.00351998
0.00357541
0.00279558
0.0024496
0.00201058
0.00137941
0.00297654
0.00277447
0.00360282
0.00420588
0.00592063
0.00722164
0.00915096
4.16902e-05
0.00169958
0.00152899
0.00192977
0.0013482
0.000739555
0.00265026
0.00346228
0.00357021
0.00276409
0.0024616
0.0020402
0.00141842
0.00295575
0.00280968
0.00357812
0.00421264
0.00585136
0.00706612
0.00875104
4.88778e-05
0.00169845
0.00152949
0.00193199
0.0013558
0.000767722
0.00264947
0.00340404
0.00356396
0.00273182
0.00247436
0.0020684
0.00145775
0.00293613
0.00284053
0.00355783
0.00420919
0.00577952
0.00689961
0.0083573
5.63712e-05
0.0016972
0.00153039
0.0019339
0.00136429
0.000796826
0.0026485
0.00334521
0.0035563
0.00269905
0.00248738
0.00209531
0.00149645
0.00291857
0.00286611
0.00354195
0.00419526
0.00570269
0.00672646
0.0079676
6.42024e-05
0.00169578
0.00153174
0.00193544
0.0013736
0.000826531
0.00264729
0.0032858
0.00354698
0.00266599
0.00250018
0.00212129
0.00153354
0.00290398
0.00288578
0.00352981
0.0041716
0.00561745
0.00655046
0.00758186
7.24123e-05
0.0016941
0.00153361
0.00193655
0.0013837
0.000856594
0.00264576
0.00322583
0.00353579
0.00263294
0.00251227
0.00214692
0.00156812
0.00289301
0.00289917
0.0035202
0.00413974
0.00552031
0.00637445
0.00720073
8.105e-05
0.00169208
0.00153605
0.0019372
0.00139454
0.000886826
0.00264382
0.00316538
0.00352257
0.0026005
0.00252307
0.00217285
0.00159938
0.00288603
0.00290637
0.00351133
0.00410181
0.00540805
0.00619985
0.00682635
9.01728e-05
0.00168963
0.00153913
0.00193732
0.00140612
0.000917075
0.00264134
0.00310459
0.0035071
0.0025694
0.00253202
0.00219976
0.00162667
0.002883
0.00290806
0.00350065
0.00406056
0.0052788
0.00602593
0.00646274
9.98467e-05
0.00168664
0.0015429
0.00193686
0.00141842
0.000947227
0.00263823
0.00304361
0.00348912
0.00254
0.00253843
0.00222825
0.00164945
0.00288349
0.00290551
0.00348498
0.0040185
0.00513278
0.00585046
0.00611423
0.000110145
0.001683
0.00154742
0.00193576
0.00143145
0.000977181
0.0026344
0.00298266
0.00346836
0.00251271
0.00254155
0.00225872
0.00166741
0.00288677
0.00290037
0.00346084
0.00397755
0.00497153
0.00566967
0.00578568
0.000121152
0.00167858
0.00155276
0.00193388
0.00144523
0.00100684
0.00262974
0.00292208
0.00344438
0.00248802
0.00254085
0.00229133
0.00168053
0.00289158
0.00289483
0.00342514
0.00393838
0.00479811
0.00547899
0.00548135
0.00013296
0.00167323
0.00155899
0.0019313
0.00145978
0.00103614
0.00262408
0.00286228
0.00341661
0.0024663
0.00253601
0.00232609
0.00168917
0.00289589
0.0028915
0.00337582
0.00389933
0.00461757
0.00527442
0.00520229
0.000145673
0.00166681
0.00156613
0.00192801
0.0014751
0.00106503
0.00261724
0.00280373
0.00338455
0.00244794
0.00252671
0.00236274
0.00169412
0.00289732
0.00289257
0.00331214
0.00385692
0.00443599
0.00505381
0.00494711
0.000159405
0.00165914
0.00157424
0.00192397
0.00149115
0.0010935
0.00260899
0.002747
0.00334773
0.00243303
0.00251267
0.00240071
0.0016964
0.00289342
0.00289937
0.00323462
0.00380675
0.00425925
0.00481784
0.00471154
0.000174274
0.00165006
0.00158334
0.00191919
0.0015079
0.00112162
0.00259898
0.00269269
0.00330569
0.00242169
0.0024913
0.00243887
0.00169727
0.00288168
0.00291234
0.0031455
0.00374408
0.00409212
0.00456923
0.00448715
0.000190413
0.00163937
0.00159343
0.00191371
0.00152522
0.00114957
0.00258672
0.00264126
0.00325821
0.00241362
0.00246862
0.00247612
0.00169814
0.0028598
0.00293093
0.00304824
0.00366478
0.00393762
0.00431289
0.00426447
0.000207963
0.0016269
0.00160449
0.00190763
0.00154292
0.00117754
0.00257181
0.00259307
0.00320538
0.00240796
0.00244373
0.00251157
0.00170026
0.00282609
0.00295388
0.00294668
0.00356557
0.00379621
0.00405536
0.00403617
0.000227064
0.00161248
0.00161646
0.00190111
0.00156077
0.00120589
0.00255393
0.00254824
0.00314751
0.00240389
0.00241665
0.00254411
0.00170487
0.00277938
0.00297884
0.00284551
0.00344436
0.00366543
0.00380461
0.00379796
0.000247866
0.00159593
0.0016292
0.00189433
0.00157837
0.00123508
0.00253276
0.00250666
0.00308521
0.00240047
0.00238777
0.00257262
0.00171304
0.00271911
0.0030024
0.00274971
0.00330101
0.0035406
0.00356849
0.00354892
0.000270519
0.00157713
0.00164255
0.00188767
0.00159519
0.00126546
0.00250828
0.00246791
0.00301946
0.0023968
0.00235741
0.00259605
0.00172564
0.00264555
0.00302032
0.00266351
0.00313751
0.00341546
0.00335353
0.00329176
0.000295159
0.00155599
0.0016562
0.0018816
0.00161069
0.00129722
0.0024808
0.00243122
0.00295123
0.00239224
0.00232568
0.00261333
0.0017433
0.00255992
0.00302772
0.00258995
0.0029583
0.00328319
0.0031635
0.00303293
0.000321932
0.0015325
0.00166973
0.00187656
0.00162446
0.00133043
0.00245091
0.00239564
0.00288107
0.00238636
0.00229294
0.00262343
0.00176607
0.00246435
0.00301985
0.00253066
0.00276958
0.00313703
0.00299864
0.0027833
0.000350972
0.00150672
0.00168266
0.00187299
0.00163625
0.00136471
0.00241956
0.00236044
0.00280941
0.00237893
0.00225944
0.00262517
0.00179355
0.00236134
0.0029929
0.00248544
0.00257831
0.002972
0.00285507
0.00255487
0.000382389
0.0014789
0.00169427
0.00187112
0.00164608
0.00139955
0.00238774
0.00232531
0.00273659
0.00236968
0.00222536
0.00261733
0.00182489
0.00225409
0.00294426
0.00245178
0.00239198
0.00278675
0.00273134
0.00235817
0.000416247
0.00144952
0.00170361
0.00187095
0.0016543
0.00143412
0.00235641
0.00229035
0.00266254
0.00235819
0.00219111
0.00259874
0.00185869
0.00214663
0.00287246
0.00242517
0.00221759
0.00258367
0.00260608
0.00219769
0.000452566
0.00141922
0.0017096
0.00187239
0.00166153
0.00146735
0.0023262
0.0022562
0.00258718
0.00234371
0.00215714
0.0025688
0.00189293
0.00204273
0.00277786
0.00239983
0.00206026
0.00236857
0.00246903
0.0020681
0.000491368
0.0013886
0.00171106
0.00187509
0.0016685
0.00149854
0.00229743
0.00222353
0.00251069
0.00232533
0.00212373
0.00252758
0.00192494
0.00194524
0.00266264
0.00236973
0.00192237
0.00214895
0.00231493
0.00195902
0.000532647
0.00135817
0.00170737
0.00187859
0.00167595
0.00152724
0.00227
0.00219289
0.00243338
0.0023021
0.00209118
0.00247542
0.00195168
0.0018566
0.00253055
0.00232974
0.00180345
0.0019316
0.00214582
0.00185786
0.000576294
0.00132868
0.00169781
0.00188241
0.00168445
0.00155322
0.00224343
0.00216458
0.00235604
0.00227326
0.00205955
0.00241308
0.00196994
0.00177868
0.00238623
0.00227584
0.00170176
0.00172115
0.00196596
0.00175639
0.000622109
0.00130067
0.00168234
0.00188581
0.00169431
0.00157644
0.00221733
0.00213866
0.00227943
0.00223825
0.00202866
0.00234228
0.00197674
0.00171172
0.00223454
0.00220518
0.00161526
0.00152122
0.00177744
0.00165384
0.000669804
0.00127479
0.00166116
0.00188785
0.00170553
0.00159703
0.00219138
0.00211508
0.0022042
0.00219659
0.00199816
0.00226556
0.00196983
0.00165424
0.00208079
0.00211625
0.00154051
0.00133636
0.00157982
0.00154951
0.000718946
0.00125172
0.00163482
0.00188742
0.00171789
0.00161528
0.00216514
0.00209362
0.00213111
0.00214774
0.00196749
0.00218591
0.00194837
0.00160346
0.00192982
0.00200954
0.001472
0.001172
0.00137334
0.0014371
0.00076881
0.00123234
0.00160433
0.00188316
0.00173093
0.00163139
0.00213828
0.00207414
0.00206072
0.00209152
0.00193572
0.00210605
0.00191317
0.00155576
0.00178484
0.00188813
0.00140299
0.00103091
0.00116465
0.00130604
0.000818414
0.00121742
0.00157163
0.00187354
0.0017439
0.00164553
0.0021104
0.00205621
0.00199407
0.00202841
0.00190138
0.0020279
0.00186614
0.00150804
0.00164693
0.00175611
0.00132861
0.000911292
0.000965046
0.00115064
0.000866907
0.00120767
0.00153839
0.00185755
0.0017558
0.00165798
0.00208081
0.00203917
0.00193237
0.00195928
0.0018625
0.00195237
0.00180992
0.00145839
0.0015162
0.00161683
0.00124689
0.000807599
0.00078283
0.000977863
0.000913758
0.00120337
0.00150585
0.00183461
0.00176552
0.00166883
0.00204899
0.00202236
0.00187669
0.00188568
0.0018169
0.00187897
0.00174736
0.00140586
0.00139239
0.0014732
0.00115753
0.000713802
0.000620769
0.000801147
0.000958582
0.00120429
0.00147522
0.00180493
0.00177172
0.00167807
0.0020148
0.00200441
0.00182779
0.00181014
0.00176352
0.00180652
0.00168057
0.00134993
0.00127509
0.00132746
0.00106074
0.00062684
0.000476378
0.000629105
0.00100109
0.00120974
0.00144779
0.00176946
0.0017728
0.00168562
0.00197846
0.00198341
0.00178567
0.00173557
0.00170259
0.00173342
0.00161063
0.00129058
0.0011642
0.00118152
0.000956355
0.000545243
0.000345749
0.00046313
0.00104118
0.00121864
0.00142449
0.00173007
0.00176721
0.00169095
0.00194027
0.00195798
0.00174951
0.00166431
0.00163512
0.00165861
0.00153828
0.00122787
0.00105919
0.00103786
0.000844007
0.000468525
0.000232864
0.000301868
0.00107882
0.00122985
0.00140592
0.00168912
0.00175385
0.00169286
0.00190099
0.00192733
0.00171712
0.00159795
0.00156375
0.00158185
0.0014641
0.00116218
0.00095901
0.000898744
0.000724775
0.000391258
0.000140593
0.000153041
0.00111403
0.00124249
0.00139235
0.00164838
0.00173225
0.00168983
0.00186158
0.00189136
0.00168564
0.00153683
0.00149137
0.0015035
0.00138847
0.00109431
0.00086261
0.000765284
0.000602452
0.000307716
6.31973e-05
2.91638e-05
0.00114687
0.00125593
0.00138335
0.0016093
0.001703
0.00168013
0.00182223
0.00185083
0.00165281
0.00148014
0.00141946
0.00142468
0.00131227
0.00102518
0.000769256
0.000636961
0.000481497
0.000217897
-1.09877e-05
-6.57277e-05
0.00117744
0.00126958
0.00137799
0.0015732
0.00166772
0.00166222
0.00178234
0.00180747
0.00161738
0.00142617
0.00134897
0.00134677
0.00123674
0.000955651
0.000679312
0.000512773
0.000363085
0.000129154
-8.9949e-05
-0.000146171
0.00120591
0.00128289
0.00137521
0.00154087
0.0016285
0.00163541
0.00174029
0.00176253
0.00157919
0.0013729
0.00127962
0.00127058
0.00116327
0.000886837
0.000593782
0.000393645
0.000242511
4.435e-05
-0.000166377
-0.000227758
0.00123246
0.00129547
0.00137383
0.00151262
0.00158739
0.00160009
0.0016939
0.001716
0.00153952
0.0013195
0.00120925
0.00119594
0.00109345
0.000820756
0.000512824
0.000282528
0.000117093
-4.22004e-05
-0.000230018
-0.000312185
0.00125728
0.00130714
0.00137262
0.00148832
0.00154627
0.00155747
0.00164173
0.00166705
0.00149971
0.00126671
0.00114583
0.00112046
0.00102728
0.000760347
0.000436985
0.000180313
-5.86666e-06
-0.000142433
-0.000283851
-0.000381779
0.00128039
0.00131793
0.00137062
0.00146713
0.00150684
0.00150939
0.00158318
0.00161419
0.00146007
0.0012155
0.00106876
0.00104039
0.000963065
0.00070851
0.000369313
8.6782e-05
-0.000119136
-0.000256207
-0.000343912
-0.000425925
0.00130167
0.00132794
0.00136731
0.00144757
0.00147018
0.00145818
0.00151809
0.00155577
0.00141996
0.00116804
0.000991409
0.000951906
0.000895078
0.000666383
0.000316139
9.44131e-07
-0.000220539
-0.000369109
-0.000427964
-0.000458738
0.00132097
0.00133725
0.00136254
0.00142805
0.00143655
0.0014063
0.00144737
0.00149076
0.00137756
0.00112545
0.000917817
0.000855737
0.000816821
0.000626514
0.000281866
-7.0649e-05
-0.000313569
-0.000470157
-0.000529349
-0.000505468
0.00133813
0.00134585
0.00135639
0.00140737
0.00140536
0.00135604
0.00137306
0.00141875
0.00133069
0.00108728
0.000851801
0.000756064
0.000725247
0.000578644
0.000263327
-0.000117167
-0.000397933
-0.000557507
-0.000628777
-0.000580908
0.00135299
0.00135347
0.00134908
0.00138486
0.00137531
0.00130891
0.001298
0.00133979
0.00127746
0.00105145
0.000795645
0.00066128
0.00062194
0.000514655
0.000246153
-0.000137548
-0.000464961
-0.000637808
-0.00071256
-0.000670011
0.00136533
0.00135981
0.00134099
0.00136035
0.00134483
0.0012658
0.00122502
0.00125505
0.00121627
0.00101492
0.000749439
0.000576766
0.000513183
0.000432951
0.000217569
-0.000137978
-0.000502195
-0.000711827
-0.000783286
-0.00075272
0.00137492
0.00136453
0.00133236
0.00133399
0.00131266
0.0012264
0.00115689
0.00116707
0.00114647
0.000974662
0.000711153
0.000505905
0.000409946
0.000337994
0.000169026
-0.00013802
-0.000508136
-0.000767584
-0.000849902
-0.00082005
0.00138168
0.00136723
0.00132321
0.00130622
0.00127808
0.00118892
0.00109517
0.00107952
0.00106859
0.00092822
0.00067673
0.000448111
0.000317873
0.000239136
0.000103499
-0.00015399
-0.000493596
-0.000789902
-0.000909128
-0.000878656
0.00138556
0.00136752
0.0013134
0.00127772
0.00124084
0.00115154
0.00103997
0.000996096
0.000984215
0.00087344
0.000643042
0.000402411
0.00023905
0.000145711
2.99528e-05
-0.000189803
-0.000484705
-0.000781185
-0.000945744
-0.000931202
0.00138657
0.00136508
0.00130264
0.00124922
0.00120107
0.00111264
0.000990532
0.00091917
0.000897232
0.000809914
0.000606381
0.000366498
0.000175144
5.89474e-05
-4.20033e-05
-0.000233388
-0.000494831
-0.000760066
-0.000950964
-0.00096899
0.00138473
0.00135975
0.00129058
0.00122111
0.00115947
0.00107133
0.00094453
0.000849643
0.000811804
0.000739572
0.000563329
0.000335253
0.000127677
-1.76649e-05
-0.000113487
-0.000273301
-0.000513908
-0.000749135
-0.000933834
-0.000982275
0.00138008
0.00135145
0.0012768
0.00119354
0.00111723
0.00102722
0.000899759
0.00078712
0.000730678
0.000665294
0.000513704
0.000302505
9.42875e-05
-7.54555e-05
-0.000184093
-0.000311693
-0.000527612
-0.000747396
-0.000911392
-0.000972699
0.00137269
0.00134027
0.00126094
0.00116644
0.00107542
0.000980796
0.000854396
0.000730446
0.000655166
0.000589824
0.000459889
0.000266665
6.57271e-05
-0.000112697
-0.000242469
-0.000353713
-0.000532369
-0.000740428
-0.000889359
-0.000947497
0.00136261
0.00132637
0.00124295
0.0011394
0.00103451
0.000932874
0.000807336
0.000676954
0.000585356
0.000514769
0.000402288
0.000230504
3.70379e-05
-0.000137282
-0.000276716
-0.00039108
-0.000534645
-0.000719842
-0.000859439
-0.000909053
0.00134997
0.00130998
0.00122255
0.00111211
0.00099466
0.000884263
0.000758332
0.000624388
0.000520348
0.000441682
0.000339722
0.00019371
1.30575e-05
-0.000158306
-0.000291522
-0.00040849
-0.000532281
-0.000685807
-0.000814031
-0.000854879
0.00133499
0.00129134
0.00120035
0.00108437
0.000955809
0.000835803
0.000707639
0.000571101
0.000457676
0.000371853
0.000273078
0.000149953
-4.85602e-06
-0.000173012
-0.000295934
-0.000399467
-0.000511516
-0.000635063
-0.000744428
-0.000775578
0.00131802
0.0012707
0.00117655
0.00105624
0.000917821
0.000787779
0.000655929
0.000516862
0.000394128
0.000302741
0.000205964
9.3817e-05
-2.68618e-05
-0.000176912
-0.000294255
-0.000369399
-0.000456016
-0.000551942
-0.000635577
-0.000653138
0.00129938
0.00124856
0.00115133
0.00102778
0.000880915
0.000740368
0.000602985
0.000462073
0.000330204
0.000229849
0.000136662
2.84525e-05
-6.83335e-05
-0.00018034
-0.00028535
-0.00032877
-0.000363098
-0.00041197
-0.000455188
-0.000450451
0.00127962
0.00122537
0.00112539
0.000999188
0.000845223
0.000694215
0.000549571
0.000405127
0.000266435
0.000154424
5.97694e-05
-4.44229e-05
-0.000130683
-0.000203773
-0.000276898
-0.000286624
-0.000244742
-0.000203001
-0.000160343
-9.94511e-05
0.00125921
0.00120191
0.0010991
0.000970865
0.000811097
0.000649793
0.000496593
0.000346394
0.000201307
7.86129e-05
-2.17973e-05
-0.000120036
-0.000204599
-0.000256691
-0.000283539
-0.000242292
-9.03664e-05
0.000117262
0.000308406
0.000441637
0.00123882
0.00117927
0.00107287
0.000943156
0.000778901
0.000608202
0.000445677
0.00028775
0.000133998
1.51428e-06
-0.000105288
-0.000184687
-0.00023127
-0.000240015
-0.000194952
-8.65376e-05
0.000110247
0.000351236
0.000553616
0.000664717
0.00121938
0.00115676
0.00104836
0.000916687
0.00074882
0.000569541
0.000398234
0.000235605
7.53958e-05
-6.66145e-05
-0.000190221
-0.000279386
-0.000291123
-0.00022946
-7.28062e-05
0.00016273
0.000431025
0.000689343
0.000873237
0.000941401
0.00120219
0.00113824
0.00102663
0.000892134
0.000721407
0.000534251
0.000352036
0.000186037
2.85028e-05
-0.000100979
-0.000186825
-0.000245085
-0.000234577
-0.000162556
-4.65061e-05
0.000149506
0.000402732
0.000662804
0.00086154
0.000944677
0.0011881
0.00112333
0.00100966
0.000873511
0.000701695
0.000511394
0.000321488
0.000150978
-6.91057e-06
-0.000150542
-0.000242393
-0.000288304
-0.000257801
-0.000104899
0.000114998
0.000367912
0.000632572
0.000869779
0.00103385
0.00107571
0.00117935
0.00111248
0.000996657
0.00085718
0.000682366
0.000488515
0.000291929
0.00011355
-4.06036e-05
-0.000175918
-0.000257609
-0.000270884
-0.000220704
-6.83379e-05
0.000166007
0.000419766
0.000671377
0.000892055
0.00104423
0.00108006
0.0158062
0.00870952
0.000351542
-0.0054674
-0.0069082
-0.00623813
-0.0056025
-0.00497126
-0.00418087
-0.00361833
-0.00330922
-0.00304173
-0.00295063
-0.00306143
-0.00306722
-0.00289214
-0.00277035
-0.00275434
-0.00270902
-0.00265151
-0.00267285
-0.0027186
-0.00271217
-0.00270951
-0.00276886
-0.00280629
-0.00276639
-0.00274373
-0.00277808
-0.00280485
-0.00281551
-0.00282242
-0.00280083
-0.00278205
-0.00279613
-0.00280141
-0.00280084
-0.0028365
-0.00288509
-0.00290418
-0.00289864
-0.00290789
-0.00291045
-0.00287915
-0.00285383
-0.002845
-0.00284181
-0.0028574
-0.00288722
-0.00291278
-0.00292152
-0.00292236
-0.00293043
-0.0029307
-0.00292787
-0.00293539
-0.00294986
-0.00296651
-0.00297326
-0.00297532
-0.00298939
-0.00300423
-0.00299734
-0.00298107
-0.00296872
-0.00295494
-0.00292782
-0.00290613
-0.0029103
-0.00290531
-0.00285874
-0.00279433
-0.00274845
-0.00270803
-0.00267222
-0.00263877
-0.00260325
-0.00255852
-0.00251377
-0.00246826
-0.00241392
-0.00235454
-0.00228911
-0.00222671
-0.00215618
-0.00208052
-0.00199957
-0.00192269
-0.00184996
-0.00177118
-0.0016905
-0.00159862
-0.00150853
-0.00142297
-0.00132417
-0.0012507
-0.0011639
-0.00105686
-0.00112676
-0.00115166
0.0150194
0.00857009
0.000443133
-0.00531286
-0.00681703
-0.00619487
-0.00557845
-0.00495685
-0.00417036
-0.00360975
-0.00330196
-0.00303461
-0.00294368
-0.0030556
-0.00306241
-0.00288761
-0.00276605
-0.00275058
-0.00270563
-0.00264828
-0.00266992
-0.00271605
-0.00270981
-0.0027072
-0.00276675
-0.00280446
-0.00276463
-0.00274197
-0.00277647
-0.00280338
-0.00281412
-0.00282116
-0.00279966
-0.0027809
-0.00279507
-0.00280045
-0.0027999
-0.00283561
-0.00288428
-0.00290343
-0.00289792
-0.0029072
-0.00290983
-0.00287856
-0.00285324
-0.00284444
-0.00284128
-0.00285688
-0.00288673
-0.00291232
-0.00292109
-0.00292194
-0.00293003
-0.00293032
-0.0029275
-0.00293503
-0.00294952
-0.00296619
-0.00297296
-0.00297502
-0.00298911
-0.00300397
-0.0029971
-0.00298085
-0.0029685
-0.00295474
-0.00292764
-0.00290596
-0.00291014
-0.00290518
-0.00285862
-0.00279421
-0.00274834
-0.00270793
-0.00267213
-0.0026387
-0.00260318
-0.00255845
-0.00251371
-0.00246821
-0.00241388
-0.0023545
-0.00228907
-0.00222668
-0.00215615
-0.00208049
-0.00199955
-0.00192267
-0.00184995
-0.00177117
-0.00169049
-0.00159861
-0.00150852
-0.00142296
-0.00132416
-0.00125069
-0.0011639
-0.00105685
-0.00112675
-0.00115177
0.0143182
0.00840045
0.000604139
-0.00503573
-0.00666539
-0.00614109
-0.00554954
-0.00493451
-0.00415386
-0.00359854
-0.00329444
-0.00302856
-0.00293796
-0.00305033
-0.00305764
-0.00288323
-0.00276217
-0.00274721
-0.00270247
-0.00264527
-0.00266729
-0.00271384
-0.00270776
-0.00270524
-0.00276502
-0.00280293
-0.00276312
-0.00274048
-0.00277514
-0.00280215
-0.00281295
-0.00282011
-0.00279867
-0.00277992
-0.00279418
-0.00279962
-0.00279909
-0.00283487
-0.00288363
-0.00290282
-0.00289732
-0.00290663
-0.00290933
-0.00287806
-0.00285275
-0.00284398
-0.00284083
-0.00285645
-0.00288633
-0.00291195
-0.00292074
-0.00292159
-0.0029297
-0.00293001
-0.00292719
-0.00293474
-0.00294924
-0.00296592
-0.00297272
-0.00297478
-0.00298888
-0.00300377
-0.00299691
-0.00298066
-0.00296833
-0.00295458
-0.00292748
-0.00290581
-0.00291001
-0.00290507
-0.00285853
-0.00279412
-0.00274825
-0.00270785
-0.00267206
-0.00263863
-0.00260312
-0.0025584
-0.00251366
-0.00246817
-0.00241384
-0.00235447
-0.00228904
-0.00222666
-0.00215613
-0.00208047
-0.00199953
-0.00192265
-0.00184993
-0.00177116
-0.00169048
-0.0015986
-0.00150851
-0.00142295
-0.00132415
-0.00125068
-0.00116389
-0.00105682
-0.0011267
-0.00115192
0.013643
0.00821776
0.000807772
-0.00468111
-0.00644989
-0.00605713
-0.00549906
-0.00489351
-0.00412489
-0.00358042
-0.00328363
-0.00302185
-0.00293208
-0.00304354
-0.00305085
-0.0028778
-0.00275801
-0.00274341
-0.00269852
-0.00264132
-0.00266378
-0.00271093
-0.0027053
-0.00270299
-0.00276294
-0.00280105
-0.00276135
-0.00273885
-0.00277366
-0.00280072
-0.00281159
-0.0028189
-0.00279754
-0.00277879
-0.00279312
-0.00279864
-0.00279816
-0.00283404
-0.00288291
-0.00290215
-0.00289665
-0.00290601
-0.00290878
-0.00287751
-0.0028522
-0.00284347
-0.00284033
-0.00285599
-0.00288591
-0.00291156
-0.00292036
-0.00292122
-0.00292935
-0.00292967
-0.00292686
-0.00293442
-0.00294894
-0.00296565
-0.00297246
-0.00297452
-0.00298863
-0.00300355
-0.0029967
-0.00298046
-0.00296814
-0.0029544
-0.00292731
-0.00290564
-0.00290987
-0.00290497
-0.00285842
-0.002794
-0.00274814
-0.00270776
-0.00267198
-0.00263856
-0.00260306
-0.00255834
-0.00251361
-0.00246812
-0.0024138
-0.00235443
-0.00228901
-0.00222663
-0.00215611
-0.00208045
-0.00199951
-0.00192263
-0.00184992
-0.00177114
-0.00169047
-0.00159859
-0.00150849
-0.00142294
-0.00132414
-0.00125067
-0.00116389
-0.00105678
-0.00112662
-0.00115212
0.0129746
0.00802462
0.00102457
-0.00430261
-0.0062066
-0.00595738
-0.00543601
-0.00483834
-0.00408449
-0.00355477
-0.00326827
-0.00301356
-0.00292557
-0.00303448
-0.0030409
-0.00287049
-0.00275327
-0.00273918
-0.00269392
-0.0026365
-0.00265903
-0.00270678
-0.00270207
-0.00270024
-0.00276018
-0.00279838
-0.00275906
-0.00273692
-0.00277186
-0.00279891
-0.00280987
-0.00281741
-0.00279617
-0.00277738
-0.00279171
-0.00279732
-0.00279699
-0.00283304
-0.00288201
-0.00290132
-0.00289586
-0.00290528
-0.00290811
-0.00287684
-0.00285155
-0.00284285
-0.00283974
-0.00285545
-0.00288542
-0.00291111
-0.00291993
-0.0029208
-0.00292895
-0.00292929
-0.00292647
-0.00293405
-0.00294859
-0.00296532
-0.00297216
-0.00297423
-0.00298834
-0.00300328
-0.00299645
-0.00298023
-0.00296792
-0.00295418
-0.00292709
-0.00290543
-0.0029097
-0.00290483
-0.00285829
-0.00279386
-0.00274801
-0.00270763
-0.00267187
-0.00263847
-0.00260298
-0.00255827
-0.00251354
-0.00246806
-0.00241375
-0.00235438
-0.00228896
-0.00222659
-0.00215608
-0.00208042
-0.00199948
-0.0019226
-0.0018499
-0.00177113
-0.00169046
-0.00159858
-0.00150848
-0.00142293
-0.00132413
-0.00125065
-0.00116388
-0.00105671
-0.00112647
-0.00115236
0.0123185
0.00781848
0.00123318
-0.00392062
-0.00594844
-0.00585012
-0.00536944
-0.00477731
-0.00403771
-0.00352398
-0.0032493
-0.00300368
-0.00291812
-0.00302305
-0.00302777
-0.00286109
-0.00274765
-0.00273444
-0.00268899
-0.00263127
-0.00265328
-0.00270133
-0.00269796
-0.0026969
-0.00275653
-0.00279469
-0.0027561
-0.00273457
-0.00276954
-0.00279649
-0.00280763
-0.00281558
-0.00279459
-0.0027757
-0.00278984
-0.0027955
-0.00279544
-0.0028317
-0.0028808
-0.00290024
-0.0028949
-0.0029044
-0.00290728
-0.00287602
-0.00285075
-0.0028421
-0.00283904
-0.00285483
-0.00288485
-0.00291056
-0.00291942
-0.00292031
-0.00292848
-0.00292883
-0.00292602
-0.00293362
-0.00294816
-0.00296493
-0.0029718
-0.00297388
-0.00298798
-0.00300293
-0.00299613
-0.00297994
-0.00296764
-0.0029539
-0.0029268
-0.00290518
-0.00290948
-0.00290464
-0.00285811
-0.00279367
-0.00274783
-0.00270747
-0.00267172
-0.00263835
-0.00260287
-0.00255817
-0.00251345
-0.00246799
-0.00241368
-0.00235432
-0.0022889
-0.00222654
-0.00215603
-0.00208038
-0.00199944
-0.00192257
-0.00184987
-0.0017711
-0.00169044
-0.00159856
-0.00150846
-0.00142292
-0.00132411
-0.00125063
-0.00116386
-0.00105663
-0.00112625
-0.00115264
0.0116816
0.00759388
0.00142232
-0.00353984
-0.00567501
-0.00573462
-0.00530135
-0.00471376
-0.00398709
-0.00348976
-0.00322783
-0.00299232
-0.00290957
-0.0030099
-0.00301243
-0.00284994
-0.00274098
-0.00272908
-0.00268389
-0.00262608
-0.00264714
-0.00269505
-0.00269316
-0.00269297
-0.00275193
-0.00278994
-0.00275247
-0.00273173
-0.00276656
-0.00279325
-0.00280463
-0.00281324
-0.00279282
-0.00277385
-0.00278756
-0.00279319
-0.00279344
-0.00282989
-0.00287906
-0.00289875
-0.0028937
-0.00290332
-0.00290625
-0.00287503
-0.00284978
-0.00284114
-0.00283816
-0.00285405
-0.00288413
-0.00290989
-0.00291881
-0.00291973
-0.00292791
-0.00292826
-0.00292548
-0.00293308
-0.00294762
-0.00296442
-0.00297136
-0.00297345
-0.00298753
-0.00300248
-0.00299573
-0.00297958
-0.00296728
-0.00295351
-0.00292642
-0.00290485
-0.0029092
-0.00290437
-0.00285785
-0.00279342
-0.00274759
-0.00270724
-0.00267151
-0.00263818
-0.00260272
-0.00255802
-0.00251332
-0.00246788
-0.00241358
-0.00235423
-0.00228882
-0.00222647
-0.00215597
-0.00208033
-0.00199939
-0.00192252
-0.00184983
-0.00177107
-0.00169041
-0.00159853
-0.00150843
-0.0014229
-0.00132409
-0.0012506
-0.00116383
-0.00105653
-0.00112594
-0.00115293
0.0110663
0.00734652
0.00158833
-0.00315874
-0.00538278
-0.00560865
-0.00523228
-0.00464936
-0.00393388
-0.00345289
-0.00320426
-0.00297946
-0.00289999
-0.00299568
-0.00299579
-0.00283757
-0.00273336
-0.00272305
-0.00267855
-0.00262102
-0.00264107
-0.00268857
-0.00268807
-0.0026886
-0.00274651
-0.0027843
-0.00274833
-0.00272854
-0.00276294
-0.00278914
-0.00280069
-0.00281017
-0.00279074
-0.00277187
-0.00278502
-0.00279055
-0.00279112
-0.00282759
-0.00287666
-0.00289666
-0.00289207
-0.00290192
-0.002905
-0.00287392
-0.00284868
-0.00284
-0.00283708
-0.00285308
-0.0028832
-0.00290902
-0.00291806
-0.00291905
-0.00292722
-0.00292757
-0.00292481
-0.00293242
-0.00294692
-0.00296377
-0.00297081
-0.00297293
-0.00298694
-0.00300187
-0.0029952
-0.00297912
-0.0029668
-0.00295297
-0.00292592
-0.00290442
-0.00290882
-0.00290399
-0.00285749
-0.00279308
-0.00274725
-0.00270691
-0.00267123
-0.00263793
-0.00260249
-0.00255781
-0.00251313
-0.00246771
-0.00241343
-0.0023541
-0.0022887
-0.00222636
-0.00215588
-0.00208024
-0.00199931
-0.00192244
-0.00184977
-0.00177102
-0.00169036
-0.00159849
-0.00150839
-0.00142287
-0.00132406
-0.00125057
-0.00116379
-0.0010564
-0.00112554
-0.00115322
0.0104727
0.00708104
0.00173393
-0.00277663
-0.0050721
-0.00547216
-0.00516327
-0.00458545
-0.00387884
-0.00341353
-0.00317852
-0.00296507
-0.00288952
-0.00298073
-0.00297824
-0.00282429
-0.00272499
-0.00271647
-0.00267289
-0.00261594
-0.00263512
-0.00268213
-0.00268292
-0.002684
-0.00274054
-0.00277804
-0.00274386
-0.00272514
-0.00275891
-0.00278432
-0.00279587
-0.00280626
-0.00278812
-0.00276967
-0.00278235
-0.00278786
-0.00278877
-0.002825
-0.00287367
-0.0028939
-0.00288985
-0.00290003
-0.00290341
-0.00287269
-0.00284754
-0.00283876
-0.00283586
-0.00285191
-0.002882
-0.00290789
-0.00291712
-0.00291823
-0.00292639
-0.00292673
-0.00292402
-0.0029316
-0.00294603
-0.00296291
-0.00297011
-0.00297227
-0.00298617
-0.00300106
-0.00299452
-0.00297855
-0.00296617
-0.00295225
-0.00292524
-0.00290388
-0.00290833
-0.00290349
-0.00285701
-0.00279264
-0.0027468
-0.00270646
-0.00267083
-0.00263758
-0.00260217
-0.00255751
-0.00251286
-0.00246748
-0.00241322
-0.0023539
-0.00228853
-0.00222621
-0.00215574
-0.00208012
-0.0019992
-0.00192234
-0.00184968
-0.00177095
-0.0016903
-0.00159843
-0.00150833
-0.00142282
-0.00132402
-0.00125051
-0.00116373
-0.00105626
-0.00112503
-0.00115349
0.0099048
0.00680694
0.00185972
-0.00239982
-0.00474715
-0.00532514
-0.00509422
-0.00452263
-0.00382228
-0.00337152
-0.00315048
-0.00294919
-0.00287825
-0.00296512
-0.00295987
-0.0028102
-0.00271602
-0.00270941
-0.0026669
-0.00261073
-0.00262916
-0.00267566
-0.0026777
-0.00267925
-0.00273424
-0.00277138
-0.00273917
-0.00272164
-0.00275465
-0.00277908
-0.00279044
-0.00280163
-0.00278491
-0.0027671
-0.00277955