/*--------------------------------*- C++ -*----------------------------------*\
| =========                 |                                                 |
| \\      /  F ield         | OpenFOAM: The Open Source CFD Toolbox           |
|  \\    /   O peration     | Version:  v1912                                 |
|   \\  /    A nd           | Website:  www.openfoam.com                      |
|    \\/     M anipulation  |                                                 |
\*---------------------------------------------------------------------------*/
FoamFile
{
    version     2.0;
    format      ascii;
    class       surfaceScalarField;
    location    "0.75";
    object      phi;
}
// * * * * * * * * * * * * * * * * * * * * * * * * * * * * * * * * * * * * * //

dimensions      [0 3 -1 0 0 0 0];
oriented        oriented;


internalField   nonuniform List<scalar> 
19000
(
1.17253e-06
-3.06972e-07
1.17539e-06
3.17008e-07
1.1774e-06
-1.49465e-07
1.16234e-06
6.01744e-08
1.17832e-06
-7.54063e-07
1.22153e-06
-8.19006e-08
1.19878e-06
3.97303e-07
1.15636e-06
1.26388e-07
1.17572e-06
9.3509e-07
1.13036e-06
-5.94097e-08
1.16127e-06
1.34872e-07
1.13039e-06
-4.12473e-07
1.16043e-06
-6.87191e-07
1.14504e-06
-4.99945e-07
1.15696e-06
-6.12556e-07
1.17867e-06
-2.82883e-07
1.18425e-06
-2.80611e-07
1.18386e-06
-1.36708e-08
1.18131e-06
-7.57695e-08
5.60108e-08
1.15813e-06
1.22921e-06
-3.11922e-07
1.23398e-06
3.12236e-07
1.23435e-06
-1.49828e-07
1.22236e-06
7.21626e-08
1.24024e-06
-7.71947e-07
1.28125e-06
-1.22906e-07
1.25562e-06
4.22931e-07
1.21729e-06
1.64714e-07
1.22618e-06
9.26204e-07
1.19457e-06
-2.78056e-08
1.21048e-06
1.18966e-07
1.19436e-06
-3.96357e-07
1.21102e-06
-7.03848e-07
1.2089e-06
-4.97825e-07
1.2098e-06
-6.13458e-07
1.24345e-06
-3.16527e-07
1.23456e-06
-2.71728e-07
1.2557e-06
-3.48082e-08
1.22695e-06
-4.70217e-08
4.14419e-08
1.24152e-06
1.28712e-06
-3.16257e-07
1.29552e-06
3.03836e-07
1.29236e-06
-1.46669e-07
1.28583e-06
7.86965e-08
1.30275e-06
-7.8887e-07
1.34163e-06
-1.61783e-07
1.31665e-06
4.47911e-07
1.28367e-06
1.97688e-07
1.28555e-06
9.24322e-07
1.26637e-06
-8.61876e-09
1.27076e-06
1.14575e-07
1.26566e-06
-3.91261e-07
1.26547e-06
-7.03656e-07
1.27316e-06
-5.05515e-07
1.26493e-06
-6.05229e-07
1.29599e-06
-3.47584e-07
1.29121e-06
-2.6695e-07
1.30524e-06
-4.88373e-08
1.2899e-06
-3.16797e-08
4.60098e-08
1.28533e-06
1.34686e-06
-3.1901e-07
1.35754e-06
2.93147e-07
1.35108e-06
-1.40204e-07
1.3497e-06
8.00728e-08
1.364e-06
-8.03166e-07
1.39925e-06
-1.97036e-07
1.37978e-06
4.67379e-07
1.35314e-06
2.24329e-07
1.35242e-06
9.25042e-07
1.34045e-06
3.3535e-09
1.33852e-06
1.16507e-07
1.33566e-06
-3.884e-07
1.3246e-06
-6.92601e-07
1.33339e-06
-5.14302e-07
1.32472e-06
-5.96555e-07
1.3462e-06
-3.69072e-07
1.35044e-06
-2.71187e-07
1.36031e-06
-5.87019e-08
1.35292e-06
-2.42956e-08
5.31427e-08
1.34579e-06
1.40919e-06
-3.19842e-07
1.4197e-06
2.82633e-07
1.41144e-06
-1.31948e-07
1.4135e-06
7.80178e-08
1.42443e-06
-8.14102e-07
1.45412e-06
-2.26727e-07
1.44311e-06
4.78389e-07
1.42274e-06
2.44706e-07
1.42294e-06
9.24842e-07
1.41417e-06
1.21214e-08
1.41033e-06
1.20347e-07
1.40569e-06
-3.83759e-07
1.38941e-06
-6.76327e-07
1.39517e-06
-5.20063e-07
1.38767e-06
-5.89052e-07
1.40234e-06
-3.83739e-07
1.40946e-06
-2.78308e-07
1.42149e-06
-7.07339e-08
1.41771e-06
-2.05155e-08
5.89595e-08
1.41189e-06
1.47493e-06
-3.19093e-07
1.48315e-06
2.74414e-07
1.47501e-06
-1.2381e-07
1.4788e-06
7.42253e-08
1.4861e-06
-8.21401e-07
1.50884e-06
-2.49469e-07
1.50561e-06
4.81621e-07
1.49123e-06
2.59091e-07
1.49447e-06
9.21594e-07
1.48773e-06
1.8866e-08
1.48414e-06
1.2394e-07
1.47769e-06
-3.77315e-07
1.45882e-06
-6.57451e-07
1.461e-06
-5.22251e-07
1.45307e-06
-5.81118e-07
1.46374e-06
-3.94409e-07
1.47011e-06
-2.84674e-07
1.48365e-06
-8.4277e-08
1.48402e-06
-2.08873e-08
6.33314e-08
1.47965e-06
1.5445e-06
-3.17374e-07
1.54967e-06
2.69238e-07
1.54295e-06
-1.17091e-07
1.54757e-06
6.96091e-08
1.55098e-06
-8.2481e-07
1.5663e-06
-2.64793e-07
1.56783e-06
4.80094e-07
1.55915e-06
2.67772e-07
1.56658e-06
9.14162e-07
1.56216e-06
2.32871e-08
1.55983e-06
1.26268e-07
1.55246e-06
-3.69939e-07
1.53216e-06
-6.3715e-07
1.53114e-06
-5.21239e-07
1.52173e-06
-5.71701e-07
1.52917e-06
-4.01852e-07
1.53415e-06
-2.89657e-07
1.54689e-06
-9.70095e-08
1.55088e-06
-2.48775e-08
6.56416e-08
1.54857e-06
1.61788e-06
-3.15129e-07
1.62065e-06
2.66471e-07
1.61573e-06
-1.1217e-07
1.62083e-06
6.45127e-08
1.62015e-06
-8.2413e-07
1.62842e-06
-2.73065e-07
1.63159e-06
4.76919e-07
1.62816e-06
2.71202e-07
1.64012e-06
9.02203e-07
1.63833e-06
2.5078e-08
1.6379e-06
1.26702e-07
1.63006e-06
-3.62101e-07
1.60926e-06
-6.16348e-07
1.60556e-06
-5.17547e-07
1.59456e-06
-5.60693e-07
1.59869e-06
-4.05985e-07
1.60234e-06
-2.93305e-07
1.61296e-06
-1.07631e-07
1.61908e-06
-3.10013e-08
6.57228e-08
1.619e-06
1.69495e-06
-3.12501e-07
1.6966e-06
2.6482e-07
1.69323e-06
-1.08801e-07
1.69859e-06
5.91518e-08
1.69385e-06
-8.19389e-07
1.69612e-06
-2.75335e-07
1.69911e-06
4.73931e-07
1.70021e-06
2.70101e-07
1.7163e-06
8.86106e-07
1.71687e-06
2.4513e-08
1.7186e-06
1.24975e-07
1.71047e-06
-3.53974e-07
1.69001e-06
-5.95889e-07
1.68419e-06
-5.11731e-07
1.672e-06
-5.48501e-07
1.67265e-06
-4.06637e-07
1.6749e-06
-2.95549e-07
1.68289e-06
-1.15625e-07
1.68976e-06
-3.78685e-08
6.38999e-08
1.69158e-06
1.77567e-06
-3.0945e-07
1.77739e-06
2.631e-07
1.77513e-06
-1.06538e-07
1.7805e-06
5.3783e-08
1.77197e-06
-8.10867e-07
1.76977e-06
-2.73132e-07
1.77221e-06
4.71494e-07
1.77684e-06
2.6547e-07
1.79614e-06
8.66803e-07
1.79828e-06
2.23699e-08
1.80204e-06
1.21218e-07
1.79375e-06
-3.45679e-07
1.7743e-06
-5.76439e-07
1.76684e-06
-5.04275e-07
1.75408e-06
-5.35736e-07
1.75125e-06
-4.03811e-07
1.75191e-06
-2.96211e-07
1.75708e-06
-1.20799e-07
1.76354e-06
-4.43212e-08
6.06798e-08
1.76676e-06
1.86021e-06
-3.05911e-07
1.8627e-06
2.60614e-07
1.86115e-06
-1.04988e-07
1.86631e-06
4.8621e-08
1.85441e-06
-7.98968e-07
1.84943e-06
-2.68156e-07
1.85191e-06
4.69014e-07
1.8589e-06
2.58479e-07
1.88028e-06
8.45425e-07
1.88305e-06
1.95989e-08
1.88842e-06
1.15848e-07
1.88007e-06
-3.37329e-07
1.86205e-06
-5.58413e-07
1.85328e-06
-4.95504e-07
1.84053e-06
-5.22985e-07
1.83451e-06
-3.97794e-07
1.83347e-06
-2.95175e-07
1.83584e-06
-1.23168e-07
1.84086e-06
-4.93408e-08
5.66534e-08
1.84489e-06
1.9488e-06
-3.01875e-07
1.95229e-06
2.57129e-07
1.95116e-06
-1.03865e-07
1.95605e-06
4.37335e-08
1.94119e-06
-7.8411e-07
1.93493e-06
-2.61896e-07
1.93834e-06
4.65607e-07
1.94658e-06
2.50242e-07
1.96903e-06
8.2297e-07
1.97162e-06
1.701e-08
1.97811e-06
1.09365e-07
1.96975e-06
-3.28972e-07
1.95331e-06
-5.41975e-07
1.94337e-06
-4.85568e-07
1.93105e-06
-5.1066e-07
1.9224e-06
-3.89145e-07
1.91972e-06
-2.92492e-07
1.9196e-06
-1.23048e-07
1.92235e-06
-5.20918e-08
5.24071e-08
1.9266e-06
2.04169e-06
-2.97379e-07
2.04614e-06
2.5268e-07
2.04523e-06
-1.02948e-07
2.04992e-06
3.90353e-08
2.0325e-06
-7.66689e-07
2.02599e-06
-2.55381e-07
2.03098e-06
4.60614e-07
2.03963e-06
2.41589e-07
2.06251e-06
8.00097e-07
2.06441e-06
1.51089e-08
2.07159e-06
1.02186e-07
2.06316e-06
-3.20543e-07
2.04827e-06
-5.27087e-07
2.03719e-06
-4.74492e-07
2.02548e-06
-4.9895e-07
2.01489e-06
-3.78548e-07
2.01077e-06
-2.88379e-07
2.00879e-06
-1.2106e-07
2.00874e-06
-5.20454e-08
4.83528e-08
2.01279e-06
2.13909e-06
-2.92471e-07
2.14439e-06
2.47386e-07
2.14348e-06
-1.02042e-07
2.14816e-06
3.43581e-08
2.12857e-06
-7.471e-07
2.12234e-06
-2.49152e-07
2.12913e-06
4.53821e-07
2.13775e-06
2.32973e-07
2.16075e-06
7.77099e-07
2.16175e-06
1.41025e-08
2.16939e-06
9.45512e-08
2.16071e-06
-3.1186e-07
2.14721e-06
-5.13593e-07
2.13497e-06
-4.62249e-07
2.12387e-06
-4.87852e-07
2.112e-06
-3.66674e-07
2.10669e-06
-2.83075e-07
2.10368e-06
-1.18047e-07
2.10075e-06
-4.91149e-08
4.46886e-08
2.10441e-06
2.24121e-06
-2.87189e-07
2.24724e-06
2.41351e-07
2.24616e-06
-1.00962e-07
2.25099e-06
2.95311e-08
2.22963e-06
-7.25745e-07
2.22387e-06
-2.43391e-07
2.23227e-06
4.4542e-07
2.24071e-06
2.2453e-07
2.26383e-06
7.53983e-07
2.26393e-06
1.40026e-08
2.27196e-06
8.65217e-08
2.26277e-06
-3.02672e-07
2.25048e-06
-5.013e-07
2.23706e-06
-4.48829e-07
2.22643e-06
-4.77223e-07
2.21388e-06
-3.54122e-07
2.20749e-06
-2.76684e-07
2.20432e-06
-1.14883e-07
2.19904e-06
-4.38381e-08
4.1645e-08
2.20209e-06
2.34824e-06
-2.8155e-07
2.35495e-06
2.34639e-07
2.35353e-06
-9.95427e-08
2.35863e-06
2.44276e-08
2.33589e-06
-7.03006e-07
2.3306e-06
-2.38096e-07
2.3402e-06
4.35823e-07
2.34849e-06
2.16234e-07
2.37187e-06
7.306e-07
2.37113e-06
1.47455e-08
2.37962e-06
7.80314e-08
2.36968e-06
-2.92734e-07
2.35841e-06
-4.90021e-07
2.34387e-06
-4.34292e-07
2.33347e-06
-4.66824e-07
2.32075e-06
-3.41402e-07
2.31317e-06
-2.69103e-07
2.31058e-06
-1.12296e-07
2.30375e-06
-3.70081e-08
3.93751e-08
2.30602e-06
2.4604e-06
-2.75555e-07
2.46777e-06
2.27275e-07
2.46588e-06
-9.76593e-08
2.47134e-06
1.89747e-08
2.44753e-06
-6.79201e-07
2.44264e-06
-2.33207e-07
2.45299e-06
4.2547e-07
2.4612e-06
2.08032e-07
2.48505e-06
7.06749e-07
2.48352e-06
1.62708e-08
2.49259e-06
6.89597e-08
2.48173e-06
-2.81873e-07
2.47129e-06
-4.79582e-07
2.4558e-06
-4.18795e-07
2.44531e-06
-4.56341e-07
2.43288e-06
-3.28967e-07
2.42386e-06
-2.60085e-07
2.4223e-06
-1.10736e-07
2.41473e-06
-2.94352e-08
3.79795e-08
2.41612e-06
2.57794e-06
-2.69198e-07
2.58595e-06
2.19262e-07
2.58352e-06
-9.52285e-08
2.58935e-06
1.31416e-08
2.56472e-06
-6.54567e-07
2.56017e-06
-2.28662e-07
2.57095e-06
4.14697e-07
2.57906e-06
1.9992e-07
2.60356e-06
6.82245e-07
2.60128e-06
1.85519e-08
2.61104e-06
5.91976e-08
2.59919e-06
-2.70019e-07
2.5894e-06
-4.69795e-07
2.57321e-06
-4.02604e-07
2.56227e-06
-4.45398e-07
2.55054e-06
-3.17241e-07
2.53989e-06
-2.49434e-07
2.53937e-06
-1.1022e-07
2.53184e-06
-2.19002e-08
3.75658e-08
2.53225e-06
2.7011e-06
-2.62469e-07
2.70976e-06
2.10597e-07
2.70674e-06
-9.22043e-08
2.71296e-06
6.92629e-09
2.68765e-06
-6.29259e-07
2.68339e-06
-2.24406e-07
2.6944e-06
4.03691e-07
2.70237e-06
1.9195e-07
2.72767e-06
6.56944e-07
2.72463e-06
2.15918e-08
2.73514e-06
4.86887e-08
2.72234e-06
-2.57219e-07
2.71297e-06
-4.60431e-07
2.69643e-06
-3.86063e-07
2.68463e-06
-4.33598e-07
2.67396e-06
-3.06565e-07
2.66172e-06
-2.37201e-07
2.6618e-06
-1.10298e-07
2.65505e-06
-1.51474e-08
3.82178e-08
2.6544e-06
2.83016e-06
-2.55357e-07
2.83948e-06
2.01272e-07
2.83584e-06
-8.85669e-08
2.84242e-06
3.45984e-10
2.81655e-06
-6.03383e-07
2.81253e-06
-2.20389e-07
2.82372e-06
3.92504e-07
2.83145e-06
1.84221e-07
2.85765e-06
6.30741e-07
2.85383e-06
2.54117e-08
2.86507e-06
3.7448e-08
2.85147e-06
-2.43616e-07
2.84225e-06
-4.51218e-07
2.82576e-06
-3.69571e-07
2.81271e-06
-4.20549e-07
2.8033e-06
-2.97149e-07
2.78979e-06
-2.23692e-07
2.78974e-06
-1.10246e-07
2.78442e-06
-9.83265e-09
3.99134e-08
2.78273e-06
2.9654e-06
-2.47858e-07
2.97538e-06
1.91286e-07
2.97113e-06
-8.4315e-08
2.97804e-06
-6.56622e-09
2.95168e-06
-5.77022e-07
2.94784e-06
-2.16548e-07
2.95925e-06
3.81097e-07
2.96662e-06
1.7685e-07
2.9938e-06
6.03557e-07
2.9892e-06
3.00172e-08
3.00106e-06
2.5582e-08
2.98688e-06
-2.29433e-07
2.97751e-06
-4.41848e-07
2.96147e-06
-3.53527e-07
2.94686e-06
-4.05943e-07
2.93872e-06
-2.89006e-07
2.92443e-06
-2.09408e-07
2.92353e-06
-1.0934e-07
2.92008e-06
-6.38287e-09
4.24517e-08
2.91754e-06
3.10712e-06
-2.39969e-07
3.11776e-06
1.80641e-07
3.11291e-06
-7.94613e-08
3.1201e-06
-1.37623e-08
3.09335e-06
-5.50267e-07
3.0896e-06
-2.12802e-07
3.10133e-06
3.69372e-07
3.10821e-06
1.69967e-07
3.13643e-06
5.75341e-07
3.13108e-06
3.53614e-08
3.14337e-06
1.32907e-08
3.12889e-06
-2.14953e-07
3.11904e-06
-4.31996e-07
3.10381e-06
-3.38291e-07
3.08747e-06
-3.89609e-07
3.0804e-06
-2.81935e-07
3.06595e-06
-1.94954e-07
3.06367e-06
-1.07065e-07
3.06218e-06
-4.89044e-09
4.546e-08
3.05917e-06
3.25563e-06
-2.31693e-07
3.26693e-06
1.69349e-07
3.2615e-06
-7.40319e-08
3.26891e-06
-2.11782e-08
3.24187e-06
-5.23224e-07
3.23811e-06
-2.09046e-07
3.25028e-06
3.57206e-07
3.25655e-06
1.637e-07
3.28578e-06
5.46108e-07
3.27983e-06
4.13081e-08
3.29228e-06
8.47965e-10
3.27781e-06
-2.00491e-07
3.26717e-06
-4.21348e-07
3.25303e-06
-3.2416e-07
3.23496e-06
-3.71529e-07
3.22859e-06
-2.75568e-07
3.21457e-06
-1.80938e-07
3.21069e-06
-1.03185e-07
3.21088e-06
-5.0774e-09
4.84089e-08
3.20793e-06
3.41127e-06
-2.23036e-07
3.42319e-06
1.57431e-07
3.41723e-06
-6.80679e-08
3.42478e-06
-2.87309e-08
3.39759e-06
-4.9603e-07
3.39369e-06
-2.05145e-07
3.40644e-06
3.44453e-07
3.41197e-06
1.58165e-07
3.44211e-06
5.15969e-07
3.4358e-06
4.76235e-08
3.44808e-06
-1.14358e-08
3.43396e-06
-1.86367e-07
3.42223e-06
-4.09621e-07
3.4094e-06
-3.1133e-07
3.38974e-06
-3.51865e-07
3.38359e-06
-2.6942e-07
3.37057e-06
-1.6792e-07
3.36508e-06
-9.7692e-08
3.36641e-06
-6.4144e-09
5.07255e-08
3.3641e-06
3.57439e-06
-2.1401e-07
3.58689e-06
1.44922e-07
3.58045e-06
-6.16281e-08
3.58804e-06
-3.63158e-08
3.56086e-06
-4.68849e-07
3.55665e-06
-2.0094e-07
3.57014e-06
3.30964e-07
3.57487e-06
1.53435e-07
3.60571e-06
4.85129e-07
3.59933e-06
5.40034e-08
3.61113e-06
-2.32337e-08
3.59763e-06
-1.72871e-07
3.58461e-06
-3.96597e-07
3.57316e-06
-2.99884e-07
3.55222e-06
-3.30919e-07
3.54578e-06
-2.62983e-07
3.53416e-06
-1.56301e-07
3.52726e-06
-9.07947e-08
3.5291e-06
-8.24657e-09
5.19203e-08
3.5279e-06
3.74533e-06
-2.04634e-07
3.75838e-06
1.31869e-07
3.75155e-06
-5.47921e-08
3.75903e-06
-4.38039e-08
3.73206e-06
-4.41879e-07
3.72736e-06
-1.96234e-07
3.74174e-06
3.16586e-07
3.74566e-06
1.49509e-07
3.77691e-06
4.5388e-07
3.7708e-06
6.01157e-08
3.78179e-06
-3.42215e-08
3.76916e-06
-1.60247e-07
3.75471e-06
-3.82139e-07
3.74459e-06
-2.8977e-07
3.72281e-06
-3.09141e-07
3.71557e-06
-2.55736e-07
3.7056e-06
-1.46336e-07
3.69767e-06
-8.28607e-08
3.69934e-06
-9.914e-09
5.16933e-08
3.69956e-06
3.92449e-06
-1.94934e-07
3.93802e-06
1.18334e-07
3.9309e-06
-4.7665e-08
3.93813e-06
-5.1038e-08
3.91159e-06
-4.1534e-07
3.90616e-06
-1.90799e-07
3.92155e-06
3.01194e-07
3.92478e-06
1.46272e-07
3.95608e-06
4.22583e-07
3.95057e-06
6.5628e-08
3.96046e-06
-4.41137e-08
3.94888e-06
-1.48665e-07
3.93295e-06
-3.66209e-07
3.924e-06
-2.8082e-07
3.90192e-06
-2.87061e-07
3.8934e-06
-2.4722e-07
3.88519e-06
-1.38118e-07
3.87667e-06
-7.43411e-08
3.87762e-06
-1.0868e-08
5.00057e-08
3.87931e-06
4.11226e-06
-1.84942e-07
4.1262e-06
1.04395e-07
4.11892e-06
-4.03827e-08
4.12571e-06
-5.78322e-08
4.09984e-06
-3.89472e-07
4.09346e-06
-1.84417e-07
4.10987e-06
2.8478e-07
4.11267e-06
1.43473e-07
4.14362e-06
3.91635e-07
4.13898e-06
7.0268e-08
4.14758e-06
-5.27148e-08
4.13713e-06
-1.3821e-07
4.11978e-06
-3.48865e-07
4.11174e-06
-2.72775e-07
4.0899e-06
-2.65225e-07
4.07978e-06
-2.37101e-07
4.07323e-06
-1.31565e-07
4.06463e-06
-6.57385e-08
4.06449e-06
-1.07327e-08
4.70963e-08
4.0674e-06
4.30906e-06
-1.74701e-07
4.32331e-06
9.01475e-08
4.31605e-06
-3.31206e-08
4.32218e-06
-6.39687e-08
4.29723e-06
-3.64518e-07
4.28978e-06
-1.76971e-07
4.30704e-06
2.67523e-07
4.30974e-06
1.40772e-07
4.33996e-06
3.61414e-07
4.33637e-06
7.38626e-08
4.34359e-06
-5.99404e-08
4.33428e-06
-1.28897e-07
4.31565e-06
-3.30238e-07
4.3082e-06
-2.65322e-07
4.28711e-06
-2.44132e-07
4.27528e-06
-2.2527e-07
4.27005e-06
-1.26342e-07
4.26194e-06
-5.76242e-08
4.2605e-06
-9.29304e-09
4.34256e-08
4.26417e-06
4.51533e-06
-1.64261e-07
4.52978e-06
7.57035e-08
4.52276e-06
-2.61069e-08
4.52799e-06
-6.91938e-08
4.50418e-06
-3.40709e-07
4.49571e-06
-1.68499e-07
4.51343e-06
2.49797e-07
4.5164e-06
1.3781e-07
4.54558e-06
3.32235e-07
4.54309e-06
7.63478e-08
4.54896e-06
-6.58055e-08
4.54075e-06
-1.20687e-07
4.52103e-06
-3.10518e-07
4.51383e-06
-2.58124e-07
4.4939e-06
-2.24206e-07
4.48045e-06
-2.11818e-07
4.47603e-06
-1.21919e-07
4.46892e-06
-5.05192e-08
4.46625e-06
-6.61675e-09
3.96397e-08
4.47003e-06
4.73154e-06
-1.53683e-07
4.74605e-06
6.11943e-08
4.73959e-06
-1.96489e-08
4.7436e-06
-7.32031e-08
4.72109e-06
-3.18201e-07
4.71177e-06
-1.59181e-07
4.7295e-06
2.3207e-07
4.73304e-06
1.34265e-07
4.76097e-06
3.04305e-07
4.75956e-06
7.77652e-08
4.76412e-06
-7.03673e-08
4.75696e-06
-1.13526e-07
4.73637e-06
-2.89931e-07
4.72908e-06
-2.50838e-07
4.71067e-06
-2.05797e-07
4.69583e-06
-1.96977e-07
4.69165e-06
-1.17737e-07
4.68588e-06
-4.47484e-08
4.68233e-06
-3.06462e-09
3.64393e-08
4.68553e-06
4.95815e-06
-1.43036e-07
4.97257e-06
4.67713e-08
4.9671e-06
-1.41708e-08
4.96951e-06
-7.56162e-08
4.94835e-06
-2.97042e-07
4.93846e-06
-1.49293e-07
4.95572e-06
2.14813e-07
4.96006e-06
1.29922e-07
4.98671e-06
2.77659e-07
4.98622e-06
7.82477e-08
4.98954e-06
-7.36851e-08
4.98337e-06
-1.07352e-07
4.96217e-06
-2.68736e-07
4.95446e-06
-2.43128e-07
4.93779e-06
-1.89125e-07
4.92195e-06
-1.8113e-07
4.91748e-06
-1.1327e-07
4.91311e-06
-4.0385e-08
4.90924e-06
8.09492e-10
3.43272e-08
4.91135e-06
5.19568e-06
-1.324e-07
5.20985e-06
3.26032e-08
5.20582e-06
-1.01392e-08
5.20626e-06
-7.60619e-08
5.18635e-06
-2.77134e-07
5.17626e-06
-1.39199e-07
5.19265e-06
1.98425e-07
5.19784e-06
1.24733e-07
5.2233e-06
2.52195e-07
5.2236e-06
7.79513e-08
5.22571e-06
-7.5793e-08
5.22046e-06
-1.02103e-07
5.19894e-06
-2.47219e-07
5.19049e-06
-2.34675e-07
5.17568e-06
-1.74317e-07
5.15927e-06
-1.64723e-07
5.15414e-06
-1.08135e-07
5.15102e-06
-3.72627e-08
5.14737e-06
4.4521e-09
3.34356e-08
5.14826e-06
5.44465e-06
-1.21859e-07
5.45838e-06
1.88699e-08
5.456e-06
-7.76071e-09
5.45443e-06
-7.44845e-08
5.43557e-06
-2.58282e-07
5.42563e-06
-1.29259e-07
5.44094e-06
1.83118e-07
5.44679e-06
1.18881e-07
5.47124e-06
2.27743e-07
5.47221e-06
7.69816e-08
5.47311e-06
-7.66863e-08
5.4687e-06
-9.76965e-08
5.44718e-06
-2.25702e-07
5.43773e-06
-2.25217e-07
5.42475e-06
-1.6134e-07
5.4083e-06
-1.4827e-07
5.40226e-06
-1.02101e-07
5.40004e-06
-3.50452e-08
5.39708e-06
7.42037e-09
3.35391e-08
5.39697e-06
5.7056e-06
-1.11502e-07
5.71871e-06
5.75735e-09
5.71781e-06
-6.85474e-09
5.7146e-06
-7.12742e-08
5.69657e-06
-2.40253e-07
5.68706e-06
-1.19748e-07
5.70127e-06
1.68902e-07
5.70744e-06
1.12714e-07
5.731e-06
2.04183e-07
5.73262e-06
7.53581e-08
5.73228e-06
-7.63416e-08
5.7286e-06
-9.4013e-08
5.70744e-06
-2.04551e-07
5.69676e-06
-2.14534e-07
5.6855e-06
-1.50075e-07
5.6695e-06
-1.32276e-07
5.66249e-06
-9.5094e-08
5.66079e-06
-3.33447e-08
5.65867e-06
9.54655e-09
3.41542e-08
5.65805e-06
5.97911e-06
-1.01422e-07
5.99141e-06
-6.54311e-09
5.99178e-06
-7.22235e-09
5.9874e-06
-6.6897e-08
5.96998e-06
-2.22827e-07
5.96103e-06
-1.10802e-07
5.97427e-06
1.55662e-07
5.9804e-06
1.06587e-07
6.00303e-06
1.81548e-07
6.00537e-06
7.30251e-08
6.00379e-06
-7.47666e-08
6.00068e-06
-9.08978e-08
5.98026e-06
-1.84134e-07
5.96826e-06
-2.02537e-07
5.95848e-06
-1.40289e-07
5.94335e-06
-1.17144e-07
5.93548e-06
-8.72328e-08
5.93394e-06
-3.18016e-08
5.93259e-06
1.09009e-08
3.48104e-08
5.93193e-06
6.26578e-06
-9.17094e-08
6.27707e-06
-1.78335e-08
6.27856e-06
-8.71939e-09
6.27348e-06
-6.1812e-08
6.25646e-06
-2.0581e-07
6.2481e-06
-1.02437e-07
6.26054e-06
1.43222e-07
6.26636e-06
1.00758e-07
6.28788e-06
1.60035e-07
6.29099e-06
6.99068e-08
6.28824e-06
-7.20153e-08
6.28552e-06
-8.81736e-08
6.26619e-06
-1.64807e-07
6.25292e-06
-1.89262e-07
6.2443e-06
-1.31674e-07
6.23037e-06
-1.03207e-07
6.22182e-06
-7.86893e-08
6.22022e-06
-3.02034e-08
6.21942e-06
1.17053e-08
3.52561e-08
6.21897e-06
6.56621e-06
-8.24549e-08
6.57628e-06
-2.79006e-08
6.5788e-06
-1.12373e-08
6.57346e-06
-5.64767e-08
6.55668e-06
-1.8903e-07
6.54887e-06
-9.46184e-08
6.56066e-06
1.31425e-07
6.5661e-06
9.53183e-08
6.58616e-06
1.39976e-07
6.59008e-06
6.5989e-08
6.58627e-06
-6.82089e-08
6.58373e-06
-8.56272e-08
6.56581e-06
-1.46893e-07
6.55149e-06
-1.74937e-07
6.54361e-06
-1.23801e-07
6.53111e-06
-9.07014e-08
6.52213e-06
-6.97059e-08
6.5203e-06
-2.83757e-08
6.51993e-06
1.20698e-08
3.55056e-08
6.51968e-06
6.88108e-06
-7.37457e-08
6.88968e-06
-3.64986e-08
6.89316e-06
-1.47148e-08
6.88799e-06
-5.13093e-08
6.87134e-06
-1.72381e-07
6.86399e-06
-8.72653e-08
6.87524e-06
1.20175e-07
6.88034e-06
9.02188e-08
6.89866e-06
1.21651e-07
6.90326e-06
6.13923e-08
6.89856e-06
-6.35097e-08
6.89597e-06
-8.30348e-08
6.87973e-06
-1.30655e-07
6.86469e-06
-1.59895e-07
6.85712e-06
-1.1623e-07
6.84619e-06
-7.97791e-08
6.83701e-06
-6.05241e-08
6.8348e-06
-2.61625e-08
6.83491e-06
1.19615e-08
3.5674e-08
6.83474e-06
7.21105e-06
-6.5662e-08
7.21788e-06
-4.33294e-08
7.22232e-06
-1.91474e-08
7.21767e-06
-4.6668e-08
7.20114e-06
-1.55847e-07
7.19415e-06
-8.02747e-08
7.20486e-06
1.09464e-07
7.20967e-06
8.54108e-08
7.2262e-06
1.0512e-07
7.23127e-06
5.63203e-08
7.22587e-06
-5.81064e-08
7.22302e-06
-8.01847e-08
7.20856e-06
-1.16198e-07
7.19323e-06
-1.44565e-07
7.18556e-06
-1.08558e-07
7.17623e-06
-7.04483e-08
7.16718e-06
-5.14766e-08
7.16438e-06
-2.33671e-08
7.16497e-06
1.13738e-08
3.56595e-08
7.16499e-06
7.55684e-06
-5.82721e-08
7.56153e-06
-4.80197e-08
7.567e-06
-2.46166e-08
7.56314e-06
-4.28157e-08
7.54682e-06
-1.3952e-07
7.5401e-06
-7.35586e-08
7.55022e-06
9.93469e-08
7.55477e-06
8.08637e-08
7.56954e-06
9.03489e-08
7.57495e-06
5.0907e-08
7.56906e-06
-5.22138e-08
7.56573e-06
-7.68586e-08
7.55299e-06
-1.03458e-07
7.53781e-06
-1.29381e-07
7.52982e-06
-1.00566e-07
7.52184e-06
-6.24749e-08
7.51333e-06
-4.2967e-08
7.50984e-06
-1.98771e-08
7.51067e-06
1.05421e-08
3.51383e-08
7.5112e-06
7.91916e-06
-5.16212e-08
7.92138e-06
-5.02361e-08
7.92794e-06
-3.1181e-08
7.92506e-06
-3.99338e-08
7.90911e-06
-1.23572e-07
7.90261e-06
-6.70574e-08
7.91211e-06
8.98466e-08
7.91635e-06
7.66193e-08
7.92941e-06
7.72916e-08
7.93509e-06
4.52297e-08
7.92896e-06
-4.60852e-08
7.92494e-06
-7.28386e-08
7.91376e-06
-9.22806e-08
7.89911e-06
-1.14733e-07
7.89076e-06
-9.22123e-08
7.88379e-06
-5.54997e-08
7.8761e-06
-3.52796e-08
7.8721e-06
-1.58769e-08
7.87268e-06
9.95501e-09
3.386e-08
7.87396e-06
8.29879e-06
-4.57255e-08
8.29893e-06
-5.03841e-08
8.30595e-06
-3.81962e-08
8.30414e-06
-3.813e-08
8.2888e-06
-1.08231e-07
8.28247e-06
-6.07215e-08
8.29137e-06
8.09479e-08
8.29524e-06
7.2747e-08
8.30656e-06
6.59755e-08
8.31243e-06
3.93514e-08
8.30636e-06
-4.00148e-08
8.30154e-06
-6.8016e-08
8.29168e-06
-8.24162e-08
8.27785e-06
-1.00905e-07
8.26923e-06
-8.3589e-08
8.26294e-06
-4.92159e-08
8.25612e-06
-2.84619e-08
8.25195e-06
-1.17032e-08
8.25197e-06
9.93842e-09
3.19973e-08
8.25383e-06
8.6965e-06
-4.05662e-08
8.69525e-06
-4.91319e-08
8.70186e-06
-4.48079e-08
8.70117e-06
-3.74399e-08
8.68671e-06
-9.3771e-08
8.68045e-06
-5.44641e-08
8.68883e-06
7.25765e-08
8.6923e-06
6.9268e-08
8.70181e-06
5.64658e-08
8.70777e-06
3.33964e-08
8.70205e-06
-3.42975e-08
8.6965e-06
-6.24629e-08
8.68759e-06
-7.35106e-08
8.67477e-06
-8.80834e-08
8.66602e-06
-7.48399e-08
8.66024e-06
-4.3433e-08
8.65418e-06
-2.24021e-08
8.65013e-06
-7.6527e-09
8.64957e-06
1.04949e-08
3.00196e-08
8.65155e-06
9.11314e-06
-3.60912e-08
9.111e-06
-4.69908e-08
9.11656e-06
-5.03624e-08
9.11696e-06
-3.7842e-08
9.10365e-06
-8.04662e-08
9.09737e-06
-4.81778e-08
9.10532e-06
6.46209e-08
9.10849e-06
6.61024e-08
9.11614e-06
4.88194e-08
9.1219e-06
2.76354e-08
9.11683e-06
-2.923e-08
9.11072e-06
-5.63537e-08
9.10245e-06
-6.52423e-08
9.09069e-06
-7.6325e-08
9.08196e-06
-6.61101e-08
9.07658e-06
-3.80501e-08
9.07121e-06
-1.70352e-08
9.06735e-06
-3.7877e-09
9.06643e-06
1.14102e-08
2.82865e-08
9.06817e-06
9.54959e-06
-3.22241e-08
9.54697e-06
-4.43693e-08
9.55098e-06
-5.43676e-08
9.55236e-06
-3.92268e-08
9.5405e-06
-6.85997e-08
9.53411e-06
-4.17972e-08
9.5417e-06
5.7039e-08
9.54472e-06
6.30767e-08
9.55056e-06
4.29856e-08
9.55576e-06
2.24337e-08
9.55145e-06
-2.49271e-08
9.54507e-06
-4.99722e-08
9.53726e-06
-5.74326e-08
9.52651e-06
-6.55701e-08
9.51794e-06
-5.75441e-08
9.51287e-06
-3.29752e-08
9.50819e-06
-1.23609e-08
9.50448e-06
-7.62689e-11
9.50337e-06
1.25174e-08
2.68669e-08
9.50479e-06
1.00068e-05
-2.88747e-08
1.0004e-05
-4.15993e-08
1.00061e-05
-5.64653e-08
1.00083e-05
-4.14137e-08
9.99816e-06
-5.84554e-08
9.99166e-06
-3.53029e-08
9.9988e-06
4.99007e-08
1.00019e-05
5.99508e-08
1.00061e-05
3.87702e-08
1.00104e-05
1.81748e-08
1.00068e-05
-2.13563e-08
1.00005e-05
-4.35984e-08
9.993e-06
-4.99748e-08
9.98319e-06
-5.57606e-08
9.97491e-06
-4.92682e-08
9.97003e-06
-2.809e-08
9.96603e-06
-8.36411e-09
9.96259e-06
3.36623e-09
9.96127e-06
1.38391e-08
2.57048e-08
9.96243e-06
1.04857e-05
-2.59554e-08
1.0483e-05
-3.89058e-08
1.04833e-05
-5.67161e-08
1.04858e-05
-4.39431e-08
1.04775e-05
-5.01864e-08
1.04711e-05
-2.88376e-08
1.04776e-05
4.33981e-08
1.0481e-05
5.65403e-08
1.04839e-05
3.58461e-08
1.0487e-05
1.50558e-08
1.04839e-05
-1.82478e-08
1.04778e-05
-3.74802e-08
1.04707e-05
-4.28571e-08
1.04617e-05
-4.6816e-08
1.04539e-05
-4.1383e-08
1.04491e-05
-2.333e-08
1.04457e-05
-4.92702e-09
1.04427e-05
6.35648e-09
1.04411e-05
1.53715e-08
2.48391e-08
1.0442e-05
1.09875e-05
-2.33916e-08
1.0985e-05
-3.64233e-08
1.09838e-05
-5.55655e-08
1.0986e-05
-4.61213e-08
1.09796e-05
-4.3779e-08
1.09735e-05
-2.26996e-08
1.0979e-05
3.78139e-08
1.09828e-05
5.27351e-08
1.09849e-05
3.38071e-08
1.09868e-05
1.31156e-08
1.09839e-05
-1.52922e-08
1.09781e-05
-3.17096e-08
1.09714e-05
-3.61118e-08
1.09632e-05
-3.86662e-08
1.09558e-05
-3.39978e-08
1.09512e-05
-1.86849e-08
1.09481e-05
-1.87397e-09
1.09456e-05
8.83479e-09
1.09441e-05
1.68627e-08
2.44828e-08
1.09445e-05
1.15131e-05
-2.11185e-08
1.15109e-05
-3.42254e-08
1.15087e-05
-5.34042e-08
1.151e-05
-4.74371e-08
1.15053e-05
-3.90567e-08
1.14999e-05
-1.72563e-08
1.15043e-05
3.33569e-08
1.15085e-05
4.85968e-08
1.151e-05
3.22373e-08
1.15109e-05
1.22478e-08
1.15079e-05
-1.22912e-08
1.15024e-05
-2.62141e-08
1.14961e-05
-2.97718e-08
1.14887e-05
-3.12594e-08
1.14818e-05
-2.71724e-08
1.14774e-05
-1.42182e-08
1.14746e-05
9.1908e-10
1.14725e-05
1.09424e-08
1.14713e-05
1.803e-08
2.45908e-08
1.14712e-05
1.20638e-05
-1.90839e-08
1.20619e-05
-3.23424e-08
1.2059e-05
-5.05337e-08
1.20592e-05
-4.75965e-08
1.20559e-05
-3.57161e-08
1.20514e-05
-1.28007e-08
1.20548e-05
2.99775e-08
1.20589e-05
4.44558e-08
1.20604e-05
3.07867e-08
1.20605e-05
1.21402e-08
1.20573e-05
-9.1102e-09
1.2052e-05
-2.08996e-08
1.2046e-05
-2.37886e-08
1.20393e-05
-2.45562e-08
1.2033e-05
-2.09043e-08
1.20288e-05
-1.00357e-08
1.20263e-05
3.45379e-09
1.20244e-05
1.28958e-08
1.20235e-05
1.88386e-08
2.47866e-08
1.20234e-05
1.26408e-05
-1.72466e-08
1.26392e-05
-3.07765e-08
1.26359e-05
-4.72159e-08
1.26349e-05
-4.65767e-08
1.26324e-05
-3.3249e-08
1.26291e-05
-9.51393e-09
1.26317e-05
2.73915e-08
1.26354e-05
4.07441e-08
1.26369e-05
2.92638e-08
1.26366e-05
1.24454e-08
1.26333e-05
-5.77079e-09
1.26281e-05
-1.5692e-08
1.26224e-05
-1.80788e-08
1.26163e-05
-1.84617e-08
1.26106e-05
-1.52045e-08
1.26067e-05
-6.14432e-09
1.26045e-05
5.63817e-09
1.26027e-05
1.47217e-08
1.26019e-05
1.95844e-08
2.46333e-08
1.26021e-05
1.32453e-05
-1.55846e-08
1.3244e-05
-2.94966e-08
1.32405e-05
-4.36922e-08
1.32384e-05
-4.44647e-08
1.32363e-05
-3.11725e-08
1.32341e-05
-7.36491e-09
1.32363e-05
2.52371e-08
1.32394e-05
3.76617e-08
1.32408e-05
2.77998e-08
1.32404e-05
1.28348e-08
1.32371e-05
-2.46503e-09
1.3232e-05
-1.05609e-08
1.32265e-05
-1.25363e-08
1.32208e-05
-1.28425e-08
1.32157e-05
-1.01089e-08
1.32121e-05
-2.45623e-09
1.32103e-05
7.44751e-09
1.32088e-05
1.61873e-08
1.32078e-05
2.06022e-08
2.41136e-08
1.32083e-05
1.38787e-05
-1.40969e-08
1.38776e-05
-2.84078e-08
1.38741e-05
-4.02156e-08
1.3871e-05
-4.13821e-08
1.3869e-05
-2.91238e-08
1.38677e-05
-6.11523e-09
1.38698e-05
2.31781e-08
1.38723e-05
3.51409e-08
1.38734e-05
2.66984e-08
1.38731e-05
1.31492e-08
1.38701e-05
5.19852e-10
1.38652e-05
-5.60141e-09
1.38597e-05
-7.09547e-09
1.38544e-05
-7.53299e-09
1.38499e-05
-5.57169e-09
1.38464e-05
9.67124e-10
1.38448e-05
9.11946e-09
1.38439e-05
1.70119e-08
1.38428e-05
2.17701e-08
2.37253e-08
1.38432e-05
1.45424e-05
-1.2797e-08
1.45413e-05
-2.73561e-08
1.45381e-05
-3.69985e-08
1.45343e-05
-3.75519e-08
1.45319e-05
-2.67889e-08
1.45313e-05
-5.49549e-09
1.45334e-05
2.10508e-08
1.45356e-05
3.29859e-08
1.45362e-05
2.60837e-08
1.45358e-05
1.35339e-08
1.45334e-05
2.95132e-09
1.45289e-05
-1.10279e-09
1.45236e-05
-1.76964e-09
1.45184e-05
-2.33998e-09
1.45142e-05
-1.43926e-09
1.45113e-05
3.938e-09
1.45095e-05
1.09037e-08
1.45092e-05
1.7267e-08
1.45084e-05
2.25665e-08
2.39021e-08
1.45083e-05
1.52378e-05
-1.1696e-08
1.52366e-05
-2.61937e-08
1.52338e-05
-3.4145e-08
1.52295e-05
-3.33063e-08
1.52266e-05
-2.39171e-08
1.52263e-05
-5.19567e-09
1.52286e-05
1.88094e-08
1.52306e-05
3.101e-08
1.52308e-05
2.58293e-08
1.52301e-05
1.42486e-08
1.52282e-05
4.88215e-09
1.52245e-05
2.61113e-09
1.52195e-05
3.19103e-09
1.52144e-05
2.75495e-09
1.52103e-05
2.65538e-09
1.52079e-05
6.37558e-09
1.52061e-05
1.26288e-08
1.52059e-05
1.75296e-08
1.52059e-05
2.25013e-08
2.45028e-08
1.52053e-05
1.59664e-05
-1.07924e-08
1.59651e-05
-2.48627e-08
1.59625e-05
-3.15722e-08
1.59582e-05
-2.90173e-08
1.59548e-05
-2.04396e-08
1.59544e-05
-4.82933e-09
1.59567e-05
1.64747e-08
1.59587e-05
2.90538e-08
1.59587e-05
2.58077e-08
1.59576e-05
1.53704e-08
1.59559e-05
6.57311e-09
1.59531e-05
5.39636e-09
1.59489e-05
7.41573e-09
1.5944e-05
7.63267e-09
1.59398e-05
6.83226e-09
1.59376e-05
8.61999e-09
1.59363e-05
1.39141e-08
1.59357e-05
1.81699e-08
1.59364e-05
2.17288e-08
2.48648e-08
1.59361e-05
1.67299e-05
-1.00706e-08
1.67284e-05
-2.33677e-08
1.67259e-05
-2.91117e-08
1.67219e-05
-2.49649e-08
1.67179e-05
-1.65009e-08
1.67171e-05
-4.01467e-09
1.67194e-05
1.41442e-08
1.67215e-05
2.70376e-08
1.67214e-05
2.58585e-08
1.672e-05
1.67927e-08
1.67182e-05
8.37765e-09
1.67162e-05
7.35656e-09
1.6713e-05
1.06162e-08
1.67087e-05
1.19396e-08
1.67045e-05
1.10141e-08
1.67021e-05
1.11083e-08
1.67013e-05
1.46719e-08
1.67005e-05
1.89229e-08
1.67012e-05
2.10654e-08
2.43205e-08
1.67017e-05
1.75298e-05
-9.50546e-09
1.75281e-05
-2.17125e-08
1.75257e-05
-2.66366e-08
1.7522e-05
-2.12804e-08
1.75179e-05
-1.23781e-08
1.75164e-05
-2.54096e-09
1.75185e-05
1.2047e-08
1.75206e-05
2.49096e-08
1.75206e-05
2.58418e-08
1.7519e-05
1.84173e-08
1.7517e-05
1.04165e-08
1.75155e-05
8.86698e-09
1.75133e-05
1.27309e-08
1.75099e-05
1.53271e-08
1.7506e-05
1.49156e-08
1.75032e-05
1.39347e-08
1.75025e-05
1.53489e-08
1.75022e-05
1.92551e-08
1.75023e-05
2.0967e-08
2.304e-08
1.75036e-05
1.83679e-05
-9.06179e-09
1.83661e-05
-1.99166e-08
1.83635e-05
-2.40798e-08
1.83602e-05
-1.79477e-08
1.83562e-05
-8.37623e-09
1.83541e-05
-4.26614e-10
1.83557e-05
1.04889e-08
1.83579e-05
2.26584e-08
1.83581e-05
2.56731e-08
1.83564e-05
2.01081e-08
1.83542e-05
1.26466e-08
1.83526e-05
1.04149e-08
1.83514e-05
1.38961e-08
1.83491e-05
1.76348e-08
1.8346e-05