/*--------------------------------*- C++ -*----------------------------------*\
| =========                 |                                                 |
| \\      /  F ield         | OpenFOAM: The Open Source CFD Toolbox           |
|  \\    /   O peration     | Version:  v1912                                 |
|   \\  /    A nd           | Website:  www.openfoam.com                      |
|    \\/     M anipulation  |                                                 |
\*---------------------------------------------------------------------------*/
FoamFile
{
    version     2.0;
    format      ascii;
    class       volScalarField;
    location    "6.3";
    object      p;
}
// * * * * * * * * * * * * * * * * * * * * * * * * * * * * * * * * * * * * * //

dimensions      [0 2 -2 0 0 0 0];


internalField   nonuniform List<scalar> 
9600
(
-4.63778e-10
0.0136872
-0.00816829
-0.00172725
0.0072393
0.00132264
-0.00402302
-0.000487346
-0.00725073
-0.0122144
-0.00965974
-0.00837709
-0.00997512
-0.0112857
-0.0124774
-0.0128923
-0.0134063
-0.0121242
-0.0121477
-0.0106078
8.68249e-06
0.0134091
-0.00813912
-0.00168374
0.00718991
0.00143907
-0.00400231
-0.000561295
-0.0072232
-0.0121982
-0.00967417
-0.00836021
-0.00998631
-0.0112969
-0.01245
-0.0128748
-0.0133746
-0.0121419
-0.0121178
-0.0107773
4.22535e-06
0.0131466
-0.00810547
-0.00161408
0.00713892
0.00148535
-0.00399676
-0.000671374
-0.00716733
-0.0121695
-0.00967056
-0.00834014
-0.0100066
-0.0112898
-0.0124157
-0.0128595
-0.0133375
-0.0121799
-0.012111
-0.0109927
-6.34149e-06
0.012864
-0.00806575
-0.00151543
0.00707831
0.00150391
-0.00401184
-0.000792568
-0.00711033
-0.0121119
-0.00965619
-0.00833322
-0.0100343
-0.0112644
-0.012385
-0.0128533
-0.0133003
-0.01223
-0.0121243
-0.0112146
-2.38e-05
0.0125662
-0.00801181
-0.00139177
0.00700073
0.00150115
-0.0040349
-0.00092265
-0.00705358
-0.0120225
-0.00963537
-0.00834916
-0.0100734
-0.0112324
-0.0123572
-0.0128514
-0.0132625
-0.012285
-0.0121539
-0.0114363
-4.69003e-05
0.0122656
-0.00793612
-0.00126469
0.00689939
0.00147977
-0.0040574
-0.0010586
-0.00699312
-0.011908
-0.0096169
-0.00838852
-0.0101213
-0.0111977
-0.0123267
-0.0128531
-0.013224
-0.0123384
-0.0121974
-0.011657
-7.28928e-05
0.0119735
-0.00783354
-0.00115649
0.00676974
0.00144365
-0.00407316
-0.00119413
-0.00693037
-0.0117782
-0.009605
-0.00844216
-0.0101712
-0.0111619
-0.0122919
-0.0128576
-0.013184
-0.0123867
-0.0122526
-0.0118741
-9.85143e-05
0.011698
-0.00770222
-0.00108048
0.00660797
0.00137116
-0.00407751
-0.00132599
-0.0068697
-0.0116413
-0.0095981
-0.00849941
-0.0102195
-0.0111281
-0.0122551
-0.0128647
-0.0131426
-0.0124286
-0.0123166
-0.0120859
-0.000121069
0.0114415
-0.00754351
-0.00103878
0.00641937
0.0013166
-0.00406953
-0.00145544
-0.00681442
-0.0115042
-0.00959267
-0.00855383
-0.0102664
-0.0110998
-0.0122197
-0.0128748
-0.0131014
-0.0124636
-0.0123875
-0.0122925
-0.00013925
0.0112021
-0.00736053
-0.00102492
0.00621118
0.00125878
-0.0040511
-0.00158465
-0.00676535
-0.0113719
-0.00958658
-0.00860396
-0.0103127
-0.011079
-0.0121882
-0.012888
-0.0130622
-0.0124934
-0.0124653
-0.0124936
-0.000153203
0.0109749
-0.00715742
-0.00103046
0.00599012
0.00119818
-0.00402512
-0.00171475
-0.00672113
-0.0112471
-0.00957956
-0.00865074
-0.0103587
-0.0110662
-0.0121616
-0.0129034
-0.0130273
-0.0125208
-0.0125492
-0.0126882
-0.000163964
0.0107548
-0.00693915
-0.00104811
0.00576078
0.00113441
-0.00399442
-0.00184576
-0.00667943
-0.0111296
-0.00957223
-0.00869503
-0.0104039
-0.0110606
-0.0121392
-0.0129204
-0.0129986
-0.012548
-0.0126374
-0.0128767
-0.00017267
0.0105367
-0.00671104
-0.00107313
0.00552583
0.00106691
-0.00396135
-0.00197755
-0.00663795
-0.011018
-0.00956527
-0.00873716
-0.0104482
-0.011061
-0.0121199
-0.0129383
-0.0129773
-0.0125757
-0.0127284
-0.0130624
-0.000180101
0.0103167
-0.00647795
-0.00110307
0.00528681
0.00099536
-0.00392775
-0.00211027
-0.00659501
-0.010911
-0.0095594
-0.00877709
-0.0104915
-0.0110662
-0.0121028
-0.0129564
-0.0129626
-0.0126058
-0.0128224
-0.0132473
-0.000186657
0.010092
-0.0062435
-0.0011367
0.00504469
0.000919499
-0.00389507
-0.00224436
-0.00654967
-0.0108072
-0.00955538
-0.00881451
-0.0105339
-0.0110752
-0.012087
-0.0129741
-0.0129539
-0.0126404
-0.01292
-0.0134303
-0.000192562
0.00986056
-0.00600978
-0.00117321
0.00480014
0.000839038
-0.00386437
-0.00238031
-0.00650173
-0.0107062
-0.00955402
-0.00884895
-0.0105755
-0.0110875
-0.0120712
-0.0129918
-0.0129505
-0.0126803
-0.0130207
-0.0136083
-0.000198053
0.00962137
-0.00577755
-0.00121194
0.00455362
0.000753742
-0.0038364
-0.00251854
-0.00645142
-0.0106077
-0.00955603
-0.00887984
-0.0106162
-0.0111026
-0.0120548
-0.0130108
-0.0129509
-0.0127245
-0.0131248
-0.01378
-0.000203428
0.00937388
-0.00554677
-0.00125252
0.00430554
0.000663489
-0.00381164
-0.00265917
-0.0063992
-0.0105113
-0.00956206
-0.00890664
-0.0106558
-0.0111203
-0.0120369
-0.0130324
-0.0129544
-0.0127711
-0.0132339
-0.0139443
-0.000208982
0.00911791
-0.00531716
-0.0012948
0.00405627
0.000568268
-0.00379051
-0.00280219
-0.0063456
-0.0104168
-0.00957282
-0.00892885
-0.0106941
-0.0111413
-0.0120167
-0.0130577
-0.0129617
-0.0128182
-0.0133493
-0.0141004
-0.000214969
0.00885344
-0.00508856
-0.00133878
0.00380612
0.000468122
-0.00377345
-0.0029475
-0.0062911
-0.0103239
-0.0095891
-0.0089461
-0.0107302
-0.0111666
-0.0119934
-0.0130871
-0.0129749
-0.0128629
-0.0134709
-0.0142493
-0.000221619
0.00858058
-0.00486094
-0.00138461
0.00355537
0.000363144
-0.00376094
-0.00309489
-0.00623629
-0.010232
-0.00961156
-0.0089583
-0.0107635
-0.0111977
-0.011966
-0.0131199
-0.0129964
-0.0129025
-0.0135973
-0.014394
-0.000229163
0.00829952
-0.0046344
-0.00143255
0.00330425
0.000253568
-0.00375345
-0.00324408
-0.00618177
-0.0101407
-0.00964071
-0.0089658
-0.0107929
-0.011236
-0.0119344
-0.0131544
-0.0130294
-0.0129352
-0.0137257
-0.0145389
-0.000237832
0.00801058
-0.00440922
-0.00148293
0.00305298
0.0001398
-0.00375141
-0.00339479
-0.00612806
-0.0100492
-0.00967705
-0.00896926
-0.0108172
-0.011283
-0.0118994
-0.0131883
-0.0130767
-0.0129604
-0.0138511
-0.0146898
-0.000247849
0.00771412
-0.00418595
-0.00153611
0.00280167
2.23592e-05
-0.00375523
-0.00354679
-0.00607561
-0.00995687
-0.00972105
-0.00896972
-0.0108347
-0.01134
-0.0118628
-0.0132184
-0.0131405
-0.012979
-0.0139669
-0.0148522
-0.000259401
0.00741049
-0.00396537
-0.00159249
0.00255039
-9.81748e-05
-0.00376524
-0.0037
-0.00602496
-0.00986304
-0.00977303
-0.00896858
-0.0108438
-0.0114076
-0.0118271
-0.0132413
-0.0132223
-0.0129946
-0.014065
-0.0150294
-0.000272649
0.00710008
-0.00374851
-0.0016524
0.00229908
-0.000221187
-0.00378173
-0.00385439
-0.00597674
-0.00976717
-0.00983292
-0.00896739
-0.0108427
-0.011486
-0.0117953
-0.0132527
-0.013322
-0.0130133
-0.0141373
-0.0152196
-0.000287784
0.0067833
-0.00353645
-0.00171617
0.00204763
-0.000346069
-0.00380492
-0.00400995
-0.00593168
-0.00966886
-0.00990037
-0.00896806
-0.0108298
-0.0115746
-0.0117712
-0.0132489
-0.0134378
-0.0130436
-0.0141772
-0.0154141
-0.000305017
0.0064606
-0.0033303
-0.00178399
0.00179582
-0.000472224
-0.00383477
-0.00416681
-0.00589064
-0.00956752
-0.00997499
-0.00897302
-0.0108038
-0.0116719
-0.0117585
-0.013227
-0.0135648
-0.0130946
-0.0141822
-0.0155968
-0.000324595
0.00613251
-0.00313124
-0.00185592
0.00154335
-0.000599118
-0.003871
-0.00432514
-0.00585468
-0.0094627
-0.010056
-0.00898467
-0.0107637
-0.0117758
-0.0117615
-0.0131857
-0.0136959
-0.0131746
-0.0141566
-0.0157488
-0.000346824
0.00579964
-0.00294034
-0.0019319
0.00128984
-0.000726373
-0.00391315
-0.00448502
-0.00582509
-0.00935394
-0.0101424
-0.00900563
-0.0107088
-0.0118837
-0.0117837
-0.0131254
-0.0138228
-0.0132895
-0.0141127
-0.0158504
-0.000372051
0.00546266
-0.00275871
-0.00201168
0.00103487
-0.000853989
-0.00396049
-0.00464654
-0.0058034
-0.00924074
-0.0102332
-0.00903891
-0.0106387
-0.0119923
-0.0118292
-0.0130475
-0.0139358
-0.0134413
-0.014068
-0.0158847
-0.00040071
0.00512232
-0.00258744
-0.00209479
0.000778136
-0.000982266
-0.00401212
-0.00480975
-0.00579125
-0.00912305
-0.0103265
-0.00908738
-0.0105531
-0.0120969
-0.0119026
-0.0129558
-0.014024
-0.0136265
-0.0140426
-0.0158474
-0.000433299
0.00477941
-0.0024275
-0.00218078
0.000519171
-0.00111158
-0.00406683
-0.00497446
-0.00579054
-0.00900098
-0.0104201
-0.00915451
-0.0104535
-0.0121914
-0.0120072
-0.0128576
-0.014077
-0.0138348
-0.0140549
-0.0157521
-0.000470329
0.00443472
-0.00227983
-0.00226921
0.000257671
-0.00124257
-0.00412334
-0.00513998
-0.0058035
-0.00887513
-0.0105109
-0.00924356
-0.0103429
-0.0122685
-0.0121443
-0.012763
-0.0140871
-0.0140516
-0.0141179
-0.0156257
-0.000512346
0.00408911
-0.00214532
-0.00235966
-6.29426e-06
-0.00137618
-0.00418097
-0.00530546
-0.00583189
-0.00874698
-0.0105956
-0.00935618
-0.0102257
-0.0123214
-0.0123133
-0.0126831
-0.0140488
-0.0142603
-0.0142367
-0.0154978
-0.000559916
0.00374337
-0.00202466
-0.00245187
-0.000272543
-0.00151318
-0.00423923
-0.00547002
-0.00587724
-0.00861853
-0.0106708
-0.00949352
-0.0101076
-0.0123425
-0.0125117
-0.0126316
-0.0139608
-0.0144435
-0.0144062
-0.0153968
-0.000613571
0.00339832
-0.00191846
-0.00254577
-0.000540683
-0.00165412
-0.00429802
-0.00563232
-0.00594084
-0.00849244
-0.0107321
-0.00965581
-0.00999698
-0.0123238
-0.0127317
-0.0126238
-0.0138283
-0.0145836
-0.0146141
-0.0153442
-0.000673822
0.00305465
-0.00182693
-0.00264168
-0.00081037
-0.00179932
-0.00435765
-0.00579081
-0.00602324
-0.00837229
-0.0107758
-0.00984005
-0.00990383
-0.0122617
-0.0129609
-0.0126743
-0.0136646
-0.0146606
-0.0148435
-0.0153559
-0.000741097
0.00271292
-0.00175007
-0.0027403
-0.00108149
-0.00194869
-0.00441862
-0.00594416
-0.00612376
-0.00826203
-0.0108001
-0.0100412
-0.0098364
-0.0121585
-0.0131842
-0.012794
-0.0134926
-0.0146533
-0.0150661
-0.0154397
-0.000815771
0.00237343
-0.00168773
-0.00284193
-0.00135413
-0.00210219
-0.00448151
-0.00609213
-0.00624117
-0.00816473
-0.0108046
-0.010253
-0.00980244
-0.0120216
-0.0133842
-0.0129804
-0.0133424
-0.0145604
-0.0152469
-0.015583
-0.000898139
0.00203634
-0.00163963
-0.00294695
-0.0016286
-0.00225933
-0.00454664
-0.00623461
-0.00637443
-0.00808306
-0.0107884
-0.0104696
-0.00980798
-0.0118616
-0.0135471
-0.0132235
-0.0132406
-0.0143994
-0.0153502
-0.0157531
-0.000988311
0.00170154
-0.00160546
-0.00305513
-0.00190573
-0.00241961
-0.00461398
-0.00637188
-0.00652118
-0.00801961
-0.0107523
-0.010684
-0.00985821
-0.0116888
-0.0136578
-0.0135111
-0.0132157
-0.0141963
-0.0153571
-0.0159036
-0.00108637
0.00136869
-0.00158505
-0.00316553
-0.00218647
-0.00258307
-0.00468254
-0.00650518
-0.00667938
-0.0079756
-0.0106992
-0.010889
-0.00995474
-0.0115201
-0.0136993
-0.0138175
-0.0132829
-0.0139947
-0.0152767
-0.0160022
-0.00119212
0.00103734
-0.00157886
-0.00327708
-0.00247204
-0.00275049
-0.00475106
-0.00663445
-0.00684925
-0.00795045
-0.0106306
-0.0110834
-0.010091
-0.0113665
-0.0136714
-0.014096
-0.0134249
-0.0138097
-0.0151284
-0.0160736
-0.00130539
0.000706965
-0.0015877
-0.00338701
-0.00276348
-0.0029233
-0.00481778
-0.00676062
-0.00702961
-0.00794555
-0.0105483
-0.0112599
-0.0102683
-0.0112346
-0.013576
-0.0143264
-0.0136242
-0.0136828
-0.0149525
-0.0161278
-0.00142583
0.000377331
-0.00161274
-0.00349288
-0.00306037
-0.00310461
-0.00488084
-0.00688238
-0.00722016
-0.00796367
-0.0104528
-0.0114111
-0.0104841
-0.0111314
-0.0134275
-0.0144997
-0.0138617
-0.0136242
-0.0147683
-0.016167
-0.00155285
4.79028e-05
-0.00165562
-0.00359144
-0.00336212
-0.00329877
-0.00493817
-0.00699619
-0.00742351
-0.00800478
-0.0103479
-0.0115381
-0.0107203
-0.0110723
-0.0132518
-0.0146135
-0.0141435
-0.0136934
-0.0146106
-0.016079
-0.00168634
-0.000281085
-0.001718
-0.00367902
-0.00366682
-0.00351082
-0.00499003
-0.00709916
-0.00763834
-0.00807325
-0.0102373
-0.0116294
-0.010971
-0.0110732
-0.0130513
-0.0146409
-0.0144167
-0.0138386
-0.0144928
-0.015997
-0.00182566
-0.000609616
-0.00180114
-0.00375524
-0.00397148
-0.00374614
-0.0050396
-0.00718336
-0.00786126
-0.00817635
-0.0101247
-0.0116804
-0.0112294
-0.0111377
-0.0128669
-0.0146025
-0.0146653
-0.0140643
-0.0144536
-0.0158549
-0.00197047
-0.000936991
-0.00190694
-0.00382138
-0.00427111
-0.00400919
-0.00509133
-0.00724017
-0.00808715
-0.00832056
-0.0100207
-0.0116847
-0.0114793
-0.0112724
-0.0127244
-0.0145046
-0.0148662
-0.0143402
-0.0144777
-0.0156772
-0.00212066
-0.00126193
-0.00203684
-0.00387999
-0.00455957
-0.00430038
-0.00515397
-0.00726606
-0.00830739
-0.00850813
-0.00993878
-0.0116443
-0.0117085
-0.0114633
-0.012631
-0.0143732
-0.0149994
-0.0146202
-0.0145635
-0.0155101
-0.00227586
-0.00158328
-0.00219133
-0.00393417
-0.00483107
-0.00461669
-0.005239
-0.0072635
-0.0085092
-0.00873379
-0.00989747
-0.0115706
-0.0118944
-0.0116859
-0.0126049
-0.0142392
-0.0150506
-0.0148664
-0.0147128
-0.0153831
-0.00243605
-0.00189927
-0.00237035
-0.00398941
-0.00508041
-0.00495317
-0.00535785
-0.00724099
-0.00867738
-0.00898507
-0.00991122
-0.0114766
-0.0120278
-0.0119246
-0.0126413
-0.0141116
-0.0150366
-0.0150607
-0.0149086
-0.0153207
-0.00260117
-0.0022085
-0.00257371
-0.00405134
-0.00530237
-0.00530232
-0.0055198
-0.00721159
-0.00880102
-0.0092451
-0.00998407
-0.0113857
-0.0121092
-0.0121497
-0.0127207
-0.0140154
-0.0149949
-0.0151863
-0.0151033
-0.0153394
-0.00277137
-0.0025098
-0.00280031
-0.00412535
-0.00549463
-0.0056546
-0.00572959
-0.0071926
-0.00887842
-0.00949437
-0.0101076
-0.0113202
-0.012147
-0.0123427
-0.0128339
-0.0139592
-0.0149413
-0.0152485
-0.0152595
-0.0154267
-0.00294709
-0.00280211
-0.00304793
-0.0042175
-0.0056575
-0.00599743
-0.00598816
-0.0072023
-0.00891376
-0.00971296
-0.0102682
-0.0112963
-0.0121579
-0.012497
-0.0129612
-0.0139335
-0.0148902
-0.015286
-0.0153664
-0.0155318
-0.00312879
-0.0030847
-0.00331396
-0.00433255
-0.00579279
-0.00631962
-0.00629048
-0.00725504
-0.00891633
-0.00988952
-0.0104511
-0.0113173
-0.0121574
-0.0126133
-0.0130884
-0.0139366
-0.0148461
-0.0153167
-0.0154361
-0.0156061
-0.00331723
-0.00335753
-0.00359302
-0.00447459
-0.00590626
-0.00661247
-0.00662531
-0.00736033
-0.00890459
-0.0100191
-0.0106359
-0.0113796
-0.0121627
-0.0126983
-0.0132074
-0.0139653
-0.0148026
-0.0153325
-0.0154974
-0.0156538
-0.00351296
-0.00362115
-0.00387898
-0.0046451
-0.00600916
-0.00686921
-0.00697322
-0.00752137
-0.00889951
-0.0101047
-0.0108052
-0.011476
-0.0121887
-0.0127592
-0.0133043
-0.0140116
-0.0147727
-0.0153318
-0.0155612
-0.0156932
-0.00371637
-0.00387662
-0.00416639
-0.00484193
-0.00611588
-0.00708867
-0.00731123
-0.00773256
-0.00892093
-0.0101565
-0.0109495
-0.011591
-0.0122382
-0.0128098
-0.0133759
-0.0140637
-0.0147703
-0.0153195
-0.0156058
-0.0157324
-0.00392769
-0.00412504
-0.00445162
-0.00506203
-0.00623552
-0.00727466
-0.00762514
-0.00798138
-0.00898175
-0.0101895
-0.0110652
-0.0117099
-0.0123078
-0.0128668
-0.0134348
-0.0141041
-0.0147828
-0.0153105
-0.0156282
-0.0157762
-0.00414685
-0.004368
-0.00473124
-0.00530056
-0.00637195
-0.00743595
-0.00790877
-0.00825037
-0.00908563
-0.0102189
-0.0111529
-0.0118262
-0.0123925
-0.0129314
-0.0134918
-0.0141305
-0.0147914
-0.015316
-0.0156424
-0.0158122
-0.00437333
-0.00460741
-0.0050029
-0.00555162
-0.00652697
-0.0075832
-0.00816111
-0.00852251
-0.00922787
-0.0102604
-0.0112174
-0.0119313
-0.0124876
-0.0129998
-0.0135498
-0.0141583
-0.0147892
-0.0153226
-0.0156572
-0.0158359
-0.00460613
-0.00484487
-0.00526581
-0.00580934
-0.0067004
-0.00772498
-0.00838478
-0.00878569
-0.00939872
-0.0103247
-0.0112692
-0.012017
-0.0125864
-0.0130762
-0.0136054
-0.0141925
-0.0147833
-0.0153161
-0.0156725
-0.0158567
-0.00484415
-0.00508193
-0.00551963
-0.00606845
-0.00689039
-0.00786795
-0.00858345
-0.00903293
-0.00958699
-0.010413
-0.0113213
-0.0120861
-0.0126784
-0.0131618
-0.0136594
-0.0142258
-0.0147856
-0.0153004
-0.0156813
-0.015876
-0.00508576
-0.00531907
-0.0057652
-0.00632466
-0.00709331
-0.00801647
-0.00876258
-0.00926089
-0.00978381
-0.010522
-0.0113783
-0.0121445
-0.0127561
-0.0132489
-0.0137214
-0.0142575
-0.0147966
-0.0152854
-0.0156768
-0.0158899
-0.00532945
-0.00555639
-0.00600342
-0.00657523
-0.00730527
-0.00817224
-0.0089282
-0.00946852
-0.00998111
-0.0106494
-0.0114422
-0.0121962
-0.0128219
-0.0133276
-0.0137913
-0.0142942
-0.0148102
-0.0152752
-0.0156616
-0.0158972
-0.00557342
-0.00579373
-0.00623529
-0.00681772
-0.00752218
-0.00833648
-0.00908518
-0.00965625
-0.0101707
-0.0107894
-0.0115174
-0.0122446
-0.0128792
-0.0133945
-0.0138562
-0.014337
-0.0148279
-0.0152728
-0.0156437
-0.0158931
-0.00581581
-0.00603018
-0.00646227
-0.00705074
-0.00773912
-0.0085084
-0.00923861
-0.00982679
-0.010348
-0.010934
-0.0116051
-0.0122939
-0.0129276
-0.0134517
-0.0139097
-0.0143771
-0.0148498
-0.0152784
-0.015631
-0.015879
-0.0060549
-0.00626467
-0.00668459
-0.00727456
-0.00795291
-0.00868457
-0.00939047
-0.00998487
-0.0105129
-0.0110764
-0.0117013
-0.0123483
-0.0129665
-0.013498
-0.0139536
-0.0144067
-0.0148678
-0.0152857
-0.0156246
-0.015863
-0.00628909
-0.00649532
-0.00690235
-0.00748846
-0.00816139
-0.00886371
-0.00954059
-0.0101319
-0.0106667
-0.0112128
-0.0117998
-0.0124104
-0.0130012
-0.0135307
-0.0139889
-0.0144251
-0.014873
-0.0152856
-0.0156186
-0.0158498
-0.00651657
-0.00672103
-0.00711524
-0.00769282
-0.00836068
-0.00904264
-0.00969168
-0.01027
-0.0108084
-0.0113424
-0.0118953
-0.0124755
-0.0130375
-0.0135503
-0.0140117
-0.0144362
-0.0148638
-0.0152694
-0.0156017
-0.0158316
-0.0067358
-0.00693823
-0.00732259
-0.00788878
-0.00854982
-0.00921561
-0.00984269
-0.0104047
-0.010938
-0.011463
-0.0119883
-0.0125352
-0.013072
-0.0135615
-0.0140168
-0.0144381
-0.0148441
-0.0152357
-0.0155641
-0.0157953
-0.00694519
-0.00714548
-0.00752163
-0.00807581
-0.00872986
-0.00938232
-0.00998812
-0.0105368
-0.0110605
-0.011571
-0.0120765
-0.0125888
-0.013096
-0.0135639
-0.0140011
-0.0144214
-0.0148142
-0.0151869
-0.0155057
-0.0157342
-0.00714362
-0.00734142
-0.00771035
-0.00825222
-0.00889771
-0.00954161
-0.0101313
-0.0106656
-0.0111803
-0.0116711
-0.012155
-0.0126324
-0.0131002
-0.0135486
-0.0139648
-0.0143795
-0.0147738
-0.0151364
-0.0154489
-0.0156725
-0.0073262
-0.00752223
-0.00788681
-0.00841878
-0.00905247
-0.0096873
-0.0102702
-0.0107994
-0.0113063
-0.0117774
-0.0122224
-0.0126436
-0.0130433
-0.0134388
-0.0138059
-0.0141869
-0.0145936
-0.015001
-0.0153884
-0.015702
-0.00749095
-0.00768755
-0.00805197
-0.00857346
-0.00919504
-0.00981922
-0.0103972
-0.0109388
-0.0114752
-0.0119874
-0.0124528
-0.0128227
-0.0131148
-0.013416
-0.0136952
-0.0139397
-0.0141586
-0.0143227
-0.0144444
-0.0145491
-0.00763495
-0.00782293
-0.00817609
-0.00868698
-0.00930297
-0.00992512
-0.0104924
-0.0110043
-0.0114852
-0.0119125
-0.012307
-0.0126859
-0.0130122
-0.013339
-0.0136813
-0.014024
-0.014415
-0.0148439
-0.0152764
-0.015654
-0.00780327
-0.00800568
-0.00832287
-0.00879355
-0.0093812
-0.00998269
-0.0105406
-0.0110417
-0.0115123
-0.0119542
-0.0123576
-0.0127508
-0.0131039
-0.0133888
-0.0136436
-0.0138394
-0.0139849
-0.0141058
-0.0142242
-0.0143831
-0.00781946
-0.0080211
-0.00840291
-0.00891888
-0.00953055
-0.0101248
-0.0106602
-0.0111361
-0.0115695
-0.0119901
-0.0123839
-0.0127424
-0.0130683
-0.0133266
-0.0135431
-0.0137354
-0.0139132
-0.0141108
-0.0143365
-0.0146187
-0.00872452
-0.013293
-0.0199114
-0.0253181
-0.0267194
-0.0256421
-0.0243365
-0.0234692
-0.0230574
-0.0228742
-0.02261
-0.0221311
-0.0216383
-0.021486
-0.0216825
-0.0219292
-0.0220941
-0.0221071
-0.0219348
-0.0218156
-0.0218569
-0.0218836
-0.0218747
-0.0219587
-0.0221118
-0.0222215
-0.0223193
-0.0224461
-0.0225521
-0.0226121
-0.0226742
-0.0227585
-0.0228447
-0.0229615
-0.0231243
-0.0232969
-0.0234285
-0.0235302
-0.0236885
-0.0238688
-0.0239842
-0.0241117
-0.0243799
-0.024754
-0.0251319
-0.0255326
-0.0259135
-0.0261121
-0.026132
-0.026143
-0.0263007
-0.0265203
-0.0266719
-0.0269067
-0.0273145
-0.0277146
-0.027997
-0.0282031
-0.0284194
-0.028689
-0.0290093
-0.0293185
-0.0296103
-0.0298876
-0.0301595
-0.0304696
-0.0308024
-0.0311054
-0.0314069
-0.0317124
-0.0320224
-0.032347
-0.0326779
-0.0330154
-0.0333332
-0.0336795
-0.0340147
-0.0343838
-0.0347192
-0.0350534
-0.0353969
-0.0357963
-0.0361962
-0.03658
-0.0369784
-0.0373494
-0.0377703
-0.0381424
-0.0385928
-0.0390402
-0.0394602
-0.0399268
-0.040371
-0.04083
-0.0412967
-0.0417251
-0.04222
-0.0426894
-0.0432529
-0.0438847
-0.00915225
-0.0133953
-0.0198112
-0.0251566
-0.0266238
-0.0255958
-0.0243083
-0.0234513
-0.0230454
-0.0228657
-0.0226034
-0.0221251
-0.0216319
-0.0214794
-0.0216767
-0.0219243
-0.0220902
-0.0221041
-0.0219319
-0.0218126
-0.0218544
-0.0218816
-0.0218728
-0.0219568
-0.0221103
-0.0222201
-0.022318
-0.0224448
-0.0225509
-0.0226109
-0.022673
-0.0227574
-0.0228435
-0.0229603
-0.0231232
-0.0232958
-0.0234275
-0.0235292
-0.0236875
-0.0238679
-0.0239834
-0.0241108
-0.024379
-0.0247532
-0.0251311
-0.0255318
-0.0259129
-0.0261117
-0.0261315
-0.0261424
-0.0263001
-0.0265199
-0.0266715
-0.0269061
-0.0273141
-0.0277143
-0.0279967
-0.0282028
-0.028419
-0.0286887
-0.029009
-0.0293182
-0.0296101
-0.0298873
-0.0301593
-0.0304693
-0.0308022
-0.0311052
-0.0314067
-0.0317122
-0.0320222
-0.0323468
-0.0326777
-0.0330152
-0.033333
-0.0336793
-0.0340145
-0.0343837
-0.034719
-0.0350533
-0.0353968
-0.0357962
-0.0361961
-0.0365799
-0.0369782
-0.0373493
-0.0377702
-0.0381423
-0.0385926
-0.0390401
-0.0394601
-0.0399267
-0.0403709
-0.0408299
-0.0412966
-0.041725
-0.0422199
-0.0426893
-0.0432528
-0.0438847
-0.00963436
-0.0135653
-0.019663
-0.0248747
-0.0264649
-0.0255412
-0.0242795
-0.0234275
-0.0230271
-0.0228526
-0.0225941
-0.0221184
-0.0216266
-0.0214745
-0.0216718
-0.0219195
-0.0220859
-0.0221008
-0.021929
-0.0218098
-0.021852
-0.0218795
-0.0218708
-0.0219551
-0.0221089
-0.0222189
-0.0223168
-0.0224438
-0.0225499
-0.02261
-0.022672
-0.0227565
-0.0228426
-0.0229593
-0.0231223
-0.023295
-0.0234267
-0.0235284
-0.0236867
-0.0238673
-0.0239827
-0.0241099
-0.0243782
-0.0247525
-0.0251305
-0.0255312
-0.0259126
-0.0261114
-0.0261311
-0.0261418
-0.0262997
-0.0265196
-0.0266711
-0.0269056
-0.0273137
-0.027714
-0.0279965
-0.0282025
-0.0284187
-0.0286884
-0.0290088
-0.029318
-0.0296099
-0.0298871
-0.0301591
-0.0304691
-0.030802
-0.031105
-0.0314066
-0.031712
-0.032022
-0.0323467
-0.0326776
-0.033015
-0.0333329
-0.0336792
-0.0340144
-0.0343836
-0.0347189
-0.0350531
-0.0353966
-0.035796
-0.036196
-0.0365798
-0.0369781
-0.0373492
-0.0377701
-0.0381422
-0.0385925
-0.03904
-0.03946
-0.0399266
-0.0403708
-0.0408298
-0.0412966
-0.0417249
-0.0422198
-0.0426893
-0.0432527
-0.0438849
-0.0100971
-0.0137363
-0.0194765
-0.0245144
-0.026241
-0.0254586
-0.0242327
-0.023388
-0.0229962
-0.0228293
-0.022577
-0.0221079
-0.0216215
-0.021471
-0.0216668
-0.0219126
-0.0220789
-0.0220955
-0.0219252
-0.0218063
-0.0218485
-0.0218761
-0.0218678
-0.0219527
-0.0221069
-0.0222171
-0.0223154
-0.0224428
-0.0225489
-0.022609
-0.022671
-0.0227556
-0.0228417
-0.0229585
-0.0231214
-0.0232941
-0.0234259
-0.0235275
-0.0236858
-0.0238665
-0.0239818
-0.0241089
-0.0243773
-0.0247518
-0.0251298
-0.0255307
-0.0259123
-0.0261112
-0.0261306
-0.0261411
-0.0262991
-0.0265192
-0.0266706
-0.026905
-0.0273133
-0.0277138
-0.0279963
-0.0282022
-0.0284184
-0.0286881
-0.0290085
-0.0293178
-0.0296097
-0.0298869
-0.0301588
-0.0304689
-0.0308018
-0.0311048
-0.0314064
-0.0317118
-0.0320219
-0.0323465
-0.0326774
-0.0330149
-0.0333328
-0.0336791
-0.0340143
-0.0343834
-0.0347188
-0.035053
-0.0353965
-0.0357959
-0.0361959
-0.0365797
-0.036978
-0.0373491
-0.03777
-0.0381421
-0.0385924
-0.0390399
-0.0394599
-0.0399265
-0.0403707
-0.0408297
-0.0412965
-0.0417248
-0.0422197
-0.0426892
-0.0432525
-0.0438852
-0.0105452
-0.0139006
-0.0192733
-0.0241314
-0.0259901
-0.0253612
-0.0241765
-0.0233378
-0.022954
-0.0227952
-0.0225503
-0.0220917
-0.0216157
-0.0214691
-0.0216617
-0.0219027
-0.0220675
-0.0220868
-0.0219201
-0.0218025
-0.0218439
-0.0218712
-0.0218636
-0.0219491
-0.0221036
-0.0222142
-0.0223133
-0.0224413
-0.0225477
-0.0226078
-0.0226699
-0.0227547
-0.022841
-0.0229578
-0.0231206
-0.0232932
-0.0234251
-0.0235268
-0.023685
-0.0238656
-0.0239808
-0.0241078
-0.0243762
-0.024751
-0.025129
-0.02553
-0.0259121
-0.026111
-0.02613
-0.0261403
-0.0262985
-0.0265188
-0.02667
-0.0269042
-0.0273128
-0.0277136
-0.027996
-0.0282018
-0.028418
-0.0286877
-0.0290082
-0.0293175
-0.0296094
-0.0298867
-0.0301586
-0.0304687
-0.0308016
-0.0311047
-0.0314062
-0.0317117
-0.0320217
-0.0323463
-0.0326773
-0.0330148
-0.0333326
-0.0336789
-0.0340141
-0.0343833
-0.0347187
-0.0350529
-0.0353963
-0.0357958
-0.0361958
-0.0365795
-0.0369779
-0.037349
-0.0377699
-0.038142
-0.0385923
-0.0390399
-0.0394598
-0.0399264
-0.0403707
-0.0408296
-0.0412964
-0.0417247
-0.0422196
-0.0426891
-0.0432523
-0.0438857
-0.0109745
-0.01406
-0.0190761
-0.023749
-0.0257265
-0.0252561
-0.0241178
-0.0232836
-0.0229058
-0.0227538
-0.022516
-0.0220704
-0.0216091
-0.0214685
-0.0216565
-0.0218898
-0.0220513
-0.0220741
-0.0219137
-0.0217984
-0.0218384
-0.021865
-0.0218583
-0.0219444
-0.0220987
-0.0222097
-0.0223099
-0.0224391
-0.022546
-0.0226063
-0.0226685
-0.0227535
-0.0228403
-0.0229573
-0.0231199
-0.0232922
-0.0234244
-0.0235263
-0.0236844
-0.0238646
-0.0239796
-0.0241064
-0.024375
-0.0247499
-0.0251279
-0.0255292
-0.0259119
-0.0261107
-0.0261292
-0.0261393
-0.0262978
-0.0265184
-0.0266692
-0.0269033
-0.0273123
-0.0277134
-0.0279957
-0.0282014
-0.0284175
-0.0286872
-0.0290078
-0.0293172
-0.0296091
-0.0298864
-0.0301583
-0.0304684
-0.0308014
-0.0311044
-0.031406
-0.0317115
-0.0320215
-0.0323462
-0.0326771
-0.0330146
-0.0333324
-0.0336787
-0.0340139
-0.0343832
-0.0347186
-0.0350527
-0.0353962
-0.0357956
-0.0361956
-0.0365794
-0.0369778
-0.0373488
-0.0377698
-0.0381418
-0.0385922
-0.0390398
-0.0394597
-0.0399263
-0.0403706
-0.0408295
-0.0412963
-0.0417247
-0.0422195
-0.042689
-0.0432521
-0.0438863
-0.0113825
-0.0142228
-0.0188958
-0.0233717
-0.0254496
-0.025142
-0.0240569
-0.0232271
-0.0228538
-0.0227079
-0.0224769
-0.0220456
-0.0216017
-0.0214684
-0.021651
-0.0218747
-0.0220314
-0.022058
-0.0219056
-0.0217941
-0.0218326
-0.0218583
-0.0218528
-0.0219392
-0.0220926
-0.0222036
-0.0223052
-0.0224355
-0.0225432
-0.0226041
-0.0226668
-0.0227521
-0.0228395
-0.022957
-0.0231191
-0.023291
-0.0234237
-0.0235264
-0.0236842
-0.0238637
-0.0239783
-0.0241051
-0.0243737
-0.0247485
-0.0251264
-0.0255281
-0.0259115
-0.0261103
-0.0261283
-0.0261383
-0.0262971
-0.0265178
-0.0266683
-0.0269023
-0.0273116
-0.027713
-0.0279953
-0.0282009
-0.0284169
-0.0286866
-0.0290074
-0.0293168
-0.0296088
-0.029886
-0.0301579
-0.0304681
-0.0308011
-0.0311042
-0.0314057
-0.0317112
-0.0320212
-0.0323459
-0.0326769
-0.0330144
-0.0333322
-0.0336786
-0.0340138
-0.034383
-0.0347184
-0.0350526
-0.035396
-0.0357954
-0.0361955
-0.0365793
-0.0369777
-0.0373487
-0.0377697
-0.0381417
-0.038592
-0.0390397
-0.0394596
-0.0399262
-0.0403705
-0.0408294
-0.0412963
-0.0417246
-0.0422193
-0.0426889
-0.0432518
-0.043887
-0.0117711
-0.0143922
-0.0187345
-0.022998
-0.0251562
-0.0250155
-0.0239928
-0.0231686
-0.0227986
-0.0226587
-0.0224346
-0.0220181
-0.0215929
-0.021468
-0.0216451
-0.0218585
-0.0220095
-0.0220397
-0.0218961
-0.0217892
-0.0218265
-0.0218516
-0.0218476
-0.021934
-0.022086
-0.0221967
-0.0222994
-0.0224308
-0.0225392
-0.0226011
-0.0226644
-0.0227503
-0.0228385
-0.0229566
-0.0231181
-0.0232894
-0.0234229
-0.0235268
-0.0236844
-0.023863
-0.0239772
-0.0241041
-0.0243725
-0.0247469
-0.0251244
-0.0255265
-0.0259106
-0.0261094
-0.0261272
-0.0261372
-0.0262965
-0.0265173
-0.0266673
-0.0269012
-0.0273108
-0.0277125
-0.0279948
-0.0282002
-0.0284162
-0.0286859
-0.0290068
-0.0293163
-0.0296083
-0.0298855
-0.0301574
-0.0304676
-0.0308008
-0.0311038
-0.0314055
-0.0317109
-0.032021
-0.0323457
-0.0326767
-0.0330142
-0.033332
-0.0336784
-0.0340136
-0.0343828
-0.0347183
-0.0350524
-0.0353958
-0.0357953
-0.0361954
-0.0365791
-0.0369776
-0.0373485
-0.0377696
-0.0381416
-0.0385919
-0.0390396
-0.0394594
-0.0399261
-0.0403704
-0.0408293
-0.0412962
-0.0417245
-0.0422192
-0.0426888
-0.0432516
-0.0438878
-0.0121389
-0.0145647
-0.0185903
-0.0226286
-0.0248458
-0.0248747
-0.0239252
-0.0231089
-0.022741
-0.0226068
-0.0223899
-0.0219885
-0.0215826
-0.0214668
-0.0216387
-0.0218417
-0.0219865
-0.02202
-0.0218856
-0.0217838
-0.0218203
-0.021845
-0.0218426
-0.021929
-0.0220793
-0.0221894
-0.0222931
-0.0224252
-0.0225342
-0.022597
-0.0226613
-0.0227481
-0.0228376
-0.022956
-0.0231167
-0.0232872
-0.0234217
-0.0235273
-0.0236849
-0.0238625
-0.0239766
-0.0241036
-0.0243718
-0.0247454
-0.0251222
-0.0255245
-0.025909
-0.0261077
-0.0261253
-0.026136
-0.0262961
-0.026517
-0.0266664
-0.0269001
-0.02731
-0.0277117
-0.0279941
-0.0281994
-0.0284153
-0.0286851
-0.029006
-0.0293156
-0.0296076
-0.0298848
-0.0301568
-0.0304671
-0.0308003
-0.0311034
-0.0314051
-0.0317106
-0.0320206
-0.0323454
-0.0326764
-0.033014
-0.0333318
-0.0336782
-0.0340133
-0.0343826
-0.0347181
-0.0350522
-0.0353956
-0.0357951
-0.0361952
-0.036579
-0.0369774
-0.0373484
-0.0377694
-0.0381414
-0.0385917
-0.0390395
-0.0394593
-0.039926
-0.0403703
-0.0408292
-0.0412961
-0.0417245
-0.042219
-0.0426888
-0.0432514
-0.0438887
-0.0124822
-0.0147343
-0.0184618
-0.0222671
-0.0245216
-0.0247196
-0.023854
-0.0230491
-0.022682
-0.0225529
-0.0223436
-0.0219575
-0.0215712
-0.0214646
-0.0216317
-0.0218243
-0.0219627
-0.0219993
-0.0218741
-0.021778
-0.021814
-0.0218384
-0.0218377
-0.0219241
-0.0220725
-0.0221821
-0.0222867
-0.0224193
-0.0225285
-0.0225921
-0.0226574
-0.0227456
-0.0228366
-0.0229555
-0.0231149
-0.0232844
-0.0234201
-0.0235276
-0.0236854
-0.0238623
-0.0239765
-0.024104
-0.0243719
-0.0247446
-0.0251204
-0.0255224
-0.0259071
-0.0261049
-0.0261223
-0.0261342
-0.0262957
-0.0265171
-0.0266659
-0.0268992
-0.0273091
-0.0277109
-0.0279932
-0.0281984
-0.0284143
-0.0286842
-0.0290051
-0.0293148
-0.0296068
-0.0298839
-0.030156
-0.0304664
-0.0307996
-0.0311028
-0.0314046
-0.0317101
-0.0320201
-0.032345
-0.032676
-0.0330137
-0.0333315
-0.0336779
-0.0340131
-0.0343824
-0.034718
-0.0350521
-0.0353954
-0.0357949
-0.0361951
-0.0365788
-0.0369773
-0.0373482
-0.0377692
-0.0381412
-0.0385915
-0.0390393
-0.0394591
-0.0399258
-0.0403702
-0.0408291
-0.041296
-0.0417245
-0.0422188
-0.0426887
-0.0432513
-0.0438898
-0.0127989
-0.0148967
-0.0183477
-0.0219183
-0.0241888
-0.024551
-0.02378
-0.0229903