/*--------------------------------*- C++ -*----------------------------------*\
| =========                 |                                                 |
| \\      /  F ield         | OpenFOAM: The Open Source CFD Toolbox           |
|  \\    /   O peration     | Version:  v1912                                 |
|   \\  /    A nd           | Website:  www.openfoam.com                      |
|    \\/     M anipulation  |                                                 |
\*---------------------------------------------------------------------------*/
FoamFile
{
    version     2.0;
    format      ascii;
    class       volVectorField;
    location    "6.3";
    object      U;
}
// * * * * * * * * * * * * * * * * * * * * * * * * * * * * * * * * * * * * * //

dimensions      [0 1 -1 0 0 0 0];


internalField   nonuniform List<vector> 
9600
(
(0.821687 0.00126936 0)
(1.24854 0.000439672 0)
(0.48699 -0.012802 0)
(1.49421 0.0291995 0)
(0.662302 -0.0134255 0)
(1.16334 0.00167414 0)
(0.857656 0.0168231 0)
(1.23098 0.0153513 0)
(0.677577 0.0257999 0)
(1.34968 0.014665 0)
(0.693435 -0.00114747 0)
(1.27356 0.0231662 0)
(0.77934 0.00977456 0)
(1.18536 0.0134862 0)
(0.794504 -0.00169773 0)
(1.18991 0.00351398 0)
(0.855283 -0.00352857 0)
(1.18359 0.00798283 0)
(0.873843 0.0035266 0)
(1.15446 0.0103342 0)
(0.826462 0.000598145 0)
(1.24511 0.00412918 0)
(0.494303 -0.0156779 0)
(1.48539 0.0277582 0)
(0.716376 -0.0104871 0)
(1.17208 2.94656e-05 0)
(0.863441 0.0155614 0)
(1.23149 0.0176843 0)
(0.682494 0.0241199 0)
(1.34042 0.015057 0)
(0.72185 -0.000533427 0)
(1.25702 0.0225313 0)
(0.826813 0.0109878 0)
(1.15548 0.0137382 0)
(0.862632 -0.00213209 0)
(1.14179 0.00216666 0)
(0.939134 -0.00344433 0)
(1.11061 0.00684464 0)
(0.987996 0.0055096 0)
(1.04005 0.00859896 0)
(0.836688 0.000119608 0)
(1.23837 0.00620888 0)
(0.51434 -0.0177971 0)
(1.46735 0.0265518 0)
(0.785972 -0.00829131 0)
(1.17861 -0.000953355 0)
(0.879055 0.0145648 0)
(1.23064 0.0203341 0)
(0.708304 0.0219783 0)
(1.31752 0.0150025 0)
(0.790865 3.78529e-05 0)
(1.21298 0.0213661 0)
(0.907973 0.0125315 0)
(1.10677 0.0131977 0)
(0.943412 -0.00197367 0)
(1.08325 0.000527401 0)
(1.00781 -0.00264181 0)
(1.06015 0.00582153 0)
(1.0324 0.00696155 0)
(1.02352 0.00870337 0)
(0.852728 -0.00044173 0)
(1.22683 0.00860913 0)
(0.550954 -0.0198708 0)
(1.43694 0.0248011 0)
(0.86701 -0.00615945 0)
(1.17357 -0.00133954 0)
(0.907202 0.013896 0)
(1.22285 0.022542 0)
(0.767357 0.0204589 0)
(1.277 0.0141032 0)
(0.884777 0.00139534 0)
(1.15118 0.019869 0)
(0.983192 0.014035 0)
(1.06791 0.0126973 0)
(0.993974 -0.00148569 0)
(1.04604 -0.00071749 0)
(1.032 -0.00226875 0)
(1.04365 0.00537449 0)
(1.03842 0.00767843 0)
(1.0285 0.00944456 0)
(0.874185 -0.0010577 0)
(1.20886 0.0109094 0)
(0.607149 -0.0218256 0)
(1.39172 0.0223356 0)
(0.94815 -0.00406927 0)
(1.15278 -0.00128586 0)
(0.944739 0.0131898 0)
(1.20282 0.0242467 0)
(0.854397 0.0196413 0)
(1.22474 0.0126563 0)
(0.970471 0.00322773 0)
(1.09613 0.0185853 0)
(1.03015 0.0151109 0)
(1.05197 0.0127462 0)
(1.01608 -0.000902307 0)
(1.02862 -0.00149608 0)
(1.03165 -0.00229753 0)
(1.03703 0.00514628 0)
(1.03759 0.00813139 0)
(1.03097 0.0101931 0)
(0.899429 -0.00170113 0)
(1.18349 0.0129422 0)
(0.680047 -0.0235162 0)
(1.3325 0.0194981 0)
(1.01525 -0.0020257 0)
(1.1195 -0.00093167 0)
(0.982526 0.0124537 0)
(1.17054 0.0252747 0)
(0.94649 0.0193534 0)
(1.1728 0.0112697 0)
(1.02456 0.00510524 0)
(1.06332 0.0178871 0)
(1.05161 0.0156369 0)
(1.05096 0.0131731 0)
(1.02516 -0.000118246 0)
(1.02028 -0.00182902 0)
(1.02316 -0.00243365 0)
(1.02925 0.00478742 0)
(1.03473 0.00832241 0)
(1.03249 0.0108061 0)
(0.925571 -0.00233052 0)
(1.15157 0.0145928 0)
(0.759931 -0.0248357 0)
(1.26422 0.0165833 0)
(1.05817 -0.000116913 0)
(1.08238 -0.000380786 0)
(1.01033 0.0117888 0)
(1.13225 0.0254954 0)
(1.0194 0.0193412 0)
(1.12922 0.0105155 0)
(1.04465 0.00670639 0)
(1.04916 0.0176072 0)
(1.05783 0.0157729 0)
(1.05268 0.0137072 0)
(1.02927 0.000947092 0)
(1.01543 -0.00173623 0)
(1.01325 -0.00251201 0)
(1.01926 0.00422246 0)
(1.02877 0.00813245 0)
(1.03207 0.0110782 0)
(0.949129 -0.00289234 0)
(1.11659 0.0157948 0)
(0.834753 -0.0257401 0)
(1.19403 0.0138869 0)
(1.07493 0.00157208 0)
(1.05015 0.000218737 0)
(1.02308 0.0112102 0)
(1.09568 0.0250255 0)
(1.06085 0.0194214 0)
(1.09501 0.0105503 0)
(1.04207 0.00789624 0)
(1.04192 0.0173905 0)
(1.05526 0.0157106 0)
(1.05065 0.0142172 0)
(1.02998 0.0021669 0)
(1.01224 -0.00128969 0)
(1.00484 -0.00240783 0)
(1.00881 0.00358161 0)
(1.01986 0.00757789 0)
(1.02763 0.0109082 0)
(0.967293 -0.00334195 0)
(1.08372 0.016545 0)
(0.895969 -0.0262393 0)
(1.12878 0.0116675 0)
(1.07101 0.00294712 0)
(1.02719 0.00080354 0)
(1.0228 0.0107101 0)
(1.06536 0.0241507 0)
(1.07201 0.019519 0)
(1.06831 0.0111512 0)
(1.03071 0.0086977 0)
(1.03409 0.0170546 0)
(1.04698 0.0155734 0)
(1.04394 0.0146246 0)
(1.02769 0.00337762 0)
(1.01003 -0.000626373 0)
(0.999327 -0.00208762 0)
(1.0001 0.00302575 0)
(1.0099 0.00684289 0)
(1.01935 0.0103996 0)
(0.979045 -0.00366389 0)
(1.05742 0.0168979 0)
(0.940773 -0.0263693 0)
(1.07395 0.0100279 0)
(1.05563 0.00392204 0)
(1.01318 0.001337 0)
(1.01536 0.0103109 0)
(1.04211 0.0231632 0)
(1.06241 0.0196165 0)
(1.04785 0.011945 0)
(1.02001 0.00922958 0)
(1.02464 0.0166515 0)
(1.03575 0.0154224 0)
(1.0345 0.0148719 0)
(1.02349 0.00444502 0)
(1.00859 0.000107942 0)
(0.99686 -0.00160045 0)
(0.994607 0.00267673 0)
(1.00139 0.00617971 0)
(1.00974 0.0097628 0)
(0.985304 -0.00386917 0)
(1.0394 0.0169328 0)
(0.97063 -0.0261734 0)
(1.03299 0.00892521 0)
(1.03759 0.00448524 0)
(1.00535 0.00177446 0)
(1.00621 0.0100388 0)
(1.02506 0.0222631 0)
(1.044 0.0196976 0)
(1.0332 0.0126114 0)
(1.01345 0.00962061 0)
(1.01554 0.016314 0)
(1.02452 0.0152736 0)
(1.02487 0.0149427 0)
(1.01882 0.00528182 0)
(1.00786 0.000783481 0)
(0.996832 -0.00103309 0)
(0.992546 0.00258562 0)
(0.996152 0.0057501 0)
(1.0018 0.00917421 0)
(0.988094 -0.00398371 0)
(1.02843 0.0167337 0)
(0.9889 -0.0257166 0)
(1.0066 0.00823791 0)
(1.02257 0.00470321 0)
(1.00079 0.00211357 0)
(0.998433 0.00989168 0)
(1.01325 0.0215203 0)
(1.02641 0.0197366 0)
(1.02391 0.0129967 0)
(1.01063 0.00995559 0)
(1.00851 0.0161236 0)
(1.01543 0.0151373 0)
(1.01692 0.014855 0)
(1.01484 0.00586862 0)
(1.00777 0.00132138 0)
(0.998382 -0.000446914 0)
(0.993221 0.00269816 0)
(0.994526 0.00555409 0)
(0.997313 0.00872991 0)
(0.989434 -0.00403517 0)
(1.02188 0.0163781 0)
(0.999158 -0.0250834 0)
(0.992637 0.00782568 0)
(1.01245 0.00470665 0)
(0.997545 0.00237827 0)
(0.993041 0.00983452 0)
(1.00589 0.0209006 0)
(1.01455 0.0197149 0)
(1.01901 0.0131085 0)
(1.00996 0.0102818 0)
(1.00413 0.0160911 0)
(1.00937 0.0150176 0)
(1.01146 0.0146481 0)
(1.01213 0.00623243 0)
(1.00818 0.00172041 0)
(1.00069 9.03244e-05 0)
(0.995537 0.00290143 0)
(0.995672 0.00552907 0)
(0.996354 0.00848112 0)
(0.990612 -0.00404284 0)
(1.0173 0.0159284 0)
(1.00436 -0.0243569 0)
(0.987274 0.00757014 0)
(1.00648 0.00464101 0)
(0.994782 0.00259791 0)
(0.989958 0.00981522 0)
(1.00207 0.0203297 0)
(1.0088 0.0196307 0)
(1.01706 0.0130443 0)
(1.01016 0.0106188 0)
(1.00208 0.0161824 0)
(1.00628 0.0149114 0)
(1.00844 0.0143681 0)
(1.0107 0.00643377 0)
(1.00887 0.00199858 0)
(1.00311 0.000539935 0)
(0.998429 0.00311716 0)
(0.998259 0.0056315 0)
(0.997816 0.0084194 0)
(0.992045 -0.00401719 0)
(1.01343 0.0154295 0)
(1.00657 -0.0236036 0)
(0.986623 0.00739687 0)
(1.00312 0.00458579 0)
(0.992428 0.00278612 0)
(0.988721 0.0097877 0)
(1.00068 0.0197463 0)
(1.00715 0.0194997 0)
(1.01663 0.0129073 0)
(1.0106 0.0109633 0)
(1.0017 0.016349 0)
(1.00554 0.0148112 0)
(1.0074 0.0140635 0)
(1.01024 0.00653656 0)
(1.0096 0.00217051 0)
(1.00517 0.000915285 0)
(1.0011 0.00331161 0)
(1.0011 0.00580472 0)
(1.00032 0.00846713 0)
(0.993578 -0.00396404 0)
(1.01007 0.0149105 0)
(1.0071 -0.0228616 0)
(0.98781 0.00726397 0)
(1.00117 0.00457822 0)
(0.99073 0.00294558 0)
(0.988767 0.00972756 0)
(1.00053 0.0191276 0)
(1.00727 0.019343 0)
(1.01658 0.0127612 0)
(1.01099 0.011301 0)
(1.0023 0.0165427 0)
(1.0063 0.0147108 0)
(1.00768 0.0137672 0)
(1.0104 0.00659569 0)
(1.0102 0.00228153 0)
(1.00667 0.00123956 0)
(1.00312 0.00346381 0)
(1.00347 0.00597441 0)
(1.00282 0.0085531 0)
(0.994941 -0.00388891 0)
(1.00746 0.0143872 0)
(1.00671 -0.0221415 0)
(0.989243 0.00714503 0)
(1.00007 0.00462407 0)
(0.989855 0.00307563 0)
(0.989542 0.00963602 0)
(1.00067 0.0184803 0)
(1.00771 0.0191775 0)
(1.01628 0.0126311 0)
(1.01115 0.0116075 0)
(1.00328 0.0167276 0)
(1.00774 0.0145999 0)
(1.00867 0.0135009 0)
(1.01092 0.00665513 0)
(1.01065 0.00236412 0)
(1.0076 0.00154004 0)
(1.0044 0.00356682 0)
(1.00506 0.00609484 0)
(1.00478 0.0086497 0)
(0.996042 -0.00379823 0)
(1.00567 0.0138673 0)
(1.00588 -0.0214365 0)
(0.990313 0.00701912 0)
(0.999555 0.00471117 0)
(0.989723 0.00317754 0)
(0.990625 0.00952927 0)
(1.00064 0.0178199 0)
(1.0079 0.0190107 0)
(1.01551 0.012525 0)
(1.01095 0.0118558 0)
(1.00424 0.0168857 0)
(1.00926 0.0144685 0)
(1.00989 0.0132646 0)
(1.01161 0.00674548 0)
(1.01103 0.00244178 0)
(1.00812 0.00183769 0)
(1.00507 0.00364616 0)
(1.00593 0.00615979 0)
(1.00604 0.00874315 0)
(0.996944 -0.00369802 0)
(1.0045 0.0133544 0)
(1.00488 -0.0207343 0)
(0.990935 0.00687066 0)
(0.999388 0.00481939 0)
(0.990071 0.00325431 0)
(0.991814 0.00942226 0)
(1.00041 0.0171617 0)
(1.00774 0.0188461 0)
(1.01432 0.0124467 0)
(1.01033 0.0120318 0)
(1.00497 0.0170033 0)
(1.01058 0.0143112 0)
(1.01112 0.0130413 0)
(1.01237 0.00688652 0)
(1.01143 0.00253713 0)
(1.00839 0.00215052 0)
(1.00533 0.00374179 0)
(1.00623 0.00617334 0)
(1.00665 0.00881904 0)
(0.997693 -0.00359294 0)
(1.00378 0.0128507 0)
(1.00384 -0.0200255 0)
(0.991187 0.00669332 0)
(0.999373 0.00493123 0)
(0.990643 0.00330953 0)
(0.993048 0.00932277 0)
(1.00018 0.0165198 0)
(1.00732 0.0186888 0)
(1.01285 0.0124025 0)
(1.00943 0.0121275 0)
(1.00546 0.017068 0)
(1.01163 0.0141225 0)
(1.01227 0.0128215 0)
(1.01307 0.00708145 0)
(1.01187 0.00265851 0)
(1.00853 0.00248129 0)
(1.00537 0.00388093 0)
(1.00613 0.00613905 0)
(1.00676 0.00886433 0)
(0.998243 -0.00348705 0)
(1.00344 0.0123576 0)
(1.00285 -0.0193002 0)
(0.991155 0.00648454 0)
(0.999443 0.00504038 0)
(0.991293 0.00334477 0)
(0.994262 0.00923382 0)
(1.00002 0.0159063 0)
(1.00669 0.0185447 0)
(1.01132 0.0123996 0)
(1.00843 0.0121361 0)
(1.00577 0.017069 0)
(1.0124 0.0139055 0)
(1.0133 0.0125932 0)
(1.01358 0.00732994 0)
(1.01229 0.00281568 0)
(1.00859 0.00282481 0)
(1.00529 0.00408653 0)
(1.00583 0.00607601 0)
(1.00654 0.0088737 0)
(0.998535 -0.00338381 0)
(1.00349 0.0118728 0)
(1.00197 -0.0185471 0)
(0.990945 0.00624287 0)
(0.99961 0.00514122 0)
(0.991974 0.00336336 0)
(0.995329 0.00915357 0)
(0.999908 0.0153298 0)
(1.00596 0.0184154 0)
(1.00995 0.0124364 0)
(1.00755 0.0120586 0)
(1.00597 0.0170056 0)
(1.01282 0.0136627 0)
(1.01411 0.0123477 0)
(1.01381 0.00762827 0)
(1.01264 0.00301855 0)
(1.00859 0.00316929 0)
(1.00521 0.00436781 0)
(1.00548 0.00600818 0)
(1.0062 0.00884456 0)
(0.998594 -0.00328576 0)
(1.00383 0.0113928 0)
(1.00125 -0.0177591 0)
(0.990695 0.00596908 0)
(0.999865 0.00522377 0)
(0.992649 0.00337568 0)
(0.99615 0.00907698 0)
(0.999768 0.0147935 0)
(1.00517 0.0182921 0)
(1.00893 0.0125023 0)
(1.00691 0.0119072 0)
(1.00608 0.0168913 0)
(1.01284 0.0134051 0)
(1.01461 0.0120767 0)
(1.01372 0.00796169 0)
(1.01289 0.00327288 0)
(1.00859 0.00350193 0)
(1.00519 0.00471897 0)
(1.00523 0.00595629 0)
(1.00592 0.00876549 0)
(0.99851 -0.00319499 0)
(1.00428 0.0109152 0)
(1.00071 -0.0169334 0)
(0.990546 0.00566367 0)
(1.00014 0.0052867 0)
(0.993272 0.00338887 0)
(0.996722 0.00900592 0)
(0.999608 0.0142919 0)
(1.00438 0.0181593 0)
(1.00835 0.012591 0)
(1.00654 0.0116991 0)
(1.0061 0.0167447 0)
(1.01251 0.0131499 0)
(1.0148 0.0117766 0)
(1.01337 0.00830825 0)
(1.01305 0.00357096 0)
(1.00866 0.00380646 0)
(1.00527 0.0051231 0)
(1.00514 0.00595121 0)
(1.00582 0.00862772 0)
(0.99838 -0.00311082 0)
(1.00466 0.0104354 0)
(1.00031 -0.0160716 0)
(0.990584 0.00533074 0)
(1.00037 0.00533068 0)
(0.993811 0.00341113 0)
(0.997107 0.00893644 0)
(0.999496 0.013822 0)
(1.00362 0.0180026 0)
(1.00814 0.0126952 0)
(1.00639 0.0114569 0)
(1.00605 0.0165839 0)
(1.01197 0.0129119 0)
(1.01476 0.0114427 0)
(1.01288 0.0086467 0)
(1.01312 0.00390318 0)
(1.00882 0.00406799 0)
(1.00546 0.00555233 0)
(1.00522 0.0060221 0)
(1.0059 0.00842857 0)
(0.998268 -0.00303195 0)
(1.00489 0.00995272 0)
(1.00005 -0.0151824 0)
(0.990822 0.00497689 0)
(1.00051 0.00535882 0)
(0.99428 0.00344686 0)
(0.997372 0.00886515 0)
(0.999491 0.0133836 0)
(1.00288 0.0178053 0)
(1.00818 0.0128102 0)
(1.00642 0.0112044 0)
(1.00597 0.0164103 0)
(1.01136 0.0127018 0)
(1.01456 0.0110768 0)
(1.01235 0.00896171 0)
(1.0131 0.00426719 0)
(1.00906 0.00428006 0)
(1.00573 0.00597715 0)
(1.00538 0.00619207 0)
(1.00613 0.00818093 0)
(0.998203 -0.00295714 0)
(1.00494 0.00946825 0)
(0.999921 -0.0142752 0)
(0.991225 0.00460903 0)
(1.00055 0.00537436 0)
(0.994718 0.00349673 0)
(0.997553 0.00878864 0)
(0.99961 0.0129742 0)
(1.00217 0.0175652 0)
(1.00832 0.0129231 0)
(1.00658 0.0109529 0)
(1.00587 0.0162278 0)
(1.0108 0.0125331 0)
(1.01429 0.0106883 0)
(1.01184 0.00923517 0)
(1.01298 0.00466083 0)
(1.00933 0.00444656 0)
(1.00602 0.0063662 0)
(1.00557 0.0064752 0)
(1.00643 0.00792189 0)
(0.998197 -0.00288344 0)
(1.00478 0.00897983 0)
(0.999913 -0.0133568 0)
(0.991745 0.00423693 0)
(1.00048 0.00537602 0)
(0.99516 0.00356457 0)
(0.997667 0.00870413 0)
(0.999831 0.0125888 0)
(1.00149 0.0172859 0)
(1.00842 0.0130263 0)
(1.00685 0.0107073 0)
(1.00577 0.0160327 0)
(1.01034 0.0124074 0)
(1.01399 0.0102877 0)
(1.0114 0.00945746 0)
(1.01273 0.00508531 0)
(1.00959 0.00458405 0)
(1.0063 0.00668484 0)
(1.00571 0.00685695 0)
(1.00673 0.00770222 0)
(0.998254 -0.00280901 0)
(1.00445 0.00848909 0)
(1.00002 -0.0124393 0)
(0.99234 0.00387077 0)
(1.00031 0.00536259 0)
(0.995614 0.00364885 0)
(0.997726 0.00861227 0)
(1.00012 0.0122277 0)
(1.0009 0.0169655 0)
(1.0084 0.013117 0)
(1.00721 0.0104731 0)
(1.00571 0.0158151 0)
(1.00999 0.0123191 0)
(1.01368 0.00989108 0)
(1.01102 0.00962622 0)
(1.01237 0.00553719 0)
(1.00978 0.00471232 0)
(1.00656 0.00691642 0)
(1.00577 0.0073054 0)
(1.007 0.00758705 0)
(0.998367 -0.00273106 0)
(1.00397 0.00799501 0)
(1.00021 -0.0115305 0)
(0.992981 0.0035152 0)
(1.00006 0.00533169 0)
(0.99606 0.00374973 0)
(0.997753 0.00851748 0)
(1.00042 0.0118842 0)
(1.00043 0.0166164 0)
(1.00824 0.0131892 0)
(1.00763 0.0102441 0)
(1.00568 0.0155783 0)
(1.0097 0.0122753 0)
(1.01339 0.00951073 0)
(1.01071 0.00973724 0)
(1.01193 0.00601147 0)
(1.00988 0.00484508 0)
(1.00681 0.00705646 0)
(1.00577 0.00777439 0)
(1.00718 0.0076246 0)
(0.998525 -0.0026479 0)
(1.00341 0.00749845 0)
(1.00044 -0.0106398 0)
(0.993645 0.00318345 0)
(0.999756 0.00527613 0)
(0.99647 0.00386019 0)
(0.997771 0.00842326 0)
(1.00072 0.0115504 0)
(1.00012 0.0162436 0)
(1.00796 0.0132427 0)
(1.00805 0.0100234 0)
(1.00571 0.0153134 0)
(1.00945 0.0122758 0)
(1.01313 0.0091539 0)
(1.01046 0.00979089 0)
(1.01145 0.00651753 0)
(1.0099 0.005 0)
(1.00705 0.00710667 0)
(1.00572 0.00820991 0)
(1.00726 0.00782682 0)
(0.99871 -0.00255935 0)
(1.00283 0.00700332 0)
(1.00064 -0.00977554 0)
(0.99431 0.00288185 0)
(0.999448 0.00519757 0)
(0.996818 0.0039784 0)
(0.997803 0.00832938 0)
(1.001 0.011223 0)
(0.999971 0.0158509 0)
(1.00759 0.0132783 0)
(1.00844 0.00981423 0)
(1.00579 0.0150101 0)
(1.00919 0.0123191 0)
(1.01289 0.00883408 0)
(1.01027 0.00977589 0)
(1.01095 0.00705431 0)
(1.00984 0.00520082 0)
(1.00729 0.00707966 0)
(1.00567 0.00855788 0)
(1.00725 0.00816402 0)
(0.998901 -0.00246527 0)
(1.00229 0.00651097 0)
(1.00079 -0.00893794 0)
(0.994957 0.00260766 0)
(0.999182 0.00510157 0)
(0.997094 0.00410409 0)
(0.997861 0.00824446 0)
(1.00124 0.0108907 0)
(0.999955 0.0154385 0)
(1.00719 0.0133047 0)
(1.00877 0.00961004 0)
(1.00591 0.0146625 0)
(1.00889 0.0124095 0)
(1.01266 0.00857606 0)
(1.01013 0.00968133 0)
(1.01045 0.00759623 0)
(1.00972 0.00546971 0)
(1.00755 0.00700499 0)
(1.00568 0.00878919 0)
(1.00717 0.00857032 0)
(0.999084 -0.00236619 0)
(1.00182 0.00602379 0)
(1.00086 -0.00813276 0)
(0.995568 0.00236572 0)
(0.998991 0.00499262 0)
(0.997302 0.00422374 0)
(0.997945 0.00817106 0)
(1.00145 0.0105568 0)
(1.00003 0.0150011 0)
(1.00678 0.0133229 0)
(1.00902 0.0094245 0)
(1.00608 0.0142615 0)
(1.00855 0.0125229 0)
(1.01242 0.00839275 0)
(1.01006 0.00951899 0)
(1.00999 0.00812172 0)
(1.00954 0.00581693 0)
(1.00781 0.00691438 0)
(1.00576 0.00890432 0)
(1.00705 0.00897981 0)
(0.99925 -0.00226478 0)
(1.00143 0.00554706 0)
(1.00085 -0.00735724 0)
(0.996132 0.00214672 0)
(0.99889 0.00487187 0)
(0.997456 0.00433251 0)
(0.998051 0.008108 0)
(1.00164 0.0102281 0)
(1.00015 0.0145438 0)
(1.00639 0.0133272 0)
(1.00917 0.00926964 0)
(1.00628 0.013814 0)
(1.00817 0.0126386 0)
(1.01214 0.00828766 0)
(1.01005 0.00929154 0)
(1.00957 0.00861059 0)
(1.00931 0.00624038 0)
(1.00807 0.00682675 0)
(1.00594 0.00890858 0)
(1.00695 0.00932298 0)
(0.999396 -0.00216203 0)
(1.00113 0.00508262 0)
(1.00077 -0.0066132 0)
(0.996644 0.00194962 0)
(0.998876 0.00474859 0)
(0.997575 0.0044308 0)
(0.998169 0.00804934 0)
(1.00183 0.00990272 0)
(1.00029 0.014063 0)
(1.00601 0.0133196 0)
(1.00925 0.00914567 0)
(1.00649 0.013326 0)
(1.00776 0.0127564 0)
(1.01182 0.00828221 0)
(1.01009 0.0090006 0)
(1.00922 0.00903578 0)
(1.00902 0.00675017 0)
(1.00829 0.00678227 0)
(1.00621 0.00882554 0)
(1.0069 0.00955371 0)
(0.999523 -0.00205864 0)
(1.00089 0.00463257 0)
(1.00065 -0.005899 0)
(0.997103 0.00176514 0)
(0.99893 0.00462548 0)
(0.997675 0.0045115 0)
(0.998292 0.00799656 0)
(1.00201 0.00959465 0)
(1.00043 0.013556 0)
(1.00564 0.0132978 0)
(1.00924 0.00906336 0)
(1.00673 0.0127898 0)
(1.00734 0.0128425 0)
(1.01144 0.0083923 0)
(1.01018 0.00867116 0)
(1.00895 0.00935633 0)
(1.0087 0.00733105 0)
(1.00845 0.00680211 0)
(1.00655 0.00868458 0)
(1.00692 0.00968737 0)
(0.999634 -0.00195674 0)
(1.0007 0.00419899 0)
(1.00049 -0.005212 0)
(0.997512 0.00158367 0)
(0.999032 0.00450902 0)
(0.99777 0.00457764 0)
(0.998415 0.00793974 0)
(1.00219 0.00929959 0)
(1.00058 0.0130258 0)
(1.00529 0.0132436 0)
(1.00916 0.00902773 0)
(1.00696 0.0122359 0)
(1.00695 0.0128546 0)
(1.01098 0.008604 0)
(1.01028 0.00834588 0)
(1.00878 0.00954357 0)
(1.00834 0.00797366 0)
(1.00854 0.00691593 0)
(1.00694 0.00846322 0)
(1.00704 0.00969766 0)
(0.999731 -0.00185415 0)
(1.00053 0.00377976 0)
(1.00032 -0.00455367 0)
(0.997877 0.00140513 0)
(0.999157 0.00440199 0)
(0.997867 0.00463557 0)
(0.998534 0.00787873 0)
(1.00237 0.00903316 0)
(1.00073 0.0124821 0)
(1.00494 0.0131464 0)
(1.00901 0.00902822 0)
(1.0072 0.0116911 0)
(1.00658 0.0127875 0)
(1.01047 0.00888467 0)
(1.01037 0.00806434 0)
(1.00873 0.00956636 0)
(1.00799 0.00861525 0)
(1.0085 0.00720167 0)
(1.00733 0.00823608 0)
(1.00726 0.00957217 0)
(0.999816 -0.00175429 0)
(1.0004 0.0033782 0)
(1.00015 -0.00391514 0)
(0.998204 0.00123265 0)
(0.999289 0.00429126 0)
(0.997969 0.0046876 0)
(0.998649 0.00780372 0)
(1.00254 0.00878488 0)
(1.00089 0.011951 0)
(1.00461 0.0130117 0)
(1.00882 0.00906137 0)
(1.00743 0.0111626 0)
(1.00626 0.0126351 0)
(1.0099 0.00922249 0)
(1.01043 0.00788664 0)
(1.0088 0.00946323 0)
(1.00768 0.00914848 0)
(1.00836 0.0076055 0)
(1.00766 0.00809603 0)
(1.00756 0.00933276 0)
(0.999891 -0.00165297 0)
(1.00028 0.00299047 0)
(0.999979 -0.00330942 0)
(0.998499 0.00106475 0)
(0.999417 0.00418545 0)
(0.998073 0.0047404 0)
(0.998754 0.00771195 0)
(1.00269 0.00856193 0)
(1.00106 0.0114115 0)
(1.0043 0.0128461 0)
(1.00858 0.00911566 0)
(1.00765 0.0106516 0)
(1.00601 0.0124128 0)
(1.0093 0.00954397 0)
(1.01042 0.00780276 0)
(1.00895 0.00926959 0)
(1.00743 0.00960559 0)
(1.00812 0.00810352 0)
(1.00789 0.00808847 0)
(1.00791 0.00904234 0)
(0.999955 -0.00155174 0)
(1.00017 0.00261518 0)
(0.999814 -0.00272172 0)
(0.998769 0.000906647 0)
(0.999538 0.00405438 0)
(0.998178 0.00480096 0)
(0.998853 0.00759441 0)
(1.00282 0.00835281 0)
(1.00126 0.010902 0)
(1.00401 0.012615 0)
(1.00829 0.00919304 0)
(1.00785 0.0101836 0)
(1.00582 0.0121089 0)
(1.00869 0.00988766 0)
(1.01033 0.00779859 0)
(1.00918 0.00895336 0)
(1.0073 0.009874 0)
(1.00783 0.00865932 0)
(1.00798 0.00821894 0)
(1.00824 0.0088469 0)
(1.00001 -0.0014514 0)
(1.00007 0.00225621 0)
(0.999654 -0.00216842 0)
(0.999012 0.000774857 0)
(0.999654 0.00390908 0)
(0.99828 0.0048638 0)
(0.998937 0.00746293 0)
(1.00293 0.00814638 0)
(1.00146 0.010403 0)
(1.00375 0.012359 0)
(1.00797 0.00925513 0)
(1.00802 0.00976936 0)
(1.00573 0.0117312 0)
(1.00809 0.0101411 0)
(1.01013 0.00795039 0)
(1.00944 0.00860196 0)
(1.0073 0.00987479 0)
(1.00753 0.00909045 0)
(1.00795 0.00835492 0)
(1.00849 0.00868433 0)
(1.00005 -0.00134503 0)
(0.999991 0.0019024 0)
(0.9995 -0.00164242 0)
(0.999234 0.000672793 0)
(0.999768 0.00372605 0)
(0.99838 0.004946 0)
(0.99901 0.00732295 0)
(1.003 0.00795493 0)
(1.00167 0.00991842 0)
(1.00352 0.0120931 0)
(1.00761 0.00928335 0)
(1.00816 0.00939895 0)
(1.0057 0.0113617 0)
(1.00755 0.0102934 0)
(1.00984 0.00809708 0)
(1.00966 0.00827573 0)
(1.0074 0.00965772 0)
(1.00725 0.00932207 0)
(1.00783 0.00851233 0)
(1.00869 0.00853455 0)
(1.00009 -0.00124382 0)
(0.999927 0.00157121 0)
(0.999352 -0.00115727 0)
(0.999421 0.000617279 0)
(0.999889 0.00351049 0)
(0.998481 0.00501765 0)
(0.999056 0.00718171 0)
(1.00305 0.00774637 0)
(1.00189 0.0094757 0)
(1.00332 0.0117656 0)
(1.00723 0.00936213 0)
(1.00826 0.00905337 0)
(1.00573 0.0108771 0)
(1.00703 0.0104683 0)
(1.00946 0.00827543 0)
(1.00983 0.00800489 0)
(1.00758 0.00935991 0)
(1.00706 0.00939302 0)
(1.00764 0.00871149 0)
(1.00884 0.00844494 0)
(1.00011 -0.00113321 0)
(0.999877 0.00124401 0)
(0.99921 -0.000718008 0)
(0.99958 0.000600692 0)
(1.00002 0.00327199 0)
(0.998587 0.00507245 0)
(0.999084 0.00706799 0)
(1.00308 0.00753829 0)
(1.00211 0.00902693 0)
(1.00316 0.0114523 0)
(1.00682 0.00939164 0)
(1.00827 0.0087514 0)
(1.00583 0.0104273 0)
(1.00662 0.0104799 0)
(1.009 0.00846594 0)
(1.00992 0.00789056 0)
(1.00781 0.00903507 0)
(1.00693 0.0094959 0)
(1.00741 0.00903353 0)
(1.00895 0.00855658 0)
(1.00013 -0.00102531 0)
(0.999846 0.00093832 0)
(0.999079 -0.000319819 0)
(0.9997 0.00063966 0)
(1.00015 0.0029931 0)
(0.998707 0.00510657 0)
(0.999086 0.00696764 0)
(1.00307 0.00731081 0)
(1.00233 0.00858729 0)
(1.00304 0.0111171 0)
(1.0064 0.00939293 0)
(1.00827 0.00853878 0)
(1.00596 0.00994562 0)
(1.00623 0.0103725 0)
(1.00853 0.0087402 0)
(1.00992 0.00780684 0)
(1.0081 0.00867426 0)
(1.00698 0.00948982 0)
(1.0072 0.00928187 0)
(1.00887 0.00876062 0)
(1.00014 -0.000918433 0)
(0.999832 0.000659184 0)
(0.99896 1.6995e-05 0)
(0.999784 0.000726561 0)
(1.00029 0.002712 0)
(0.998845 0.00509258 0)
(0.999067 0.00690203 0)
(1.00302 0.00711032 0)
(1.00255 0.00815343 0)
(1.00296 0.0107451 0)
(1.00597 0.00942616 0)
(1.00815 0.00832947 0)
(1.00611 0.00942291 0)
(1.006 0.0102546 0)
(1.00802 0.00898891 0)
(1.00977 0.00780462 0)
(1.00839 0.00838453 0)
(1.0071 0.00932018 0)
(1.00704 0.00941421 0)
(1.00878 0.00895386 0)
(1.00014 -0.000805599 0)
(0.999836 0.000390837 0)
(0.99886 0.000308568 0)
(0.999827 0.000849946 0)
(1.00044 0.00244397 0)
(0.999011 0.00502018 0)
(0.999033 0.006874 0)
(1.00294 0.00693573 0)
(1.00275 0.00769402 0)
(1.00293 0.010353 0)
(1.00552 0.00943529 0)
(1.00799 0.00819757 0)
(1.00628 0.00896631 0)
(1.00582 0.0100308 0)
(1.00752 0.00915458 0)
(1.00956 0.00801915 0)
(1.00862 0.00818105 0)
(1.00733 0.0091604 0)
(1.00697 0.00957146 0)
(1.0086 0.00915283 0)
(1.00013 -0.000701839 0)
(0.999855 0.00016372 0)
(0.998783 0.000528168 0)
(0.999837 0.00100638 0)
(1.00057 0.00220983 0)
(0.99921 0.004874 0)
(0.998994 0.00685917 0)
(1.00279 0.00680472 0)
(1.00295 0.0072476 0)
(1.00297 0.00991701 0)
(1.00511 0.00942686 0)
(1.00773 0.00814865 0)
(1.00642 0.00849088 0)
(1.00578 0.00975954 0)
(1.0071 0.00932424 0)
(1.00923 0.00821815 0)
(1.00877 0.00807381 0)
(1.00763 0.0089353 0)
(1.00696 0.00957962 0)
(1.00837 0.00924111 0)
(1.00012 -0.000596612 0)
(0.999887 -3.96055e-05 0)
(0.998731 0.000689549 0)
(0.999815 0.00118861 0)
(1.00069 0.00202082 0)
(0.999441 0.00467177 0)
(0.998966 0.00682028 0)
(1.00261 0.00674749 0)
(1.00311 0.00683309 0)
(1.00305 0.0094338 0)
(1.00472 0.00936802 0)
(1.00741 0.00815784 0)
(1.00654 0.0081565 0)
(1.00581 0.00944028 0)
(1.00673 0.00931397 0)
(1.00886 0.00839856 0)
(1.00883 0.00808702 0)
(1.00794 0.00866508 0)
(1.00705 0.00943452 0)
(1.00814 0.00928263 0)
(1.0001 -0.000498683 0)
(0.999928 -0.000207568 0)
(0.99871 0.000791547 0)
(0.999773 0.00137973 0)
(1.00078 0.00188375 0)
(0.999701 0.00441166 0)
(0.998964 0.00674307 0)
(1.00237 0.00674532 0)
(1.00322 0.00648222 0)
(1.00319 0.0089055 0)
(1.0044 0.00924737 0)
(1.00703 0.00823584 0)
(1.00659 0.00788608 0)
(1.00589 0.00904148 0)
(1.00647 0.00925509 0)
(1.0085 0.00856978 0)
(1.00876 0.00813486 0)
(1.00818 0.00840211 0)
(1.0072 0.00916521 0)
(1.00794 0.00926622 0)
(1.00008 -0.000409101 0)
(0.999976 -0.000339101 0)
(0.998719 0.000838444 0)
(0.999713 0.00156539 0)
(1.00085 0.0018086 0)
(0.999985 0.00412192 0)
(0.999005 0.00659983 0)
(1.00211 0.00679177 0)
(1.00328 0.0062469 0)
(1.00337 0.00835815 0)
(1.00415 0.00903085 0)
(1.00661 0.00829601 0)
(1.00656 0.00771874 0)
(1.00601 0.00867985 0)
(1.00628 0.00910941 0)
(1.00813 0.00860148 0)
(1.0086 0.00815042 0)
(1.00834 0.00824284 0)
(1.00743 0.00884582 0)
(1.00782 0.00915666 0)
(1.00006 -0.000327584 0)
(1.00003 -0.000436663 0)
(0.99876 0.000836109 0)
(0.999653 0.00174518 0)
(1.00088 0.00179823 0)
(1.00028 0.00381419 0)
(0.999101 0.00638986 0)
(1.00184 0.00684138 0)
(1.00325 0.00609834 0)
(1.00354 0.00783177 0)
(1.004 0.00872723 0)
(1.00621 0.00832174 0)
(1.00645 0.00764362 0)
(1.00612 0.0083381 0)
(1.00617 0.00885927 0)
(1.00781 0.00857489 0)
(1.00841 0.00818164 0)
(1.00841 0.00817487 0)
(1.00763 0.00853161 0)
(1.00781 0.00888353 0)
(1.00004 -0.000259759 0)
(1.00008 -0.000495362 0)
(0.998831 0.000799663 0)
(0.999595 0.00189298 0)
(1.00087 0.00183467 0)
(1.00057 0.00352278 0)
(0.999256 0.0061059 0)
(1.00159 0.00687119 0)
(1.00316 0.0060467 0)
(1.00371 0.00737792 0)
(1.00393 0.00834652 0)
(1.00584 0.00826449 0)
(1.00627 0.00760241 0)
(1.00619 0.00805813 0)
(1.00612 0.00857993 0)
(1.00754 0.00850051 0)
(1.0082 0.00813679 0)
(1.00837 0.00807801 0)
(1.00775 0.00830877 0)
(1.00791 0.00853751 0)
(1.00002 -0.00020343 0)
(1.00012 -0.000517483 0)
(0.998927 0.000730904 0)
(0.999555 0.00201024 0)
(1.00083 0.00192762 0)
(1.00084 0.00326029 0)
(0.999472 0.00574756 0)
(1.00137 0.00686405 0)
(1.00301 0.00605466 0)
(1.00383 0.00699248 0)
(1.00391 0.00791922 0)
(1.00553 0.00813344 0)
(1.00606 0.00756783 0)
(1.00621 0.00783988 0)
(1.0061 0.00829064 0)
(1.0073 0.00834944 0)
(1.00798 0.00805337 0)
(1.00832 0.00796511 0)
(1.00779 0.00819853 0)
(1.008 0.00824548 0)
(1 -0.000161201 0)
(1.00016 -0.000505065 0)
(0.999044 0.000649546 0)
(0.999536 0.00208616 0)
(1.00076 0.00204849 0)
(1.00109 0.00304885 0)
(0.999743 0.00534324 0)
(1.00122 0.00678001 0)
(1.00282 0.0060826 0)
(1.00389 0.00670067 0)
(1.00395 0.0074995 0)
(1.00529 0.00793834 0)
(1.00582 0.00749981 0)
(1.00618 0.00764937 0)
(1.00609 0.00800719 0)
(1.00712 0.00816365 0)
(1.00776 0.0079696 0)
(1.00826 0.00780652 0)
(1.00778 0.00804225 0)
(1.00801 0.00803048 0)
(0.99999 -0.000132627 0)
(1.00019 -0.000460592 0)
(0.999174 0.000563037 0)
(0.999546 0.0021116 0)
(1.00067 0.00218839 0)
(1.00128 0.00291757 0)
(1.00005 0.00491698 0)
(1.00114 0.00661017 0)
(1.0026 0.00610557 0)
(1.00388 0.00648704 0)
(1.00399 0.00709387 0)
(1.00511 0.00766068 0)
(1.0056 0.00739569 0)
(1.0061 0.00749165 0)
(1.00608 0.0077456 0)
(1.00698 0.00793902 0)
(1.00753 0.00784995 0)
(1.00816 0.00764213 0)
(1.00778 0.00781511 0)
(1.00796 0.00789683 0)
(0.999979 -0.000114804 0)
(1.00021 -0.000394996 0)
(0.99931 0.000486942 0)
(0.999585 0.00209665 0)
(1.00058 0.00231573 0)
(1.00142 0.00287554 0)
(1.00037 0.00449739 0)
(1.00114 0.00634458 0)
(1.0024 0.00609019 0)
(1.00382 0.00632478 0)
(1.00402 0.00673729 0)
(1.005 0.00735073 0)
(1.00541 0.0072487 0)
(1.006 0.00734395 0)
(1.00604 0.00749959 0)
(1.00688 0.00767079 0)
(1.00733 0.00767732 0)
(1.00802 0.00752178 0)
(1.0078 0.00757016 0)
(1.0079 0.00772713 0)
(0.999971 -0.000107019 0)
(1.00022 -0.000312731 0)
(0.999443 0.000425944 0)
(0.999651 0.00204693 0)
(1.00049 0.00241145 0)
(1.0015 0.00290459 0)
(1.00068 0.0041308 0)
(1.00122 0.00599306 0)
(1.00222 0.00601313 0)
(1.00371 0.0061875 0)
(1.00403 0.00643772 0)
(1.00492 0.00703279 0)
(1.00525 0.00703632 0)
(1.00587 0.00716714 0)
(1.00596 0.00727993 0)
(1.00679 0.00741706 0)
(1.00718 0.00744978 0)
(1.00785 0.00739194 0)
(1.00776 0.00734111 0)
(1.00785 0.00747295 0)
(0.999966 -0.000106024 0)
(1.00023 -0.000222095 0)
(0.999567 0.000383789 0)
(0.999739 0.00197431 0)
(1.00042 0.00247204 0)
(1.00154 0.0029545 0)
(1.00095 0.00384557 0)
(1.00134 0.00559935 0)
(1.00209 0.00586724 0)
(1.00356 0.00605856 0)
(1.00401 0.00617159 0)
(1.00485 0.00671301 0)
(1.00512 0.00679572 0)
(1.00576 0.00696396 0)
(1.00588 0.00707106 0)
(1.00668 0.00719896 0)
(1.00706 0.00718911 0)
(1.00769 0.00719777 0)
(1.00768 0.0071518 0)
(1.00783 0.0072031 0)
(0.999963 -0.000110203 0)
(1.00022 -0.000130681 0)
(0.999677 0.00036602 0)
(0.999844 0.00188289 0)
(1.00037 0.00249336 0)
(1.00154 0.00299903 0)
(1.00116 0.00363559 0)
(1.00151 0.00520735 0)
(1.00201 0.00564891 0)
(1.00341 0.00591849 0)
(1.00395 0.00594074 0)
(1.0048 0.00640526 0)
(1.00502 0.00654586 0)
(1.00566 0.00674611 0)
(1.0058 0.00683013 0)
(1.00655 0.00697994 0)
(1.00692 0.00694834 0)
(1.00756 0.0069497 0)
(1.00757 0.00696113 0)
(1.00778 0.00694711 0)
(0.999962 -0.000115565 0)
(1.00021 -4.77669e-05 0)
(0.999769 0.000370327 0)
(0.999956 0.0017826 0)
(1.00035 0.00247828 0)
(1.00152 0.00302746 0)
(1.00133 0.0034811 0)
(1.00168 0.00484755 0)
(1.00199 0.00537517 0)
(1.00327 0.00574756 0)
(1.00386 0.00574097 0)
(1.00474 0.00611641 0)
(1.00495 0.00626515 0)
(1.00555 0.00651424 0)
(1.00572 0.00657554 0)
(1.00644 0.00672964 0)
(1.00677 0.0067359 0)
(1.00744 0.00668877 0)
(1.00746 0.00672119 0)
(1.00769 0.00671024 0)
(0.999962 -0.000120909 0)
(1.0002 2.45904e-05 0)
(0.999842 0.000391922 0)
(1.00007 0.00168294 0)
(1.00034 0.00243013 0)
(1.00148 0.00303432 0)
(1.00145 0.00336186 0)
(1.00183 0.00452962 0)
(1.00201 0.00507529 0)
(1.00316 0.00553446 0)