/*--------------------------------*- C++ -*----------------------------------*\
| =========                 |                                                 |
| \\      /  F ield         | OpenFOAM: The Open Source CFD Toolbox           |
|  \\    /   O peration     | Version:  v1912                                 |
|   \\  /    A nd           | Website:  www.openfoam.com                      |
|    \\/     M anipulation  |                                                 |
\*---------------------------------------------------------------------------*/
FoamFile
{
    version     2.0;
    format      ascii;
    class       volScalarField;
    location    "4";
    object      p;
}
// * * * * * * * * * * * * * * * * * * * * * * * * * * * * * * * * * * * * * //

dimensions      [0 2 -2 0 0 0 0];


internalField   nonuniform List<scalar> 
9600
(
-3.93561e-11
0.00360308
0.00347441
0.00112023
0.00342067
0.00297051
0.00249758
-0.000408355
0.000490258
0.00125731
0.000856622
0.000483105
0.000627034
-0.000310923
-0.00438324
-0.00561652
-0.00897149
-0.00990207
-0.0110429
-0.0128226
-3.92667e-06
0.00360593
0.00347472
0.0011218
0.00342955
0.00294789
0.00249321
-0.000411403
0.000477392
0.00125769
0.000970024
0.000457756
0.000655939
-0.000410718
-0.00432615
-0.00566016
-0.00891519
-0.00990989
-0.0110316
-0.0127628
-8.23345e-06
0.00361006
0.00347488
0.00112347
0.00343875
0.00292164
0.00248183
-0.000410863
0.000465836
0.0012547
0.00103168
0.000417542
0.000702309
-0.000507921
-0.00422735
-0.00572343
-0.00881741
-0.0099349
-0.0110126
-0.0126456
-1.22851e-05
0.00361357
0.00347455
0.00112136
0.00344508
0.00289307
0.00246193
-0.000399651
0.000452329
0.00124415
0.00109304
0.000361696
0.000743732
-0.000633263
-0.00414678
-0.00579259
-0.0087342
-0.00995112
-0.0109967
-0.0125504
-1.60646e-05
0.00361624
0.00347347
0.00111418
0.00345218
0.00286291
0.00243718
-0.000377913
0.000437752
0.00123137
0.00115086
0.000284471
0.000775137
-0.000786116
-0.00408508
-0.0058661
-0.00866204
-0.00994351
-0.0109971
-0.0124468
-1.9678e-05
0.0036181
0.00347171
0.00110263
0.00346061
0.00283146
0.00241128
-0.000346247
0.000422641
0.00121749
0.00120269
0.000188763
0.000801494
-0.000957752
-0.00402738
-0.00593713
-0.00857783
-0.00992322
-0.0110035
-0.0123085
-2.34321e-05
0.0036192
0.00346983
0.00108839
0.00346892
0.00279768
0.00238748
-0.000306138
0.000407869
0.00120261
0.00124832
8.11804e-05
0.000827717
-0.00113167
-0.00397283
-0.00599588
-0.0084891
-0.00989752
-0.011004
-0.0121576
-2.77499e-05
0.00361963
0.00346853
0.00107423
0.00347629
0.00275966
0.00236841
-0.000258294
0.000394403
0.00118605
0.00128794
-3.18358e-05
0.000855772
-0.00130761
-0.00392761
-0.00604211
-0.00841292
-0.00986157
-0.0110071
-0.0120133
-3.29892e-05
0.00361958
0.00346836
0.00106266
0.00348261
0.0027157
0.00235608
-0.000202699
0.000382989
0.00116733
0.00132185
-0.000146333
0.000883639
-0.00148442
-0.00389469
-0.00607902
-0.00835242
-0.00981306
-0.0110211
-0.0118734
-3.93162e-05
0.00361922
0.00346961
0.00105486
0.00348785
0.00266484
0.00235137
-0.00013914
0.000374057
0.00114615
0.00135004
-0.000260799
0.000908115
-0.00166095
-0.00387503
-0.00610544
-0.00830681
-0.00975372
-0.0110423
-0.011733
-4.6672e-05
0.00361864
0.00347213
0.00104968
0.00349203
0.00260798
0.00235367
-6.80975e-05
0.000367727
0.00112242
0.00137193
-0.000373693
0.000927891
-0.0018355
-0.00386888
-0.00611922
-0.00827868
-0.00968402
-0.0110649
-0.0115978
-5.47965e-05
0.00361779
0.00347531
0.00104636
0.00349519
0.00254731
0.00236076
8.69047e-06
0.00036371
0.00109651
0.00138646
-0.000482079
0.000942531
-0.00200552
-0.00387582
-0.0061201
-0.00826994
-0.0096042
-0.0110857
-0.0114768
-6.3306e-05
0.00361648
0.00347855
0.00104406
0.00349732
0.00248517
0.0023696
8.84879e-05
0.000361191
0.00106935
0.00139274
-0.000582127
0.000950694
-0.00216695
-0.0038946
-0.00610815
-0.00827917
-0.0095159
-0.0111008
-0.0113756
-7.18145e-05
0.00361445
0.00348147
0.00104288
0.00349853
0.00242289
0.00237734
0.000168491
0.000359025
0.00104217
0.00139052
-0.000670201
0.000949324
-0.00231453
-0.00392264
-0.00608166
-0.00830152
-0.00942224
-0.0111042
-0.011296
-8.00284e-05
0.00361152
0.00348386
0.00104368
0.00349908
0.00236069
0.00238196
0.000246757
0.000356123
0.00101632
0.00138027
-0.000744199
0.000934529
-0.00244248
-0.00395678
-0.00603753
-0.00832938
-0.0093266
-0.0110884
-0.0112357
-8.77715e-05
0.00360753
0.0034857
0.00104746
0.00349894
0.00229819
0.00238266
0.000322491
0.000351596
0.000992941
0.00136284
-0.000803807
0.000903459
-0.00254632
-0.00399456
-0.00597305
-0.00835329
-0.00923095
-0.0110459
-0.0111897
-9.49676e-05
0.00360239
0.00348711
0.00105473
0.00349781
0.00223502
0.00237941
0.000395655
0.000344915
0.000972732
0.00133912
-0.000850041
0.000855638
-0.0026242
-0.00403482
-0.00588662
-0.00836353
-0.00913641
-0.0109706
-0.0111502
-0.000101591
0.00359603
0.0034883
0.00106537
0.00349531
0.00217109
0.0023723
0.000466582
0.000335983
0.000955851
0.00130939
-0.000884456
0.000792738
-0.00267709
-0.00407726
-0.00577876
-0.00835246
-0.00904442
-0.0108586
-0.0111085
-0.000107612
0.00358832
0.00348946
0.00107881
0.00349115
0.00210665
0.0023615
0.000535619
0.000324727
0.000942349
0.00127328
-0.000908847
0.000717275
-0.00270807
-0.00412132
-0.0056523
-0.00831594
-0.00895679
-0.0107086
-0.0110577
-0.000112964
0.0035791
0.00349074
0.00109433
0.00348511
0.00204226
0.00234698
0.000603205
0.000310933
0.000932206
0.00123055
-0.000925625
0.000631899
-0.0027212
-0.00416615
-0.00551202
-0.00825325
-0.00887514
-0.0105229
-0.0109927
-0.000117546
0.00356816
0.00349225
0.00111123
0.00347701
0.00197858
0.00232858
0.000669732
0.000294523
0.000925123
0.00118149
-0.000936994
0.000538738
-0.00272047
-0.004211
-0.00536408
-0.00816576
-0.00880038
-0.0103065
-0.0109087
-0.000121225
0.00355524
0.00349407
0.00112892
0.00346675
0.00191621
0.00230599
0.000735475
0.000275278
0.000921011
0.00112645
-0.00094529
0.000439105
-0.00270903
-0.00425497
-0.00521475
-0.00805483
-0.00873311
-0.0100668
-0.0108005
-0.000123837
0.00354001
0.00349628
0.00114693
0.0034542
0.00185574
0.00227879
0.000800686
0.000252811
0.000919665
0.0010663
-0.000953266
0.000290446
-0.00268945
-0.00429785
-0.0050689
-0.00792101
-0.00867459
-0.0098126
-0.010662
-0.000125181
0.00352215
0.00349893
0.00116491
0.00343927
0.00179782
0.00224652
0.00086531
0.00022695
0.000920332
0.00100235
-0.000962587
0.000189645
-0.00266354
-0.00434002
-0.00493047
-0.00776524
-0.00862534
-0.00955186
-0.0104862
-0.000125025
0.00350127
0.00350206
0.00118263
0.00342177
0.00174312
0.00220871
0.00092916
0.000197551
0.000922133
0.000936336
-0.000975271
9.08245e-05
-0.00263216
-0.00438093
-0.00480306
-0.00758859
-0.00858348
-0.0092926
-0.0102674
-0.00012311
0.00347696
0.00350571
0.00119991
0.00340152
0.0016923
0.00216483
0.000992138
0.000164545
0.000923974
0.000870355
-0.000993831
-5.20238e-06
-0.0025951
-0.00441982
-0.00468885
-0.00739045
-0.00854628
-0.00904479
-0.0100013
-0.000119149
0.00344881
0.00350986
0.00121662
0.00337827
0.00164595
0.00211434
0.0010545
0.000128425
0.000924174
0.00080701
-0.00102015
-9.81014e-05
-0.00255094
-0.00445659
-0.00459018
-0.00717007
-0.00850936
-0.00881804
-0.0096869
-0.000112823
0.00341636
0.00351453
0.00123268
0.0033517
0.00160468
0.00205681
0.00111634
9.00192e-05
0.000920768
0.000749009
-0.00105476
-0.000188414
-0.00249831
-0.00449049
-0.0045101
-0.00692848
-0.00846491
-0.00862034
-0.00933071
-0.000103798
0.0033791
0.00351967
0.00124818
0.00332148
0.00156839
0.001992
0.00117564
5.02027e-05
0.000911679
0.000698687
-0.00109707
-0.000277482
-0.00244341
-0.00452011
-0.00445166
-0.00666792
-0.00840269
-0.00845835
-0.0089469
-9.17481e-05
0.00333652
0.00352521
0.00126329
0.0032872
0.00153636
0.00191966
0.00123554
1.04462e-05
0.000894524
0.000658173
-0.0011458
-0.000367487
-0.00237411
-0.00454305
-0.00441797
-0.00639276
-0.00831048
-0.00833417
-0.00855606
-7.63195e-05
0.00328813
0.00353104
0.00127835
0.00324826
0.00151489
0.0018397
0.00129298
-2.72854e-05
0.0008669
0.000628948
-0.00119833
-0.000462195
-0.00229038
-0.00455497
-0.00441115
-0.00611172
-0.00817626
-0.00824274
-0.00818226
-5.7131e-05
0.00323336
0.00353712
0.0012939
0.003204
0.00150151
0.0017523
0.00134684
-6.08805e-05
0.000826574
0.000610875
-0.0012508
-0.000565038
-0.00219383
-0.0045503
-0.00443094
-0.00583521
-0.00799115
-0.00817215
-0.00784951
-3.38201e-05
0.0031717
0.00354289
0.00131066
0.00315369
0.00149633
0.00165804
0.00139528
-8.78383e-05
0.000771791
0.000602441
-0.00129909
-0.000678252
-0.0020884
-0.0045226
-0.00447374
-0.00557427
-0.00775027
-0.00810483
-0.00757695
-6.01627e-06
0.00310252
0.00354816
0.00132956
0.00309637
0.00149961
0.00155806
0.00143583
-0.000105545
0.000701785
0.000601386
-0.00133847
-0.000803947
-0.00197886
-0.00446386
-0.0045332
-0.0053418
-0.00745682
-0.0080208
-0.0073713
2.66167e-05
0.00302573
0.00355241
0.00135158
0.00303099
0.00151138
0.00145394
0.00146582
-0.000111619
0.00061703
0.000604084
-0.00136357
-0.000942621
-0.00187162
-0.00436763
-0.0046006
-0.00514947
-0.0071229
-0.00789958
-0.00722636
6.44859e-05
0.00294176
0.00355485
0.00137786
0.00295678
0.00153118
0.00134763
0.00148273
-0.000104257
0.000519363
0.000605368
-0.00137013
-0.00109116
-0.00177618
-0.00423224
-0.00466473
-0.00500296
-0.00676478
-0.00772192
-0.0071215
0.000108013
0.00285002
0.00355446
0.00140938
0.00287324
0.00155815
0.00124174
0.00148396
-8.27461e-05
0.000411638
0.000600085
-0.00135561
-0.00124475
-0.00170083
-0.00406081
-0.00471371
-0.00490288
-0.00640395
-0.00747661
-0.00702404
0.000157483
0.0027508
0.00354996
0.00144686
0.00278016
0.00159113
0.00113979
0.00146704
-4.79923e-05
0.000298101
0.000583636
-0.00131948
-0.00139731
-0.00165113
-0.00385917
-0.00473572
-0.00484285
-0.00606264
-0.00716975
-0.00690048
0.000213202
0.00264467
0.00353949
0.00149113
0.00267848
0.0016277
0.00104518
0.00143067
-1.77767e-06
0.000184144
0.000551691
-0.00126312
-0.00154112
-0.0016318
-0.00363723
-0.0047194
-0.00481032
-0.00575632
-0.00681811
-0.00672602
0.000275363
0.00253287
0.00352044
0.00154232
0.00257001
0.00166511
0.000961041
0.00137479
5.31591e-05
7.57575e-05
0.000500426
-0.00119073
-0.00166539
-0.00164471
-0.00340971
-0.00465725
-0.0047919
-0.00549159
-0.00643947
-0.00648568
0.000343991
0.00241719
0.00348971
0.00160032
0.00245747
0.00169991
0.000890328
0.00130138
0.000112273
-2.20747e-05
0.000429402
-0.00110767
-0.00176261
-0.00168633
-0.00319219
-0.00455123
-0.00477597
-0.00526779
-0.00605157
-0.00617725
0.000418915
0.00230028
0.00344316
0.00166391
0.00234512
0.00172893
0.000834943
0.00121337
0.000170388
-0.000105351
0.000340321
-0.00102051
-0.00182844
-0.00175118
-0.00299539
-0.00440628
-0.00475464
-0.00508456
-0.00567175
-0.00581606
0.000499696
0.00218482
0.00337779
0.00173271
0.00223733
0.00174907
0.000796343
0.00111498
0.000222227
-0.000170961
0.000236138
-0.000937135
-0.00185995
-0.00182895
-0.00282594
-0.00422945
-0.00471892
-0.0049366
-0.00532299
-0.00542398
0.000586086
0.00207237
0.00329163
0.00180307
0.00213796
0.00175806
0.00077412
0.00101168
0.000263183
-0.000218924
0.000123029
-0.000864138
-0.00185679
-0.00190455
-0.00268653
-0.00402954
-0.00465126
-0.00480797
-0.00501229
-0.00504332
0.000677182
0.00196489
0.00318392
0.0018729
0.00205034
0.00175524
0.000765947
0.000908605
0.000290564
-0.000250208
6.6266e-06
-0.000806679
-0.00182121
-0.00196572
-0.00257498
-0.00380774
-0.0045324
-0.00469038
-0.00475246
-0.00471672
0.000771826
0.00186409
0.00305599
0.00193838
0.00197676
0.00174063
0.000769536
0.000810186
0.000303495
-0.000266701
-0.000106808
-0.000767291
-0.00175905
-0.0020016
-0.00248462
-0.00357318
-0.00436341
-0.00457328
-0.00454992
-0.0044606
0.000868629
0.00177185
0.00291114
0.00199424
0.00191794
0.00171712
0.000781514
0.000719454
0.000302474
-0.000271133
-0.000210169
-0.000746301
-0.00168026
-0.00200954
-0.00241144
-0.00336281
-0.0041845
-0.00446964
-0.0044038
-0.00423336
0.000964521
0.00169045
0.00275432
0.00203572
0.00187304
0.00168775
0.000798003
0.000639251
0.000289392
-0.000265762
-0.000299127
-0.000739773
-0.00159842
-0.00199535
-0.0023496
-0.00317359
-0.00397968
-0.00432775
-0.00427698
-0.00406098
0.00105669
0.00162199
0.00259435
0.0020572
0.00183807
0.00165623
0.000816664
0.000570647
0.000267076
-0.000253633
-0.000369909
-0.000746167
-0.00151858
-0.0019618
-0.00229597
-0.00300644
-0.00376623
-0.00416231
-0.00414853
-0.00390459
0.00114293
0.00156799
0.00243641
0.00205602
0.00180855
0.00162503
0.000836265
0.000513902
0.000237084
-0.000238536
-0.000423289
-0.000761494
-0.00144353
-0.00191301
-0.00224856
-0.00285631
-0.00354626
-0.00397075
-0.00401464
-0.00376743
0.00122205
0.00152847
0.00228441
0.00203216
0.00177939
0.00159499
0.000857145
0.00046868
0.000203596
-0.000224139
-0.000458398
-0.000776447
-0.00137615
-0.00185483
-0.00219328
-0.00271545
-0.00333644
-0.00376692
-0.00387477
-0.00364581
0.00129364
0.0015018
0.00214222
0.00198763
0.00174666
0.00156602
0.00087867
0.000434972
0.000167197
-0.000214617
-0.000478054
-0.000784735
-0.00131626
-0.00178647
-0.00212335
-0.00258343
-0.00314941
-0.00356135
-0.00370524
-0.00351424
0.00135711
0.00148568
0.00201273
0.00192779
0.00170722
0.0015344
0.00090005
0.000414196
0.000129772
-0.00021216
-0.000484963
-0.000784869
-0.00125776
-0.00170586
-0.00204507
-0.00246022
-0.00297343
-0.00335642
-0.00350327
-0.00336251
0.00141306
0.0014768
0.00189776
0.00185876
0.00165882
0.00149754
0.000919903
0.000406182
9.58204e-05
-0.000215453
-0.000485815
-0.000776721
-0.00119661
-0.00161575
-0.001959
-0.00233871
-0.0027991
-0.00316135
-0.00329521
-0.00319023
0.00146182
0.00147264
0.00179823
0.00178621
0.00160189
0.00145237
0.00093421
0.000410598
7.14067e-05
-0.000223983
-0.000485028
-0.000759318
-0.00113298
-0.00151997
-0.00185923
-0.00221494
-0.00262957
-0.00297512
-0.00309581
-0.00299644
0.00150352
0.00147141
0.00171274
0.00171391
0.00153926
0.00139687
0.000939532
0.00042571
5.95966e-05
-0.000232655
-0.00048348
-0.000737554
-0.00106833
-0.00141897
-0.00174487
-0.00208668
-0.00246598
-0.00279069
-0.00290619
-0.00279305
0.00153855
0.00147164
0.00163874
0.0016446
0.00147527
0.00133147
0.00093176
0.000447497
6.25607e-05
-0.000234688
-0.0004808
-0.00071632
-0.00100378
-0.00131424
-0.00162018
-0.00194905
-0.00230234
-0.0026046
-0.002724
-0.00260003
0.00156753
0.00147251
0.00157378
0.00157942
0.00141291
0.0012585
0.000909668
0.000471195
8.08663e-05
-0.000226663
-0.000474263
-0.000694781
-0.000944214
-0.00121136
-0.00148812
-0.0017989
-0.00213313
-0.00241632
-0.00254418
-0.00242486
0.00159091
0.00147319
0.00151621
0.00151782
0.00135421
0.00118299
0.000874133
0.000490633
0.000112237
-0.000205225
-0.00045996
-0.000670534
-0.0008897
-0.00111647
-0.00135373
-0.00163689
-0.00195693
-0.00222771
-0.00235952
-0.00225878
0.00160922
0.00147297
0.00146484
0.00145816
0.00129962
0.00111142
0.000827893
0.000500706
0.000151376
-0.000168574
-0.000435298
-0.000641641
-0.000836031
-0.00102942
-0.0012276
-0.00147152
-0.00177196
-0.00203596
-0.00216602
-0.00208795
0.00162266
0.00147135
0.0014187
0.00139976
0.00124874
0.00104849
0.000776929
0.000498831
0.000190359
-0.000117923
-0.000396294
-0.000607581
-0.000781357
-0.0009454
-0.00111306
-0.00131418
-0.00157863
-0.0018355
-0.00196806
-0.00190774
0.00163128
0.00146804
0.00137734
0.00134296
0.00120033
0.000995059
0.000728234
0.000485704
0.000222201
-5.86171e-05
-0.000340784
-0.000563571
-0.000726887
-0.000862872
-0.00100321
-0.00117118
-0.00139
-0.00162708
-0.00176732
-0.00171808
0.00163515
0.00146237
0.00134029
0.00128854
0.00115324
0.000950401
0.000686301
0.000465061
0.000243497
1.93986e-06
-0.000271507
-0.000504336
-0.000668736
-0.000784725
-0.000894664
-0.00103696
-0.00121877
-0.00141772
-0.00155879
-0.00152273
0.00163445
0.00145386
0.00130706
0.00123782
0.00110675
0.000912173
0.000653173
0.000442907
0.00025436
5.87027e-05
-0.000193838
-0.0004322
-0.000599847
-0.000708149
-0.000792753
-0.000905685
-0.00106237
-0.00121976
-0.00134424
-0.00132414
0.00162949
0.00144224
0.00127702
0.00119184
0.00106119
0.000877148
0.000628006
0.000424905
0.000256853
0.000106867
-0.000112107
-0.000350052
-0.000520234
-0.000625438
-0.000697871
-0.000779519
-0.000913149
-0.00104018
-0.00113267
-0.0011206
0.00162069
0.00142749
0.00124906
0.00115089
0.00101737
0.000843549
0.000608687
0.000413954
0.000256696
0.000143596
-3.25504e-05
-0.000258464
-0.000433064
-0.000534523
-0.000602126
-0.000661983
-0.000768654
-0.000875901
-0.000933698
-0.000912498
0.00160844
0.00140965
0.00122217
0.00111499
0.000975989
0.000810459
0.000592728
0.000409181
0.000260153
0.000172619
3.6591e-05
-0.00016209
-0.000336568
-0.000438792
-0.00050193
-0.000549315
-0.00062933
-0.000720347
-0.000752972
-0.000708517
0.00159304
0.00138905
0.00119519
0.0010833
0.000938035
0.000778034
0.000577999
0.000408341
0.000267927
0.000199867
9.56024e-05
-7.046e-05
-0.000230673
-0.000336249
-0.000399994
-0.000438185
-0.000494956
-0.000568749
-0.000588247
-0.000519534
0.00157474
0.00136649
0.00116774
0.00105418
0.000903491
0.000746617
0.00056321
0.000410342
0.000279077
0.000226414
0.000148932
1.18246e-05
-0.000123828
-0.00022333
-0.000294171
-0.000328883
-0.000364932
-0.000419501
-0.000431884
-0.000348433
0.0015536
0.00134208
0.00113932
0.00102681
0.000872327
0.000715837
0.000546391
0.000412745
0.000293968
0.000252179
0.000198808
8.93907e-05
-2.42418e-05
-0.000105016
-0.000178475
-0.000220241
-0.000240175
-0.000273172
-0.000277256
-0.000190474
0.00153016
0.00131615
0.00110965
0.000999095
0.00084393
0.000687182
0.000526922
0.000411508
0.00031074
0.000277656
0.000242235
0.000163876
7.03119e-05
1.18329e-05
-5.00989e-05
-0.00010411
-0.000117504
-0.000127914
-0.000119652
-3.23667e-05
0.001504
0.00128918
0.00107932
0.000969576
0.000815386
0.000659783
0.000506254
0.000405526
0.000325886
0.000304769
0.000281008
0.00023176
0.000162303
0.000120924
8.06781e-05
2.1897e-05
-8.37344e-08
4.32315e-06
3.02118e-05
0.000125314
0.00147639
0.00126069
0.00104808
0.000938862
0.000785853
0.000629672
0.000480776
0.000394034
0.000333352
0.000328919
0.000320747
0.000296102
0.000258723
0.000236618
0.000218743
0.000169886
0.00013076
0.000128525
0.000157353
0.000254243
0.00144696
0.0012305
0.00101638
0.000906239
0.000755144
0.000598843
0.000448839
0.000374252
0.00033117
0.000336845
0.000348949
0.000347898
0.000343956
0.000355451
0.000366318
0.000353723
0.000329618
0.000325799
0.000341174
0.000405587
0.00141647
0.00119803
0.000982215
0.000869774
0.000719378
0.000565647
0.000412469
0.000344744
0.000322793
0.000339177
0.000368355
0.000391843
0.000406262
0.000443606
0.000473203
0.00048306
0.000490595
0.000536146
0.000617482
0.000734371
0.00138846
0.00116513
0.000944143
0.000827265
0.000676641
0.000520233
0.000362548
0.00029725
0.000291295
0.000336892
0.000405916
0.00049105
0.000573696
0.000659111
0.000708784
0.000698624
0.000627613
0.000545707
0.000504093
0.000535183
0.0013613
0.00113967
0.000908232
0.00078251
0.000629376
0.000469067
0.000293323
0.000206593
0.000160869
0.000164353
0.00022466
0.000354226
0.000552469
0.00077846
0.000982344
0.00118518
0.00139025
0.00160344
0.00181658
0.00199658
0.00133009
0.00109412
0.000864773
0.000740732
0.00058916
0.000436149
0.00027085
0.000213183
0.000227099
0.000284891
0.000402378
0.000553239
0.000691633
0.00083801
0.000933929
0.000942298
0.000882543
0.000802763
0.000742192
0.000733282
0.00131516
0.0010759
0.000816399
0.000651501
0.000477679
0.000337189
0.000188219
0.000154098
0.000209154
0.000287482
0.000395787
0.000559357
0.000706022
0.000877061
0.00110539
0.0013783
0.00165239
0.00189161
0.00208745
0.00221561
0.00130585
0.00106498
0.000798586
0.000633662
0.000466893
0.000298238
7.88715e-05
-4.60088e-05
-5.44772e-05
3.06714e-05
0.000205915
0.000480936
0.000747772
0.000976768
0.00120341
0.00139547
0.00151774
0.00159334
0.00166384
0.00172868
-0.0152201
-0.0111811
-0.0139723
-0.0185645
-0.0187392
-0.0158584
-0.0127048
-0.0101566
-0.00815407
-0.00669277
-0.00575823
-0.00498562
-0.00389934
-0.00259981
-0.00159286
-0.000911089
-0.000370251
-0.000174841
-0.000511715
-0.00102266
-0.00102437
-0.000149923
0.00130697
0.00275537
0.00381121
0.00449481
0.00499371
0.00540061
0.005777
0.00627497
0.00690739
0.00752
0.00801681
0.00836744
0.00871958
0.00924975
0.00982114
0.0104149
0.0112305
0.0121217
0.0128682
0.013584
0.0143355
0.0150072
0.0156145
0.0162958
0.0170674
0.0178185
0.0185715
0.0193402
0.0201122
0.0208754
0.0216624
0.0224617
0.0232355
0.0240432
0.0249303
0.0258465
0.0267669
0.0277051
0.0286343
0.0295679
0.0305022
0.0314704
0.0324608
0.0334677
0.0344962
0.0355124
0.0365537
0.0377028
0.0388886
0.0399636
0.0409947
0.0421425
0.0433601
0.0445933
0.0458457
0.047073
0.0482997
0.0496236
0.0509502
0.0522877
0.0536189
0.0550456
0.0564866
0.0578996
0.0593013
0.0607471
0.0623481
0.0639272
0.0655582
0.0670965
0.0687545
0.0704125
0.0721881
0.0739906
0.0758342
0.0778217
0.0796515
0.0817338
-0.0148661
-0.0112268
-0.0138685
-0.0184151
-0.0186567
-0.0158201
-0.012684
-0.0101437
-0.00814312
-0.00668157
-0.0057479
-0.00497754
-0.0038927
-0.00259304
-0.00158609
-0.000904838
-0.000363913
-0.000168303
-0.00050604
-0.0010188
-0.00102192
-0.000147598
0.00130986
0.00275864
0.00381436
0.00449757
0.00499618
0.00540285
0.00577883
0.00627647
0.00690887
0.00752151
0.00801832
0.0083688
0.00872059
0.00925068
0.00982211
0.0104157
0.0112312
0.0121225
0.012869
0.0135846
0.0143362
0.0150079
0.015615
0.0162963
0.0170679
0.017819
0.0185719
0.0193407
0.0201126
0.0208758
0.0216627
0.0224621
0.0232359
0.0240435
0.0249306
0.0258468
0.0267672
0.0277054
0.0286345
0.0295682
0.0305025
0.0314707
0.032461
0.033468
0.0344964
0.0355127
0.0365539
0.037703
0.0388888
0.0399639
0.0409949
0.0421427
0.0433603
0.0445935
0.0458459
0.0470731
0.0482999
0.0496237
0.0509503
0.0522878
0.053619
0.0550458
0.0564868
0.0578998
0.0593014
0.0607472
0.0623482
0.0639274
0.0655584
0.0670966
0.0687547
0.0704126
0.0721882
0.0739907
0.0758343
0.0778219
0.0796517
0.0817342
-0.0147813
-0.0113996
-0.0136646
-0.0181034
-0.018494
-0.015752
-0.0126498
-0.0101251
-0.00813361
-0.00667525
-0.00574067
-0.0049693
-0.00388511
-0.00258701
-0.0015813
-0.000900084
-0.000358202
-0.000162175
-0.000501162
-0.00101637
-0.00102121
-0.000146323
0.00131265
0.00276222
0.00381767
0.00450021
0.0049984
0.00540482
0.00578036
0.00627771
0.00691021
0.00752293
0.00801972
0.00836994
0.00872132
0.00925141
0.00982285
0.0104161
0.0112317
0.0121233
0.0128696
0.0135851
0.0143368
0.0150084
0.0156154
0.0162966
0.0170683
0.0178194
0.0185722
0.019341
0.020113
0.0208762
0.021663
0.0224624
0.0232362
0.0240437
0.0249308
0.025847
0.0267675
0.0277056
0.0286348
0.0295684
0.0305027
0.0314709
0.0324612
0.0334682
0.0344966
0.0355129
0.0365541
0.0377032
0.038889
0.0399641
0.040995
0.0421428
0.0433605
0.0445936
0.0458461
0.0470733
0.0483
0.0496238
0.0509505
0.052288
0.0536191
0.0550459
0.0564869
0.0578999
0.0593015
0.0607473
0.0623483
0.0639275
0.0655585
0.0670967
0.0687547
0.0704127
0.0721883
0.0739908
0.0758344
0.077822
0.0796519
0.0817347
-0.0147454
-0.011539
-0.0133721
-0.0176809
-0.0182531
-0.0156447
-0.0125917
-0.010092
-0.00811836
-0.00666903
-0.00573331
-0.0049578
-0.00387408
-0.00258099
-0.00157931
-0.000898007
-0.000353544
-0.000155493
-0.000495126
-0.00101342
-0.00102062
-0.000144912
0.00131616
0.00276673
0.00382169
0.00450325
0.00500093
0.00540721
0.00578238
0.0062794
0.00691195
0.00752471
0.00802145
0.00837133
0.00872219
0.00925222
0.00982364
0.0104166
0.0112323
0.0121242
0.0128704
0.0135857
0.0143375
0.0150091
0.0156159
0.016297
0.0170688
0.0178199
0.0185726
0.0193414
0.0201134
0.0208765
0.0216634
0.0224628
0.0232365
0.024044
0.0249311
0.0258473
0.0267677
0.0277059
0.0286351
0.0295687
0.030503
0.0314711
0.0324615
0.0334684
0.0344968
0.0355131
0.0365542
0.0377033
0.0388893
0.0399644
0.0409952
0.0421429
0.0433606
0.0445937
0.0458462
0.0470735
0.0483001
0.0496239
0.0509506
0.0522881
0.0536192
0.055046
0.056487
0.0579
0.0593016
0.0607474
0.0623484
0.0639276
0.0655586
0.0670968
0.0687548
0.0704128
0.0721883
0.0739909
0.0758344
0.0778221
0.079652
0.0817354
-0.0146663
-0.0116406
-0.0130614
-0.0172197
-0.0179754
-0.0155156
-0.0125176
-0.0100463
-0.00809633
-0.00666086
-0.00572449
-0.00494243
-0.00385909
-0.00257446
-0.00158003
-0.000899644
-0.000352128
-0.00015033
-0.000488628
-0.00100915
-0.00101873
-0.000142056
0.00132108
0.00277231
0.00382641
0.00450663
0.00500369
0.0054101
0.00578524
0.00628197
0.00691438
0.00752711
0.00802386
0.00837338
0.00872351
0.00925328
0.00982461
0.0104174
0.0112333
0.0121253
0.0128714
0.0135866
0.0143384
0.0150099
0.0156164
0.0162974
0.0170693
0.0178204
0.0185731
0.0193419
0.0201138
0.0208769
0.0216637
0.0224631
0.0232368
0.0240442
0.0249313
0.0258476
0.026768
0.0277062
0.0286353
0.0295689
0.0305032
0.0314714
0.0324617
0.0334686
0.0344971
0.0355133
0.0365544
0.0377034
0.0388896
0.0399647
0.0409953
0.042143
0.0433608
0.0445939
0.0458464
0.0470736
0.0483002
0.0496241
0.0509507
0.0522882
0.0536193
0.0550461
0.0564872
0.0579002
0.0593017
0.0607474
0.0623485
0.0639277
0.0655587
0.0670969
0.0687549
0.0704129
0.0721884
0.0739909
0.0758345
0.0778222
0.0796522
0.0817365
-0.0145619
-0.0117556
-0.0127617
-0.0167341
-0.0176714
-0.0153742
-0.0124363
-0.00999407
-0.00806942
-0.00664995
-0.00571342
-0.00492419
-0.00384179
-0.00256799
-0.00158297
-0.000904608
-0.000354805
-0.000148654
-0.000483699
-0.0010048
-0.00101547
-0.000136653
0.00132857
0.00277964
0.00383206
0.00451028
0.00500646
0.00541334
0.00578898
0.00628548
0.00691746
0.00753013
0.00802722
0.00837662
0.00872584
0.0092549
0.00982597
0.0104187
0.0112347
0.0121267
0.0128726
0.0135878
0.0143395
0.0150108
0.0156171
0.016298
0.01707
0.017821
0.0185736
0.0193425
0.0201144
0.0208774
0.0216642
0.0224636
0.0232372
0.0240446
0.0249316
0.0258479
0.0267684
0.0277066
0.0286356
0.0295692
0.0305035
0.0314716
0.032462
0.0334689
0.0344973
0.0355135
0.0365546
0.0377036
0.03889
0.039965
0.0409954
0.0421431
0.043361
0.0445941
0.0458466
0.0470738
0.0483004
0.0496242
0.0509509
0.0522884
0.0536194
0.0550462
0.0564873
0.0579003
0.0593018
0.0607474
0.0623486
0.0639278
0.0655588
0.067097
0.068755
0.0704129
0.0721884
0.073991
0.0758345
0.0778223
0.0796523
0.081738
-0.014458
-0.0118834
-0.0124628
-0.0162229
-0.0173453
-0.0152266
-0.0123533
-0.00993909
-0.00803926
-0.00663628
-0.00570019
-0.00490435
-0.00382385
-0.00256228
-0.00158759
-0.000911799
-0.000360741
-0.000150987
-0.000482404
-0.00100299
-0.00101271
-0.000129081
0.00133941
0.00278983
0.00383948
0.00451451
0.00500916
0.0054168
0.00579357
0.00628985
0.00692086
0.00753328
0.00803128
0.0083813
0.00872969
0.00925755
0.00982817
0.0104209
0.0112367
0.0121283
0.0128741
0.0135895
0.014341
0.0150119
0.0156181
0.0162988
0.0170709
0.0178218
0.0185743
0.0193432
0.0201151
0.0208781
0.0216647
0.022464
0.0232377
0.024045
0.024932
0.0258482
0.0267688
0.027707
0.028636
0.0295695
0.0305037
0.0314719
0.0324622
0.0334691
0.0344976
0.0355138
0.0365548
0.0377038
0.0388904
0.0399654
0.0409955
0.0421433
0.0433613
0.0445943
0.0458469
0.0470741
0.0483005
0.0496244
0.0509511
0.0522886
0.0536196
0.0550463
0.0564875
0.0579005
0.0593019
0.0607475
0.0623487
0.0639279
0.065559
0.0670971
0.068755
0.070413
0.0721885
0.0739911
0.0758344
0.0778223
0.0796523
0.0817398
-0.0143434
-0.0120037
-0.0121643
-0.0156962
-0.017003
-0.0150759
-0.0122706
-0.00988216
-0.00800583
-0.00661968
-0.00568509
-0.00488373
-0.00380603
-0.00255744
-0.00159357
-0.000920691
-0.000369061
-0.000156687
-0.000485345
-0.00100585
-0.00101326
-0.000121423
0.00135299
0.00280341
0.00384956
0.00451994
0.00501196
0.00542037
0.00579886
0.00629496
0.00692434
0.00753605
0.00803532
0.00838692
0.00873493
0.00926139
0.00983167
0.0104246
0.0112396
0.01213
0.0128759
0.0135916
0.0143427
0.0150134
0.0156195
0.0163001
0.017072
0.0178227
0.0185751
0.0193441
0.0201161
0.020879
0.0216654
0.0224646
0.0232383
0.0240455
0.0249324
0.0258486
0.0267692
0.0277075
0.0286364
0.0295698
0.0305041
0.0314721
0.0324625
0.0334694
0.0344978
0.0355141
0.036555
0.037704
0.0388908
0.0399658
0.0409956
0.0421434
0.0433615
0.0445945
0.0458471
0.0470743
0.0483007
0.0496246
0.0509513
0.0522888
0.0536197
0.0550464
0.0564877
0.0579007
0.0593021
0.0607475
0.0623489
0.063928
0.0655591
0.0670972
0.0687551
0.0704131
0.0721885
0.0739911
0.0758343
0.0778222
0.0796523
0.081742
-0.0142007
-0.0121121
-0.0118817
-0.0151644
-0.0166443
-0.0149192
-0.0121864
-0.00982263
-0.00796899
-0.00660032
-0.00566839
-0.00486257
-0.00378833
-0.00255329
-0.00160089
-0.000931424
-0.000379646
-0.000165293
-0.000492159
-0.00101391
-0.00101912
-0.000116314
0.00136733
0.00281958
0.00386238
0.00452701
0.00501519
0.005424
0.00580456
0.00630068
0.00692799
0.00753832
0.00803878
0.00839259
0.00874075
0.00926591
0.00983644
0.0104304
0.0112441
0.0121324
0.0128779
0.013594
0.0143445
0.015015
0.0156214
0.0163019
0.0170735
0.0178239
0.018576
0.0193451
0.0201173
0.0208802
0.0216664
0.0224655
0.0232391
0.0240462
0.0249328
0.0258489
0.0267698
0.0277081
0.0286368
0.0295702
0.0305045
0.0314725
0.0324628
0.0334696
0.034498
0.0355143
0.0365553
0.0377042
0.0388913
0.0399662
0.0409957
0.0421436
0.0433618
0.0445948
0.0458474
0.0470746
0.0483009
0.0496248
0.0509516
0.052289
0.0536199
0.0550466
0.0564879
0.0579009
0.0593022
0.0607476
0.062349
0.0639282
0.0655592
0.0670974
0.0687552
0.0704132
0.0721885
0.0739912
0.0758342
0.0778219
0.0796523
0.0817446
-0.0140263
-0.0122155
-0.0116259
-0.0146296
-0.0162637
-0.014753
-0.0121001
-0.00976108
-0.00792939
-0.0065785
-0.00565012
-0.00484058
-0.00377058
-0.0025497
-0.00160966
-0.000944404
-0.000392815
-0.000176735
-0.000502222
-0.0010267
-0.00103089
-0.000115634
0.0013801
0.0028364
0.00387684
0.00453544
0.00501897
0.00542773
0.00581038
0.00630671
0.00693192
0.00754043
0.00804166
0.00839773
0.00874621
0.00927014
0.00984172
0.0104379
0.0112504
0.0121357
0.0128805
0.0135966
0.0143462
0.0150165
0.0156237
0.0163043
0.0170755
0.0178254
0.0185771
0.0193461
0.0201185
0.0208817
0.0216677
0.0224667
0.0232404
0.0240473
0.0249333
0.0258493
0.0267703
0.0277087
0.0286373
0.0295707
0.0305049
0.031473
0.0324632
0.03347
0.0344982
0.0355146
0.0365555
0.0377044
0.0388918
0.0399668
0.0409958
0.0421438
0.0433622
0.0445951
0.0458477
0.0470749
0.0483011
0.049625
0.0509519
0.0522893
0.0536202
0.0550469
0.0564882
0.0579012
0.0593024
0.0607476
0.0623492
0.0639283
0.0655594
0.0670975
0.0687554
0.0704133
0.0721885
0.0739913
0.0758339