/*--------------------------------*- C++ -*----------------------------------*\
| =========                 |                                                 |
| \\      /  F ield         | OpenFOAM: The Open Source CFD Toolbox           |
|  \\    /   O peration     | Version:  v1912                                 |
|   \\  /    A nd           | Website:  www.openfoam.com                      |
|    \\/     M anipulation  |                                                 |
\*---------------------------------------------------------------------------*/
FoamFile
{
    version     2.0;
    format      ascii;
    class       surfaceScalarField;
    location    "4";
    object      phi;
}
// * * * * * * * * * * * * * * * * * * * * * * * * * * * * * * * * * * * * * //

dimensions      [0 3 -1 0 0 0 0];
oriented        oriented;


internalField   nonuniform List<scalar> 
19000
(
1.14283e-06
-1.19695e-06
1.16583e-06
5.21328e-07
1.17037e-06
-5.02227e-07
1.18339e-06
1.79283e-07
1.20707e-06
2.2352e-06
1.1396e-06
-4.29652e-07
1.14569e-06
8.51841e-07
1.11801e-06
-7.74611e-07
1.08506e-06
-1.78528e-06
1.12957e-06
-9.50094e-07
1.19742e-06
-2.5026e-08
1.1654e-06
-8.8852e-07
1.22847e-06
1.09245e-06
1.17822e-06
-5.95077e-08
1.26102e-06
1.14946e-06
1.21849e-06
5.96894e-07
1.27053e-06
9.5935e-07
1.24852e-06
8.12205e-07
1.24247e-06
6.29936e-07
6.50243e-07
1.24852e-06
1.20081e-06
-1.1735e-06
1.22214e-06
5.00004e-07
1.2294e-06
-5.09494e-07
1.24309e-06
1.65591e-07
1.26386e-06
2.21444e-06
1.20233e-06
-3.6813e-07
1.19424e-06
8.59932e-07
1.16811e-06
-7.48475e-07
1.13717e-06
-1.75435e-06
1.18088e-06
-9.938e-07
1.24707e-06
-9.12185e-08
1.22118e-06
-8.62629e-07
1.27783e-06
1.0358e-06
1.23983e-06
-2.15071e-08
1.29985e-06
1.08943e-06
1.29462e-06
6.02133e-07
1.30529e-06
9.48672e-07
1.33246e-06
7.85043e-07
1.27896e-06
6.8343e-07
5.99303e-07
1.3299e-06
1.26015e-06
-1.15087e-06
1.28228e-06
4.77868e-07
1.29158e-06
-5.1879e-07
1.30553e-06
1.51637e-07
1.32791e-06
2.19206e-06
1.2722e-06
-3.12415e-07
1.2519e-06
8.80227e-07
1.22974e-06
-7.26308e-07
1.19761e-06
-1.72222e-06
1.23305e-06
-1.02924e-06
1.29733e-06
-1.55504e-07
1.27863e-06
-8.43924e-07
1.32955e-06
9.84879e-07
1.30497e-06
3.06944e-09
1.34813e-06
1.04627e-06
1.36705e-06
5.83218e-07
1.36002e-06
9.557e-07
1.39271e-06
7.52356e-07
1.35854e-06
7.17598e-07
5.96493e-07
1.36135e-06
1.32136e-06
-1.12812e-06
1.34282e-06
4.56402e-07
1.35551e-06
-5.31482e-07
1.37335e-06
1.33803e-07
1.39768e-06
2.16773e-06
1.34771e-06
-2.62446e-07
1.31659e-06
9.11343e-07
1.29369e-06
-7.03406e-07
1.25984e-06
-1.68837e-06
1.28713e-06
-1.05653e-06
1.3477e-06
-2.1607e-07
1.34234e-06
-8.38566e-07
1.38718e-06
9.40032e-07
1.37898e-06
1.12705e-08
1.41052e-06
1.01474e-06
1.43913e-06
5.54603e-07
1.43728e-06
9.57558e-07
1.45486e-06
7.34772e-07
1.44742e-06
7.25038e-07
6.09946e-07
1.43397e-06
1.3848e-06
-1.10457e-06
1.40404e-06
4.37166e-07
1.42034e-06
-5.47783e-07
1.44546e-06
1.08681e-07
1.47156e-06
2.14163e-06
1.42542e-06
-2.16313e-07
1.38906e-06
9.47711e-07
1.36192e-06
-6.76273e-07
1.32633e-06
-1.65278e-06
1.34566e-06
-1.07585e-06
1.40124e-06
-2.71653e-07
1.41024e-06
-8.47564e-07
1.45254e-06
8.97726e-07
1.45672e-06
7.09599e-09
1.48533e-06
9.86119e-07
1.51148e-06
5.28456e-07
1.52251e-06
9.46523e-07
1.52846e-06
7.2883e-07
1.53268e-06
7.20817e-07
6.2229e-07
1.52033e-06
1.45144e-06
-1.08033e-06
1.46787e-06
4.20737e-07
1.48567e-06
-5.65588e-07
1.51905e-06
7.52983e-08
1.54633e-06
2.11436e-06
1.50304e-06
-1.73026e-07
1.46721e-06
9.83541e-07
1.43303e-06
-6.42087e-07
1.39619e-06
-1.61594e-06
1.41005e-06
-1.08972e-06
1.46054e-06
-3.22141e-07
1.47963e-06
-8.66653e-07
1.52413e-06
8.53218e-07
1.53589e-06
-4.66317e-09
1.56502e-06
9.56995e-07
1.58458e-06
5.08894e-07
1.60476e-06
9.26342e-07
1.60625e-06
7.27339e-07
1.61487e-06
7.12202e-07
6.32127e-07
1.60503e-06
1.52226e-06
-1.05637e-06
1.53638e-06
4.06618e-07
1.55138e-06
-5.80587e-07
1.59111e-06
3.55726e-08
1.61916e-06
2.0863e-06
1.57986e-06
-1.33728e-07
1.55009e-06
1.01331e-06
1.50827e-06
-6.00264e-07
1.46978e-06
-1.57745e-06
1.48076e-06
-1.10069e-06
1.52661e-06
-3.67996e-07
1.54984e-06
-8.89879e-07
1.59956e-06
8.03498e-07
1.61615e-06
-2.12588e-08
1.64639e-06
9.26758e-07
1.65983e-06
4.95453e-07
1.68453e-06
9.01644e-07
1.68476e-06
7.27107e-07
1.69627e-06
7.00698e-07
6.40688e-07
1.6877e-06
1.59772e-06
-1.03396e-06
1.61059e-06
3.93748e-07
1.61786e-06
-5.87863e-07
1.66037e-06
-6.92859e-09
1.68916e-06
2.05751e-06
1.65674e-06
-1.0131e-07
1.63764e-06
1.03241e-06
1.58848e-06
-5.51107e-07
1.5474e-06
-1.53637e-06
1.55731e-06
-1.1106e-06
1.59908e-06
-4.09771e-07
1.62212e-06
-9.12918e-07
1.67762e-06
7.47998e-07
1.69777e-06
-4.14128e-08
1.73016e-06
8.9437e-07
1.73927e-06
4.86341e-07
1.76636e-06
8.74554e-07
1.76583e-06
7.27636e-07
1.77925e-06
6.87277e-07
6.48782e-07
1.77116e-06
1.67766e-06
-1.01405e-06
1.69039e-06
3.81022e-07
1.68649e-06
-5.83966e-07
1.72844e-06
-4.88738e-08
1.75805e-06
2.0279e-06
1.73527e-06
-7.85316e-08
1.73002e-06
1.03766e-06
1.6743e-06
-4.9538e-07
1.62987e-06
-1.49195e-06
1.63926e-06
-1.11999e-06
1.67688e-06
-4.47388e-07
1.6977e-06
-9.33735e-07
1.75851e-06
6.87189e-07
1.78153e-06
-6.44319e-08
1.81755e-06
8.58345e-07
1.82385e-06
4.80045e-07
1.85283e-06
8.45574e-07
1.85133e-06
7.29135e-07
1.8653e-06
6.73306e-07
6.56988e-07
1.85709e-06
1.76171e-06
-9.97035e-07
1.77507e-06
3.67661e-07
1.75936e-06
-5.68262e-07
1.79905e-06
-8.85565e-08
1.82938e-06
1.99757e-06
1.81687e-06
-6.6021e-08
1.82647e-06
1.02805e-06
1.76561e-06
-4.34515e-07
1.71793e-06
-1.44427e-06
1.72637e-06
-1.12843e-06
1.75859e-06
-4.79603e-07
1.77639e-06
-9.51541e-07
1.84243e-06
6.21155e-07
1.86802e-06
-9.00262e-08
1.90902e-06
8.17349e-07
1.91337e-06
4.75693e-07
1.94399e-06
8.14953e-07
1.94135e-06
7.31771e-07
1.95458e-06
6.60081e-07
6.65635e-07
1.94593e-06
1.84947e-06
-9.82754e-07
1.86367e-06
3.53459e-07
1.83837e-06
-5.42961e-07
1.87579e-06
-1.2598e-07
1.90664e-06
1.96672e-06
1.90217e-06
-6.15506e-08
1.92501e-06
1.00522e-06
1.8615e-06
-3.71005e-07
1.81165e-06
-1.39443e-06
1.81828e-06
-1.13505e-06
1.84281e-06
-5.04138e-07
1.85692e-06
-9.65649e-07
1.92839e-06
5.49687e-07
1.95654e-06
-1.18177e-07
2.00393e-06
7.69955e-07
2.00708e-06
4.72543e-07
2.03898e-06
7.83059e-07
2.03518e-06
7.3557e-07
2.04654e-06
6.48716e-07
6.74793e-07
2.03738e-06
1.94065e-06
-9.70568e-07
1.95529e-06
3.38818e-07
1.92432e-06
-5.11991e-07
1.96002e-06
-1.61677e-07
1.99152e-06
1.93522e-06
1.99106e-06
-6.10831e-08
2.02329e-06
9.72986e-07
1.96064e-06
-3.08354e-07
1.91025e-06
-1.34405e-06
1.9141e-06
-1.1389e-06
1.92886e-06
-5.18898e-07
1.93825e-06
-9.75039e-07
2.01428e-06
4.7366e-07
2.04459e-06
-1.4849e-07
2.10003e-06
7.14517e-07
2.10321e-06
4.69366e-07
2.13628e-06
7.49982e-07
2.13154e-06
7.40312e-07
2.14002e-06
6.40233e-07
6.84319e-07
2.1305e-06
2.03513e-06
-9.59508e-07
2.04948e-06
3.24463e-07
2.01689e-06
-4.79394e-07
2.05056e-06
-1.95347e-07
2.08331e-06
1.90246e-06
2.08299e-06
-6.07635e-08
2.11999e-06
9.35989e-07
2.06206e-06
-2.50422e-07
2.01255e-06
-1.29454e-06
2.0125e-06
-1.13885e-06
2.01722e-06
-5.2362e-07
2.02075e-06
-9.78565e-07
2.09829e-06
3.96122e-07
2.1291e-06
-1.793e-07
2.19343e-06
6.50187e-07
2.19824e-06
4.64555e-07
2.23288e-06
7.15341e-07
2.22791e-06
7.4528e-07
2.23275e-06
6.35401e-07
6.93672e-07
2.22339e-06
2.13304e-06
-9.48551e-07
2.1465e-06
3.11011e-07
2.11516e-06
-4.48062e-07
2.14531e-06
-2.25497e-07
2.18e-06
1.86778e-06
2.17766e-06
-5.8424e-08
2.21562e-06
8.98031e-07
2.1656e-06
-2.00405e-07
2.11778e-06
-1.24672e-06
2.11245e-06
-1.13352e-06
2.10932e-06
-5.20495e-07
2.10614e-06
-9.75379e-07
2.18062e-06
3.21634e-07
2.20874e-06
-2.07413e-07
2.28043e-06
5.78493e-07
2.28792e-06
4.5707e-07
2.32441e-06
6.78844e-07
2.32051e-06
7.49183e-07
2.32152e-06
6.34392e-07
7.01632e-07
2.31356e-06
2.23484e-06
-9.36901e-07
2.24718e-06
2.98674e-07
2.2184e-06
-4.19289e-07
2.24313e-06
-2.50229e-07
2.28002e-06
1.8309e-06
2.2754e-06
-5.38086e-08
2.31228e-06
8.61156e-07
2.2718e-06
-1.5993e-07
2.22604e-06
-1.20096e-06
2.21413e-06
-1.12161e-06
2.2067e-06
-5.13066e-07
2.19644e-06
-9.65115e-07
2.26379e-06
2.54283e-07
2.2854e-06
-2.2903e-07
2.36014e-06
5.03761e-07
2.3699e-06
4.47306e-07
2.40764e-06
6.411e-07
2.40631e-06
7.50518e-07
2.40409e-06
6.36609e-07
7.06444e-07
2.39928e-06
2.34109e-06
-9.24118e-07
2.35251e-06
2.87254e-07
2.3263e-06
-3.93074e-07
2.34435e-06
-2.68277e-07
2.38319e-06
1.79205e-06
2.37719e-06
-4.78147e-08
2.41258e-06
8.25765e-07
2.38147e-06
-1.2882e-07
2.33792e-06
-1.1574e-06
2.31887e-06
-1.10256e-06
2.31027e-06
-5.04458e-07
2.29301e-06
-9.47859e-07
2.3512e-06
1.96097e-07
2.36339e-06
-2.41225e-07
2.43549e-06
4.3166e-07
2.44581e-06
4.3699e-07
2.48311e-06
6.03801e-07
2.48552e-06
7.48108e-07
2.4813e-06
6.40825e-07
7.06518e-07
2.48123e-06
2.45233e-06
-9.10054e-07
2.46325e-06
2.76335e-07
2.43893e-06
-3.68757e-07
2.45011e-06
-2.79455e-07
2.49045e-06
1.75171e-06
2.48421e-06
-4.15721e-08
2.51862e-06
7.91353e-07
2.49536e-06
-1.05562e-07
2.45406e-06
-1.1161e-06
2.42825e-06
-1.07675e-06
2.42017e-06
-4.96384e-07
2.39639e-06
-9.24078e-07
2.44551e-06
1.46979e-07
2.44717e-06
-2.42892e-07
2.51182e-06
3.67012e-07
2.52062e-06
4.28192e-07
2.55534e-06
5.69078e-07
2.56206e-06
7.41393e-07
2.55725e-06
6.45632e-07
7.01075e-07
2.56269e-06
2.56895e-06
-8.94712e-07
2.5798e-06
2.65487e-07
2.55661e-06
-3.45563e-07
2.56161e-06
-2.84459e-07
2.60305e-06
1.71028e-06
2.59739e-06
-3.59156e-08
2.63154e-06
7.57198e-07
2.61409e-06
-8.81048e-08
2.57486e-06
-1.07687e-06
2.5433e-06
-1.04519e-06
2.53622e-06
-4.89301e-07
2.5067e-06
-8.94562e-07
2.54799e-06
1.05693e-07
2.53983e-06
-2.34731e-07
2.59438e-06
3.12462e-07
2.60025e-06
4.22318e-07
2.63067e-06
5.38656e-07
2.6417e-06
7.30367e-07
2.63755e-06
6.49787e-07
6.90392e-07
2.64823e-06
2.69127e-06
-8.7815e-07
2.70238e-06
2.54374e-07
2.67968e-06
-3.22863e-07
2.67963e-06
-2.84412e-07
2.72191e-06
1.668e-06
2.71727e-06
-3.12756e-08
2.75177e-06
7.22698e-07
2.73816e-06
-7.44907e-08
2.70064e-06
-1.03936e-06
2.66452e-06
-1.00907e-06
2.65824e-06
-4.83015e-07
2.62405e-06
-8.60379e-07
2.65896e-06
7.07811e-08
2.64283e-06
-2.186e-07
2.68682e-06
2.68479e-07
2.68945e-06
4.1969e-07
2.71465e-06
5.13446e-07
2.72968e-06
7.15343e-07
2.72699e-06
6.5248e-07
6.75446e-07
2.74193e-06
2.81955e-06
-8.60433e-07
2.83115e-06
2.42777e-07
2.80849e-06
-3.00207e-07
2.8046e-06
-2.80515e-07
2.84758e-06
1.62501e-06
2.84407e-06
-2.77663e-08
2.87934e-06
6.87437e-07
2.868e-06
-6.31588e-08
2.83174e-06
-1.0031e-06
2.79211e-06
-9.69439e-07
2.7862e-06
-4.7711e-07
2.74857e-06
-8.22742e-07
2.77836e-06
4.09898e-08
2.75655e-06
-1.96792e-07
2.79098e-06
2.34051e-07
2.79098e-06
4.19692e-07
2.81083e-06
4.93595e-07
2.82938e-06
6.96792e-07
2.82862e-06
6.53237e-07
6.57639e-07
2.84643e-06
2.9541e-06
-8.41634e-07
2.96631e-06
2.30568e-07
2.94337e-06
-2.77273e-07
2.9367e-06
-2.73848e-07
2.98032e-06
1.58139e-06
2.97784e-06
-2.52822e-08
3.01411e-06
6.51167e-07
3.00396e-06
-5.30046e-08
2.96855e-06
-9.67696e-07
2.92625e-06
-9.27137e-07
2.92026e-06
-4.71113e-07
2.88037e-06
-7.82851e-07
2.90594e-06
1.54125e-08
2.88074e-06
-1.71592e-07
2.9073e-06
2.07492e-07
2.90584e-06
4.21149e-07
2.9208e-06
4.78641e-07
2.94223e-06
6.75362e-07
2.94368e-06
6.51784e-07
6.38466e-07
2.96286e-06
3.09519e-06
-8.21821e-07
3.10808e-06
2.17685e-07
3.08461e-06
-2.53804e-07
3.07606e-06
-2.65303e-07
3.12029e-06
1.53717e-06
3.11856e-06
-2.35492e-08
3.15593e-06
6.1379e-07
3.14626e-06
-4.33349e-08
3.11148e-06
-9.32912e-07
3.06721e-06
-8.82866e-07
3.06065e-06
-4.64555e-07
3.01956e-06
-7.41758e-07
3.04146e-06
-6.49381e-09
3.01485e-06
-1.44974e-07
3.03535e-06
1.86991e-07
3.03375e-06
4.22743e-07
3.04468e-06
4.67711e-07
3.06822e-06
6.51821e-07
3.07203e-06
6.4798e-07
6.19204e-07
3.09129e-06
3.24314e-06
-8.01047e-07
3.25672e-06
2.04097e-07
3.23251e-06
-2.2959e-07
3.22279e-06
-2.55587e-07
3.26765e-06
1.49231e-06
3.26625e-06
-2.21497e-08
3.30468e-06
5.75358e-07
3.29514e-06
-3.37904e-08
3.26087e-06
-8.98642e-07
3.21526e-06
-8.3726e-07
3.20774e-06
-4.57031e-07
3.1663e-06
-7.00316e-07
3.18472e-06
-2.49206e-08
3.15822e-06
-1.18467e-07
3.17425e-06
1.70962e-07
3.17368e-06
4.23311e-07
3.18159e-06
4.59798e-07
3.2065e-06
6.2691e-07
3.21275e-06
6.41728e-07
6.00848e-07
3.23111e-06
3.39822e-06
-7.79337e-07
3.41255e-06
1.89769e-07
3.38742e-06
-2.04461e-07
3.3771e-06
-2.45264e-07
3.42265e-06
1.44676e-06
3.42104e-06
-2.05442e-08
3.46034e-06
5.36058e-07
3.4508e-06
-2.42441e-08
3.41705e-06
-8.64892e-07
3.37072e-06
-7.90934e-07
3.36188e-06
-4.48191e-07
3.32077e-06
-6.59204e-07
3.3357e-06
-3.9853e-08
3.31033e-06
-9.30971e-08
3.3231e-06
1.58194e-07
3.32439e-06
4.22026e-07
3.33022e-06
4.53963e-07
3.35587e-06
6.0126e-07
3.36465e-06
6.32953e-07
5.84017e-07
3.38148e-06
3.56075e-06
-7.56678e-07
3.57588e-06
1.74643e-07
3.54973e-06
-1.78308e-07
3.53925e-06
-2.34791e-07
3.5856e-06
1.40041e-06
3.58317e-06
-1.81166e-08
3.62305e-06
4.96175e-07
3.6135e-06
-1.46977e-08
3.58032e-06
-8.3171e-07
3.5339e-06
-7.44515e-07
3.52342e-06
-4.37704e-07
3.48324e-06
-6.19028e-07
3.49457e-06
-5.1186e-08
3.47086e-06
-6.93882e-08
3.48124e-06
1.47823e-07
3.48481e-06
4.18453e-07
3.48931e-06
4.49457e-07
3.51517e-06
5.75404e-07
3.52654e-06
6.21578e-07
5.68976e-07
3.54158e-06
3.73104e-06
-7.33015e-07
3.74706e-06
1.58626e-07
3.71985e-06
-1.51097e-07
3.7096e-06
-2.24546e-07
3.75685e-06
1.35317e-06
3.75297e-06
-1.42456e-08
3.7931e-06
4.56049e-07
3.78359e-06
-5.18365e-09
3.75101e-06
-7.99131e-07
3.70515e-06
-6.98658e-07
3.69267e-06
-4.25227e-07
3.65395e-06
-5.80303e-07
3.6617e-06
-5.89356e-08
3.63971e-06
-4.74036e-08
3.64824e-06
1.39301e-07
3.65418e-06
4.12508e-07
3.65791e-06
4.45731e-07
3.68348e-06
5.49826e-07
3.69752e-06
6.07547e-07
5.55629e-07
3.71086e-06
3.90943e-06
-7.08257e-07
3.92645e-06
1.41606e-07
3.89824e-06
-1.22886e-07
3.88853e-06
-2.14831e-07
3.93679e-06
1.30491e-06
3.93093e-06
-8.39365e-09
3.97095e-06
4.16034e-07
3.96146e-06
4.30996e-09
3.92944e-06
-7.67119e-07
3.88481e-06
-6.54028e-07
3.87007e-06
-4.10478e-07
3.83317e-06
-5.4341e-07
3.83752e-06
-6.32838e-08
3.81701e-06
-2.68931e-08
3.82396e-06
1.32349e-07
3.83215e-06
4.04316e-07
3.83544e-06
4.42447e-07
3.86022e-06
5.25044e-07
3.877e-06
5.90767e-07
5.43643e-07
3.88899e-06
4.0963e-06
-6.82302e-07
4.11443e-06
1.23474e-07
4.08536e-06
-9.3822e-08
4.07639e-06
-2.05858e-07
4.1258e-06
1.2555e-06
4.11759e-06
-1.84856e-10
4.15716e-06
3.7646e-07
4.1476e-06
1.38715e-08
4.11601e-06
-7.35527e-07
4.07323e-06
-6.11254e-07
4.05604e-06
-3.93281e-07
4.02118e-06
-5.08549e-07
4.02254e-06
-6.4643e-08
4.00309e-06
-7.44227e-09
4.00854e-06
1.26891e-07
4.01874e-06
3.94117e-07
4.02182e-06
4.39373e-07
4.04524e-06
5.01621e-07
4.0648e-06
5.71206e-07
5.32444e-07
4.076e-06
4.29206e-06
-6.55062e-07
4.31137e-06
1.04169e-07
4.28167e-06
-6.41253e-08
4.27353e-06
-1.9772e-07
4.32423e-06
1.20481e-06
4.31348e-06
1.05598e-08
4.35234e-06
3.376e-07
4.34257e-06
2.36411e-08
4.31112e-06
-7.04071e-07
4.27075e-06
-5.70889e-07
4.25107e-06
-3.736e-07
4.21823e-06
-4.75707e-07
4.21722e-06
-6.36384e-08
4.19841e-06
1.13692e-08
4.20233e-06
1.22971e-07
4.21426e-06
3.82187e-07
4.21734e-06
4.36292e-07
4.23887e-06
4.80089e-07
4.26105e-06
5.49031e-07
5.21266e-07
4.27223e-06
4.49721e-06
-6.26494e-07
4.51768e-06
8.36968e-08
4.48762e-06
-3.4069e-08
4.48027e-06
-1.90364e-07
4.53238e-06
1.15269e-06
4.51913e-06
2.3815e-08
4.55707e-06
2.99663e-07
4.54697e-06
3.37377e-08
4.51524e-06
-6.72341e-07
4.47773e-06
-5.33381e-07
4.45563e-06
-3.51503e-07
4.42462e-06
-4.44688e-07
4.42199e-06
-6.10166e-08
4.40353e-06
2.98371e-08
4.40583e-06
1.20664e-07
4.41922e-06
3.68801e-07
4.4226e-06
4.32915e-07
4.44181e-06
4.60878e-07
4.46612e-06
5.24719e-07
5.09223e-07
4.47816e-06
4.71224e-06
-5.96616e-07
4.73378e-06
6.21517e-08
4.70367e-06
-3.95948e-09
4.69688e-06
-1.83569e-07
4.75054e-06
1.09903e-06
4.73497e-06
3.93854e-08
4.77183e-06
2.62804e-07
4.7614e-06
4.41652e-08
4.72889e-06
-6.39832e-07
4.69456e-06
-4.99048e-07
4.67025e-06
-3.27194e-07
4.64066e-06
-4.151e-07
4.63722e-06
-5.7576e-08
4.61898e-06
4.80794e-08
4.61956e-06
1.20081e-07
4.63416e-06
3.54199e-07
4.63824e-06
4.28835e-07
4.65489e-06
4.44225e-07
4.68045e-06
4.99161e-07
4.95345e-07
4.69433e-06
4.93769e-06
-5.6551e-07
4.96014e-06
3.96996e-08
4.9303e-06
2.58797e-08
4.92369e-06
-1.76956e-07
4.97897e-06
1.04376e-06
4.96139e-06
5.69583e-08
4.99704e-06
2.27152e-07
4.98647e-06
5.47375e-08
4.95266e-06
-6.06016e-07
4.92161e-06
-4.68001e-07
4.89547e-06
-3.01055e-07
4.86674e-06
-3.86367e-07
4.86321e-06
-5.40471e-08
4.84529e-06
6.60029e-08
4.844e-06
1.21364e-07
4.85961e-06
3.38589e-07
4.86487e-06
4.23582e-07
4.87899e-06
4.30101e-07
4.90465e-06
4.73497e-07
4.78939e-07
4.92106e-06
5.17411e-06
-5.33306e-07
5.19725e-06
1.65611e-08
5.16803e-06
5.51014e-08
5.1611e-06
-1.7003e-07
5.21799e-06
9.86865e-07
5.19879e-06
7.61622e-08
5.2331e-06
1.9284e-07
5.22277e-06
6.50738e-08
5.18716e-06
-5.70414e-07
5.15933e-06
-4.40167e-07
5.13189e-06
-2.73616e-07
5.10334e-06
-3.57819e-07
5.10024e-06
-5.09489e-08
5.08298e-06
8.32694e-08
5.07967e-06
1.24669e-07
5.09604e-06
3.22217e-07
5.10287e-06
4.16755e-07
5.11478e-06
4.18194e-07
5.13945e-06
4.48829e-07
4.59822e-07
5.15856e-06
5.42205e-06
-5.0017e-07
5.44563e-06
-7.01071e-09
5.4174e-06
8.33233e-08
5.4096e-06
-1.6223e-07
5.46803e-06
9.28437e-07
5.44761e-06
9.658e-08
5.48036e-06
1.6009e-07
5.47082e-06
7.46165e-08
5.43308e-06
-5.3267e-07
5.40817e-06
-4.15261e-07
5.38012e-06
-2.45565e-07
5.35107e-06
-3.28768e-07
5.34868e-06
-4.856e-08
5.33255e-06
9.93995e-08
5.3271e-06
1.30115e-07
5.34386e-06
3.05465e-07
5.3526e-06
4.08014e-07
5.36284e-06
4.0795e-07
5.38549e-06
4.26179e-07
4.38365e-07
5.40695e-06
5.68208e-06
-4.66294e-07
5.70581e-06
-3.07411e-08
5.67903e-06
1.10109e-07
5.66978e-06
-1.52987e-07
5.72958e-06
8.68646e-07
5.70843e-06
1.17725e-07
5.73924e-06
1.29285e-07
5.73113e-06
8.2721e-08
5.69109e-06
-4.92626e-07
5.66863e-06
-3.92804e-07
5.64072e-06
-2.17656e-07
5.61064e-06
-2.98687e-07
5.6089e-06
-4.6818e-08
5.59446e-06
1.13841e-07
5.58699e-06
1.37582e-07
5.60348e-06
2.88979e-07
5.61439e-06
3.97105e-07
5.62369e-06
3.98649e-07
5.64366e-06
4.06209e-07
4.15496e-07
5.66653e-06
5.95478e-06
-4.31881e-07
5.97838e-06
-5.43415e-08
5.95354e-06
1.3495e-07
5.94231e-06
-1.41756e-07
6.00319e-06
8.07767e-07
5.9819e-06
1.39007e-07
6.0102e-06
1.00986e-07
6.00417e-06
8.87548e-08
5.9619e-06
-4.50357e-07
5.94125e-06
-3.72156e-07
5.91429e-06
-1.90699e-07
5.88284e-06
-2.67234e-07
5.88143e-06
-4.54075e-08
5.86923e-06
1.26046e-07
5.86005e-06
1.46759e-07
5.87547e-06
2.73557e-07
5.88859e-06
3.83982e-07
5.8977e-06
3.8954e-07
5.91486e-06
3.89049e-07
3.92459e-07
5.9379e-06
6.24076e-06
-3.97155e-07
6.26392e-06
-7.74977e-08
6.24162e-06
1.57248e-07
6.22788e-06
-1.28019e-07
6.28947e-06
7.46181e-07
6.26867e-06
1.59804e-07
6.29381e-06
7.58503e-08
6.29039e-06
9.21718e-08
6.24623e-06
-4.06196e-07
6.22662e-06
-3.52542e-07
6.20137e-06
-1.65455e-07
6.16852e-06
-2.34382e-07
6.16688e-06
-4.37619e-08
6.15742e-06
1.35502e-07
6.147e-06
1.57175e-07
6.16065e-06
2.59913e-07
6.17565e-06
3.68981e-07
6.18525e-06
3.79942e-07
6.2e-06
3.74292e-07
3.70519e-07
6.22194e-06
6.54067e-06
-3.62356e-07
6.56304e-06
-9.98647e-08
6.54402e-06
1.76269e-07
6.52726e-06
-1.11267e-07
6.58901e-06
6.84432e-07
6.5694e-06
1.79415e-07
6.5907e-06
5.45523e-08
6.59025e-06
9.2623e-08
6.5448e-06
-3.60745e-07
6.52537e-06
-3.33115e-07
6.5025e-06
-1.42584e-07
6.46851e-06
-2.00391e-07
6.46594e-06
-4.11972e-08
6.45953e-06
1.41919e-07
6.44858e-06
1.68125e-07
6.45986e-06
2.48626e-07
6.4763e-06
3.52549e-07
6.48671e-06
3.69525e-07
6.49987e-06
3.61132e-07
3.50707e-07
6.51969e-06
6.85518e-06
-3.27747e-07
6.87637e-06
-1.21058e-07
6.8615e-06
1.91144e-07
6.84126e-06
-9.10285e-08
6.90245e-06
6.23247e-07
6.88476e-06
1.97105e-07
6.90158e-06
3.77246e-08
6.90419e-06
9.00121e-08
6.85831e-06
-3.14861e-07
6.83822e-06
-3.13025e-07
6.81814e-06
-1.22501e-07
6.78362e-06
-1.6587e-07
6.77945e-06
-3.70285e-08
6.77608e-06
1.45286e-07
6.76533e-06
1.78877e-07
6.77405e-06
2.39909e-07
6.79132e-06
3.35275e-07
6.80279e-06
3.58057e-07
6.81505e-06
3.48869e-07
3.3346e-07
6.8323e-06
7.185e-06
-2.93612e-07
7.20461e-06
-1.40664e-07
7.19485e-06
2.009e-07
7.17072e-06
-6.69003e-08
7.23044e-06
5.63528e-07
7.2154e-06
2.12151e-07
7.22728e-06
2.58447e-08
7.23273e-06
8.4557e-08
7.18745e-06
-2.6958e-07
7.16599e-06
-2.91561e-07
7.14878e-06
-1.05293e-07
7.11455e-06
-1.3164e-07
7.10821e-06
-3.06929e-08
7.10765e-06
1.45848e-07
7.09787e-06
1.88657e-07
7.10394e-06
2.33841e-07
7.12145e-06
3.17767e-07
7.13414e-06
3.45369e-07
7.14615e-06
3.3685e-07
3.18441e-07
7.16117e-06
7.53087e-06
-2.60251e-07
7.54843e-06
-1.58232e-07
7.54435e-06
2.04978e-07
7.51651e-06
-3.90516e-08
7.57377e-06
5.06264e-07
7.56199e-06
2.23928e-07
7.56862e-06
1.922e-08
7.57647e-06
7.67003e-08
7.53287e-06
-2.25975e-07
7.50953e-06
-2.68226e-07
7.49496e-06
-9.07229e-08
7.46198e-06
-9.86541e-08
7.45316e-06
-2.18717e-08
7.45495e-06
1.44052e-07
7.44696e-06
1.96652e-07
7.45047e-06
2.30325e-07
7.467e-06
3.01243e-07
7.48071e-06
3.31658e-07
7.49321e-06
3.24346e-07
3.04966e-07
7.50669e-06
7.89352e-06
-2.27961e-07
7.90861e-06
-1.73325e-07
7.90924e-06
2.0435e-07
7.8794e-06
-9.21004e-09
7.93321e-06
4.52453e-07
7.92523e-06
2.31912e-07
7.92673e-06
1.77136e-08
7.93616e-06
6.72763e-08
7.8952e-06
-1.85016e-07
7.86979e-06
-2.42811e-07
7.85733e-06
-7.8267e-08
7.82651e-06
-6.78393e-08
7.8152e-06
-1.05576e-08
7.8187e-06
1.40549e-07
7.81339e-06
2.01962e-07
7.8151e-06
2.28621e-07
7.82902e-06
2.87319e-07
7.84189e-06
3.18792e-07
7.85327e-06
3.12967e-07
2.90699e-07
7.86753e-06
8.27375e-06
-1.97028e-07
8.2859e-06
-1.85479e-07
8.29035e-06
1.99906e-07
8.26027e-06
2.0868e-08
8.30975e-06
4.02975e-07
8.3057e-06
2.35955e-07
8.30277e-06
2.06493e-08
8.31256e-06
5.74821e-08
8.2751e-06
-1.47552e-07
8.24766e-06
-2.15369e-07
8.23673e-06
-6.73433e-08
8.20877e-06
-3.98781e-08
8.19533e-06
2.8868e-09
8.19962e-06
1.36254e-07
8.19772e-06
2.03867e-07
8.19969e-06
2.26649e-07
8.21436e-06
2.72647e-07
8.23112e-06
3.02035e-07
8.24512e-06
2.98962e-07
2.78762e-07
8.25706e-06
8.67238e-06
-1.67743e-07
8.68111e-06
-1.94215e-07
8.68885e-06
1.92173e-07
8.65989e-06
4.98273e-08
8.70431e-06
3.58554e-07
8.70416e-06
2.36102e-07
8.69781e-06
2.70023e-08
8.70663e-06
4.86585e-08
8.67321e-06
-1.14131e-07
8.64417e-06
-1.86328e-07
8.63401e-06
-5.71808e-08
8.60936e-06
-1.52346e-08
8.59446e-06
1.7791e-08
8.59851e-06
1.32204e-07
8.60071e-06
2.0167e-07
8.60549e-06
2.21865e-07
8.62264e-06
2.55498e-07
8.64191e-06
2.82761e-07
8.65576e-06
2.85117e-07
2.69499e-07
8.66502e-06
9.09025e-06
-1.40375e-07
9.095e-06
-1.98969e-07
9.10571e-06
1.81468e-07
9.07929e-06
7.62432e-08
9.11786e-06
3.1999e-07
9.12129e-06
2.32664e-07
9.11247e-06
3.58308e-08
9.11955e-06
4.15731e-08
9.09016e-06
-8.47383e-08
9.06032e-06
-1.5649e-07
9.05012e-06
-4.69861e-08
9.02915e-06
5.73588e-09
9.01368e-06
3.32636e-08
9.01698e-06
1.28908e-07
9.02138e-06
1.9727e-07
9.02572e-06
2.1752e-07
9.04107e-06
2.40145e-07
9.06042e-06
2.63421e-07
9.07474e-06
2.70792e-07
2.61168e-07
9.08307e-06
9.52825e-06
-1.15167e-07
9.52836e-06
-1.99073e-07
9.54189e-06
1.67937e-07
9.51923e-06
9.89019e-08
9.55148e-06
2.87741e-07
9.55791e-06
2.26228e-07
9.54767e-06
4.60769e-08
9.55229e-06
3.69528e-08
9.5268e-06
-5.92527e-08
9.49686e-06
-1.26545e-07
9.48626e-06
-3.63893e-08
9.46877e-06
2.32265e-08
9.45381e-06
4.82248e-08
9.45606e-06
1.26661e-07
9.46045e-06
1.92877e-07
9.4604e-06
2.17573e-07
9.46442e-06
2.3612e-07
9.47366e-06
2.54181e-07
9.48657e-06
2.57885e-07
2.45315e-07
9.50242e-06
9.98729e-06
-9.23185e-08
9.98178e-06
-1.93569e-07
9.99837e-06
1.51355e-07
9.98063e-06
1.16636e-07
1.00064e-05
2.61945e-07
1.00148e-05
2.17886e-07
1.00041e-05
5.6699e-08
1.00059e-05
3.51859e-08
9.9841e-06
-3.74385e-08
9.95452e-06
-9.69622e-08
9.9435e-06
-2.53721e-08
9.92897e-06
3.7754e-08
9.91468e-06
6.2517e-08
9.91423e-06
1.2711e-07
9.91836e-06
1.88752e-07
9.92319e-06
2.12744e-07
9.93453e-06
2.24775e-07
9.95274e-06
2.35977e-07
9.96803e-06
2.42588e-07
2.38357e-07
9.97499e-06
1.04683e-05
-7.19474e-08
1.04568e-05
-1.82117e-07
1.04761e-05
1.32049e-07
1.04639e-05
1.28809e-07
1.04838e-05
2.4211e-07
1.04932e-05
2.08497e-07
1.04826e-05
6.72485e-08
1.04818e-05
3.60587e-08
1.04628e-05
-1.84685e-08
1.04344e-05
-6.85792e-08
1.04224e-05
-1.33948e-08
1.04103e-05
4.99075e-08
1.03968e-05
7.59976e-08
1.03948e-05
1.29052e-07
1.03999e-05
1.8367e-07
1.04046e-05
2.0809e-07
1.04107e-05
2.18653e-07
1.04209e-05
2.25737e-07
1.04343e-05
2.29265e-07
2.25478e-07
1.04471e-05
1.09722e-05
-5.40836e-08
1.09569e-05
-1.66823e-07
1.09764e-05
1.12545e-07
1.09695e-05
1.35669e-07
1.09849e-05
2.26692e-07
1.09941e-05
1.99321e-07
1.0984e-05
7.73282e-08
1.09809e-05
3.92228e-08
1.09639e-05
-1.54339e-09
1.09371e-05
-4.17252e-08
1.09236e-05
7.89105e-11
1.09131e-05
6.03967e-08
1.09008e-05
8.83382e-08
1.08979e-05
1.31929e-07
1.09022e-05
1.79329e-07
1.09068e-05
2.03523e-07
1.09134e-05
2.12054e-07
1.09232e-05
2.15934e-07
1.09363e-05
2.16145e-07
2.13279e-07
1.09485e-05
1.14999e-05
-3.86532e-08
1.14826e-05
-1.49503e-07
1.15003e-05
9.48608e-08
1.1498e-05
1.37968e-07
1.15108e-05
2.13939e-07
1.1519e-05
1.91118e-07
1.15095e-05
8.67718e-08
1.15042e-05
4.45406e-08
1.14888e-05
1.38176e-08
1.14636e-05
-1.64451e-08
1.14485e-05
1.50896e-08
1.14387e-05
7.02571e-08
1.1428e-05
9.9016e-08
1.14248e-05
1.35162e-07
1.14287e-05
1.75358e-07
1.14341e-05
1.98147e-07
1.14412e-05
2.04962e-07
1.14499e-05
2.07218e-07
1.14621e-05
2.03995e-07
2.00271e-07
1.14751e-05
1.20527e-05
-2.54853e-08
1.20345e-05
-1.31353e-07
1.20491e-05
8.02367e-08
1.20507e-05
1.36362e-07
1.20621e-05
2.02617e-07
1.20691e-05
1.8404e-07
1.206e-05
9.59125e-08
1.2053e-05
5.1504e-08
1.20388e-05
2.80006e-08
1.20155e-05
6.92692e-09
1.19997e-05
3.08155e-08
1.19903e-05
7.97554e-08
1.19814e-05
1.07891e-07
1.19781e-05
1.38476e-07
1.1982e-05
1.71462e-07
1.19878e-05
1.9228e-07
1.19952e-05
1.97564e-07
1.2004e-05
1.98454e-07
1.20144e-05
1.93588e-07
1.87755e-07
1.20269e-05
1.26315e-05
-1.43501e-08
1.26133e-05
-1.1322e-07
1.26242e-05
6.93476e-08
1.26288e-05
1.31728e-07
1.26396e-05
1.91862e-07
1.26459e-05
1.77742e-07
1.26369e-05
1.04909e-07
1.26286e-05
5.98157e-08
1.26154e-05
4.11899e-08
1.25942e-05
2.81185e-08
1.25785e-05
4.65486e-08
1.25694e-05
8.88776e-08
1.2562e-05
1.15258e-07
1.25589e-05
1.41558e-07
1.25627e-05
1.67672e-07
1.25688e-05
1.86157e-07
1.25763e-05
1.90097e-07
1.25852e-05
1.89572e-07
1.25943e-05
1.8446e-07
1.76428e-07
1.26056e-05
1.32376e-05
-4.97763e-09
1.32201e-05
-9.57407e-08
1.32268e-05
6.26076e-08
1.32338e-05
1.24782e-07
1.32445e-05
1.81165e-07
1.32504e-05
1.71773e-07
1.32416e-05
1.13735e-07
1.32321e-05
6.93421e-08
1.32198e-05
5.34774e-08
1.3201e-05
4.69613e-08
1.31858e-05
6.16532e-08
1.3177e-05
9.77094e-08
1.31708e-05
1.21441e-07
1.31683e-05
1.44106e-07
1.31718e-05
1.64189e-07
1.31781e-05
1.79872e-07
1.31852e-05
1.82915e-07
1.3194e-05
1.80775e-07
1.32028e-05
1.75692e-07
1.66486e-07
1.32127e-05
1.38723e-05
2.87169e-09
1.38559e-05
-7.93271e-08
1.38593e-05
5.92516e-08
1.3867e-05
1.17083e-07
1.38777e-05
1.70416e-07
1.38838e-05
1.6565e-07
1.38755e-05
1.22102e-07
1.38649e-05
7.98855e-08
1.38532e-05
6.51674e-08
1.38369e-05
6.3268e-08
1.38229e-05
7.56889e-08
1.38143e-05
1.06249e-07
1.38091e-05
1.26706e-07
1.38071e-05
1.46077e-07
1.38102e-05
1.61112e-07
1.38165e-05
1.73606e-07
1.38236e-05
1.75772e-07
1.38321e-05
1.72319e-07
1.3841e-05
1.66706e-07
1.57815e-07
1.38497e-05
1.45371e-05
9.41488e-09
1.4522e-05
-6.42231e-08
1.4523e-05
5.82785e-08
1.453e-05
1.10064e-07
1.45407e-05
1.59756e-07
1.45472e-05
1.59081e-07
1.45397e-05
1.29665e-07
1.45285e-05
9.11029e-08
1.45171e-05
7.64897e-08
1.45031e-05
7.73095e-08
1.44907e-05
8.81287e-08
1.44826e-05
1.14287e-07
1.44781e-05
1.31213e-07
1.44766e-05
1.47553e-07
1.44794e-05
1.58344e-07
1.44855e-05
1.67552e-07
1.44927e-05
1.68482e-07
1.45007e-05
1.64384e-07
1.45097e-05
1.57698e-07
1.49841e-07
1.45177e-05
1.52335e-05
1.48337e-08
1.52198e-05
-5.05154e-08
1.52191e-05
5.88903e-08
1.52248e-05
1.04382e-07
1.52348e-05
1.49785e-07
1.52417e-05
1.52146e-07
1.52355e-05
1.35925e-07
1.52241e-05
1.02463e-07
1.5213e-05
8.75903e-08
1.52008e-05
8.94881e-08
1.51903e-05
9.87019e-08
1.51831e-05
1.21414e-07
1.51793e-05
1.35086e-07
1.51782e-05
1.48614e-07
1.51808e-05
1.55695e-07
1.51866e-05
1.61772e-07
1.51939e-05
1.61214e-07
1.52014e-05
1.56869e-07
1.521e-05
1.49089e-07
1.41873e-07
1.5218e-05
1.59629e-05
1.92832e-08
1.59506e-05
-3.82043e-08
1.59489e-05
6.05227e-08
1.59533e-05
1.00052e-07
1.59616e-05
1.41446e-07
1.59685e-05
1.45244e-07
1.5964e-05
1.40419e-07
1.59532e-05
1.13267e-07
1.59424e-05
9.84445e-08
1.59316e-05
1.00207e-07
1.59229e-05
1.0742e-07
1.59171e-05
1.27284e-07
1.59139e-05
1.3819e-07
1.59134e-05
1.49134e-07
1.5916e-05
1.53092e-07
1.59214e-05
1.56443e-07
1.59285e-05
1.54075e-07
1.59358e-05
1.49613e-07
1.59437e-05
1.41096e-07
1.33699e-07
1.59519e-05
1.6727e-05
2.29088e-08
1.67161e-05
-2.72926e-08
1.67137e-05
6.29038e-08
1.67169e-05
9.68192e-08
1.67229e-05
1.35465e-07
1.67293e-05
1.38813e-07
1.67269e-05
1.42896e-07
1.67173e-05
1.22844e-07
1.67069e-05
1.08864e-07
1.66972e-05
1.09828e-07
1.66901e-05
1.14507e-07
1.66857e-05
1.31732e-07
1.66837e-05
1.4021e-07
1.66838e-05
1.4905e-07
1.66864e-05
1.5041e-07
1.66913e-05
1.51625e-07
1.66981e-05
1.47234e-07
1.67053e-05
1.42392e-07
1.67127e-05
1.33694e-07
1.25746e-07
1.67207e-05
1.75274e-05
2.58289e-08
1.75178e-05
-1.76834e-08
1.75148e-05
6.58854e-08
1.75173e-05
9.43478e-08
1.75211e-05
1.31655e-07
1.75265e-05
1.33469e-07
1.7526e-05
1.43353e-07
1.75182e-05
1.30703e-07
1.75084e-05
1.18634e-07
1.74996e-05
1.1865e-07
1.74937e-05
1.20382e-07
1.74907e-05
1.34725e-07
1.74899e-05
1.41015e-07
1.74907e-05
1.48215e-07
1.74936e-05
1.47526e-07
1.74982e-05
1.47048e-07
1.75045e-05
1.40934e-07
1.75117e-05
1.35203e-07
1.75186e-05
1.26722e-07
1.18396e-07
1.7526e-05
1.8366e-05
2.81415e-08
1.83575e-05
-9.17637e-09
1.83542e-05
6.92404e-08
1.83561e-05
9.23918e-08
1.83584e-05
1.29392e-07
1.83622e-05
1.29618e-07
1.83633e-05
1.42245e-07
1.83576e-05
1.36495e-07
1.83489e-05
1.27261e-07
1.83408e-05
1.26763e-07
1.83358e-05
1.2541e-07
1.83338e-05
1.36708e-07
1.83342e-05
1.40641e-07
1.83359e-05
1.46479e-07
1.83392e-05
1.44195e-07
1.83438e-05
1.42487e-07
1.83495e-05
1.35206e-07
1.83563e-05
1.2843e-07
1.83632e-05
1.19853e-07
1.11701e-07
1.83699e-05
1.92446e-05
2.9935e-08
1.9237e-05
-1.62132e-09
1.92335e-05
7.27813e-08
1.92351e-05
9.07467e-08
1.92367e-05
1.27858e-07
1.9239e-05
1.27267e-07
1.92407e-05