/*--------------------------------*- C++ -*----------------------------------*\
| =========                 |                                                 |
| \\      /  F ield         | OpenFOAM: The Open Source CFD Toolbox           |
|  \\    /   O peration     | Version:  v1912                                 |
|   \\  /    A nd           | Website:  www.openfoam.com                      |
|    \\/     M anipulation  |                                                 |
\*---------------------------------------------------------------------------*/
FoamFile
{
    version     2.0;
    format      ascii;
    class       volVectorField;
    location    "4";
    object      U;
}
// * * * * * * * * * * * * * * * * * * * * * * * * * * * * * * * * * * * * * //

dimensions      [0 1 -1 0 0 0 0];


internalField   nonuniform List<vector> 
9600
(
(0.955964 -0.0122132 0)
(1.00287 0.00584979 0)
(0.988833 -0.00593428 0)
(1.01229 0.00243314 0)
(1.01897 0.031828 0)
(1.04214 -0.00737406 0)
(0.918028 0.0143642 0)
(1.03479 -0.0144672 0)
(0.886157 -0.0359284 0)
(0.966934 -0.0197001 0)
(0.96887 0.000769732 0)
(1.07223 -0.0231723 0)
(0.936203 0.031234 0)
(1.15128 -0.00293873 0)
(0.890097 0.0391816 0)
(1.23558 0.0205828 0)
(0.879745 0.0383583 0)
(1.26426 0.0344056 0)
(0.890073 0.0282346 0)
(1.22159 0.0335935 0)
(0.96097 -0.0119201 0)
(1.0021 0.00563946 0)
(0.992989 -0.00600793 0)
(1.01279 0.00229491 0)
(1.02043 0.0313556 0)
(1.04101 -0.00609507 0)
(0.930927 0.0142526 0)
(1.01319 -0.0138332 0)
(0.900186 -0.0349067 0)
(0.956435 -0.020912 0)
(0.971765 -0.00168862 0)
(1.06046 -0.0224116 0)
(0.94211 0.0298474 0)
(1.1341 -0.00101752 0)
(0.904189 0.0375534 0)
(1.20393 0.0214306 0)
(0.924533 0.0375342 0)
(1.19399 0.0335627 0)
(0.992701 0.030681 0)
(1.0912 0.0306386 0)
(0.967244 -0.0116784 0)
(0.999479 0.00535775 0)
(0.997741 -0.00610518 0)
(1.01349 0.00206584 0)
(1.02443 0.0310195 0)
(1.04257 -0.00518634 0)
(0.948322 0.0144491 0)
(0.997782 -0.0134186 0)
(0.923071 -0.0344022 0)
(0.944571 -0.0219261 0)
(0.976276 -0.00290654 0)
(1.0421 -0.0216054 0)
(0.957975 0.02814 0)
(1.10496 -0.000161547 0)
(0.940494 0.0348954 0)
(1.14899 0.0214048 0)
(0.991684 0.0368311 0)
(1.11982 0.032439 0)
(1.05717 0.0326802 0)
(1.05811 0.0294143 0)
(0.973787 -0.0114505 0)
(0.995116 0.00510087 0)
(1.00041 -0.00624527 0)
(1.01416 0.00184294 0)
(1.03166 0.0307506 0)
(1.04469 -0.0043675 0)
(0.967638 0.0148901 0)
(0.986666 -0.013033 0)
(0.94079 -0.0337123 0)
(0.935413 -0.0225558 0)
(0.977808 -0.00436697 0)
(1.02379 -0.0213883 0)
(0.978916 0.0266349 0)
(1.07667 0.000303977 0)
(0.983855 0.0335517 0)
(1.10537 0.0202781 0)
(1.04222 0.0371171 0)
(1.08999 0.0315173 0)
(1.0794 0.0333057 0)
(1.07095 0.0303522 0)
(0.979556 -0.0112155 0)
(0.990463 0.00487549 0)
(1.00036 -0.00643126 0)
(1.01425 0.00156886 0)
(1.0405 0.0304136 0)
(1.04599 -0.00362885 0)
(0.984826 0.0154842 0)
(0.983573 -0.0125894 0)
(0.95253 -0.0330345 0)
(0.933118 -0.0230378 0)
(0.975931 -0.00575218 0)
(1.01039 -0.0214879 0)
(0.996779 0.0254048 0)
(1.05831 0.000284726 0)
(1.01761 0.0329206 0)
(1.08354 0.0192224 0)
(1.06799 0.0373739 0)
(1.08799 0.0310032 0)
(1.08778 0.0334539 0)
(1.0845 0.0313039 0)
(0.983737 -0.0109717 0)
(0.987468 0.00467986 0)
(0.998556 -0.00664907 0)
(1.0126 0.00118387 0)
(1.04798 0.0300244 0)
(1.04469 -0.00294223 0)
(0.99861 0.0161227 0)
(0.985914 -0.0120311 0)
(0.958422 -0.0323206 0)
(0.935995 -0.0233607 0)
(0.973515 -0.00700268 0)
(1.00229 -0.021873 0)
(1.00728 0.0242696 0)
(1.05079 7.08759e-05 0)
(1.03774 0.0320603 0)
(1.07543 0.0185201 0)
(1.07746 0.0367245 0)
(1.09075 0.0308552 0)
(1.09229 0.0332253 0)
(1.09153 0.0316841 0)
(0.98613 -0.0107267 0)
(0.987332 0.0045127 0)
(0.996333 -0.00685639 0)
(1.0081 0.000702274 0)
(1.0515 0.0296203 0)
(1.03992 -0.00231008 0)
(1.00942 0.0167009 0)
(0.991513 -0.0113288 0)
(0.961918 -0.0315892 0)
(0.941132 -0.0236099 0)
(0.97306 -0.00812906 0)
(0.99772 -0.0224268 0)
(1.01136 0.0230427 0)
(1.04956 -0.000354842 0)
(1.04817 0.0310241 0)
(1.07311 0.0179476 0)
(1.07986 0.0356488 0)
(1.09158 0.030862 0)
(1.09445 0.0326236 0)
(1.09456 0.0319763 0)
(0.987109 -0.0104924 0)
(0.989892 0.00436596 0)
(0.994586 -0.00699212 0)
(1.00069 0.000173573 0)
(1.05033 0.0292132 0)
(1.03206 -0.00176624 0)
(1.01849 0.0171316 0)
(0.998816 -0.0104939 0)
(0.965119 -0.0308121 0)
(0.946703 -0.0238271 0)
(0.974953 -0.00915488 0)
(0.995024 -0.0230193 0)
(1.01223 0.0215938 0)
(1.04996 -0.000935045 0)
(1.05375 0.029969 0)
(1.07316 0.0175219 0)
(1.08073 0.0346141 0)
(1.09171 0.0308698 0)
(1.09551 0.0319467 0)
(1.09585 0.0324407 0)
(0.987332 -0.0102808 0)
(0.993994 0.00422848 0)
(0.993689 -0.00700614 0)
(0.991761 -0.00036264 0)
(1.0458 0.0288051 0)
(1.02267 -0.00135158 0)
(1.02662 0.0173484 0)
(1.00702 -0.00953237 0)
(0.969077 -0.029969 0)
(0.952436 -0.0240348 0)
(0.978372 -0.010092 0)
(0.99306 -0.0235855 0)
(1.01237 0.0199617 0)
(1.04993 -0.00159436 0)
(1.05746 0.0288487 0)
(1.07429 0.0172734 0)
(1.082 0.0335365 0)
(1.09239 0.0309076 0)
(1.09642 0.031309 0)
(1.09643 0.0329277 0)
(0.987505 -0.0100984 0)
(0.998251 0.00408957 0)
(0.993649 -0.00687797 0)
(0.983562 -0.000893747 0)
(1.04038 0.0283903 0)
(1.01378 -0.00109102 0)
(1.03356 0.0173156 0)
(1.0152 -0.00845906 0)
(0.974045 -0.0290574 0)
(0.958542 -0.0242314 0)
(0.982397 -0.0109274 0)
(0.990676 -0.0240968 0)
(1.01247 0.0181975 0)
(1.049 -0.0023328 0)
(1.06044 0.027591 0)
(1.07584 0.0171175 0)
(1.08363 0.0323469 0)
(1.09342 0.0310116 0)
(1.09719 0.0306775 0)
(1.09643 0.0333558 0)
(0.988229 -0.00994505 0)
(1.0015 0.00394235 0)
(0.99422 -0.00662256 0)
(0.977938 -0.00139308 0)
(1.03601 0.0279618 0)
(1.00717 -0.000975162 0)
(1.03828 0.0170386 0)
(1.02217 -0.00730975 0)
(0.979791 -0.0280909 0)
(0.964912 -0.0244022 0)
(0.986398 -0.0116101 0)
(0.986819 -0.0245294 0)
(1.01205 0.0162793 0)
(1.04655 -0.00314749 0)
(1.06253 0.0261368 0)
(1.07717 0.0170046 0)
(1.08509 0.0310906 0)
(1.09418 0.0311681 0)
(1.09736 0.0300889 0)
(1.09564 0.0337871 0)
(0.98983 -0.009815 0)
(1.00301 0.00378594 0)
(0.995026 -0.00627824 0)
(0.975476 -0.00186318 0)
(1.0329 0.02752 0)
(1.00375 -0.000950279 0)
(1.03963 0.0165654 0)
(1.02683 -0.00613922 0)
(0.985792 -0.0270962 0)
(0.970893 -0.0245274 0)
(0.989847 -0.0120777 0)
(0.981316 -0.0248474 0)
(1.01033 0.0142143 0)
(1.04132 -0.00404489 0)
(1.06249 0.0244251 0)
(1.07712 0.016909 0)
(1.08546 0.0298003 0)
(1.0939 0.0313644 0)
(1.09628 0.0296094 0)
(1.09354 0.0342418 0)
(0.992234 -0.00969924 0)
(1.00264 0.0036264 0)
(0.995744 -0.00589293 0)
(0.975537 -0.00232368 0)
(1.02983 0.0270661 0)
(1.00325 -0.000947303 0)
(1.03726 0.015969 0)
(1.02878 -0.00502072 0)
(0.991512 -0.0261079 0)
(0.975652 -0.0245752 0)
(0.992132 -0.012294 0)
(0.975315 -0.0250116 0)
(1.00681 0.0120469 0)
(1.0325 -0.0049947 0)
(1.05863 0.0224225 0)
(1.07391 0.0167768 0)
(1.08319 0.0284681 0)
(1.0913 0.0315752 0)
(1.09283 0.0292915 0)
(1.0892 0.0346917 0)
(0.995021 -0.00958844 0)
(1.00087 0.00347343 0)
(0.996224 -0.00550945 0)
(0.976956 -0.00274821 0)
(1.02554 0.0265911 0)
(1.0045 -0.000925439 0)
(1.03191 0.0153268 0)
(1.02837 -0.00402581 0)
(0.996598 -0.0251439 0)
(0.978792 -0.0245205 0)
(0.992773 -0.0122826 0)
(0.970594 -0.0249929 0)
(1.00152 0.00989194 0)
(1.02083 -0.00590961 0)
(1.04984 0.0201566 0)
(1.06598 0.016554 0)
(1.07642 0.0270654 0)
(1.08466 0.0317603 0)
(1.08563 0.0291691 0)
(1.0815 0.0350923 0)
(0.99768 -0.00947406 0)
(0.998504 0.00333195 0)
(0.996483 -0.00515152 0)
(0.978734 -0.00310912 0)
(1.01978 0.0260865 0)
(1.00612 -0.000870713 0)
(1.02517 0.0146963 0)
(1.02649 -0.00319819 0)
(1.00087 -0.024215 0)
(0.980616 -0.024333 0)
(0.991858 -0.0121237 0)
(0.96829 -0.0247903 0)
(0.995072 0.00789227 0)
(1.00845 -0.00667169 0)
(1.03668 0.0177149 0)
(1.05318 0.0162269 0)
(1.06431 0.025604 0)
(1.07293 0.031866 0)
(1.07393 0.0292285 0)
(1.06991 0.0353836 0)
(0.999855 -0.00935063 0)
(0.996238 0.00320174 0)
(0.996608 -0.00482588 0)
(0.98033 -0.00338498 0)
(1.01332 0.0255499 0)
(1.00724 -0.000784242 0)
(1.01861 0.0140917 0)
(1.02403 -0.00255401 0)
(1.00422 -0.023329 0)
(0.981771 -0.0239884 0)
(0.990047 -0.011914 0)
(0.968266 -0.0244131 0)
(0.98839 0.0061379 0)
(0.99748 -0.0071694 0)
(1.02128 0.0152721 0)
(1.03709 0.0158426 0)
(1.04798 0.0241412 0)
(1.05679 0.0318313 0)
(1.05847 0.0294168 0)
(1.05514 0.0354974 0)
(1.00143 -0.00921574 0)
(0.994458 0.00308022 0)
(0.996663 -0.00452719 0)
(0.981596 -0.00356891 0)
(1.00716 0.0249884 0)
(1.00767 -0.000686828 0)
(1.01321 0.0135092 0)
(1.02162 -0.00207134 0)
(1.00666 -0.022487 0)
(0.982743 -0.0234901 0)
(0.988122 -0.0117131 0)
(0.969582 -0.0238753 0)
(0.982349 0.00465811 0)
(0.988986 -0.00736159 0)
(1.00622 0.0130127 0)
(1.02017 0.0154867 0)
(1.03 0.0227478 0)
(1.03848 0.0316198 0)
(1.04129 0.0296687 0)
(1.03906 0.0353698 0)
(1.00246 -0.0090683 0)
(0.993238 0.00296265 0)
(0.996666 -0.00424627 0)
(0.982599 -0.0036686 0)
(1.00195 0.0244101 0)
(1.0076 -0.000594787 0)
(1.00926 0.0129389 0)
(1.01959 -0.00171388 0)
(1.00827 -0.0216858 0)
(0.983689 -0.0228659 0)
(0.986577 -0.0115302 0)
(0.971315 -0.0231912 0)
(0.977481 0.00341829 0)
(0.982947 -0.00724846 0)
(0.993417 0.0110488 0)
(1.00465 0.0152271 0)
(1.01305 0.021493 0)
(1.02071 0.0312199 0)
(1.02477 0.0299209 0)
(1.02381 0.0349693 0)
(1.00307 -0.00890845 0)
(0.992494 0.00284428 0)
(0.996612 -0.00397479 0)
(0.983448 -0.0036963 0)
(0.997922 0.0238185 0)
(1.0073 -0.000515018 0)
(1.00661 0.0123664 0)
(1.018 -0.0014464 0)
(1.00923 -0.0209234 0)
(0.984575 -0.0221336 0)
(0.985545 -0.0113779 0)
(0.972954 -0.022365 0)
(0.973952 0.00237537 0)
(0.978872 -0.00685989 0)
(0.98369 0.00944262 0)
(0.991887 0.0150838 0)
(0.99895 0.0204299 0)
(1.00552 0.030646 0)
(1.01068 0.0301182 0)
(1.01101 0.0343215 0)
(1.00338 -0.00873646 0)
(0.992108 0.00272099 0)
(0.996497 -0.00370531 0)
(0.984222 -0.00366823 0)
(0.99499 0.0232181 0)
(1.00694 -0.000452665 0)
(1.00494 0.0117829 0)
(1.01678 -0.00123069 0)
(1.00974 -0.0201969 0)
(0.985353 -0.0213107 0)
(0.984956 -0.0112457 0)
(0.974335 -0.02144 0)
(0.971665 0.00148885 0)
(0.976251 -0.00627327 0)
(0.977031 0.00817285 0)
(0.982365 0.0150417 0)
(0.988441 0.0195709 0)
(0.9939 0.0299215 0)
(0.999852 0.0302197 0)
(1.00135 0.033495 0)
(1.0035 -0.00855296 0)
(0.991973 0.0025912 0)
(0.996333 -0.00343495 0)
(0.984943 -0.00359689 0)
(0.992963 0.0226066 0)
(1.00657 -0.000405993 0)
(1.00394 0.0111837 0)
(1.01581 -0.00104645 0)
(1.00997 -0.0194876 0)
(0.986023 -0.020429 0)
(0.984695 -0.0111095 0)
(0.975458 -0.0204539 0)
(0.970381 0.000724112 0)
(0.974671 -0.00555309 0)
(0.972971 0.00719131 0)
(0.975912 0.0150622 0)
(0.981421 0.018914 0)
(0.985928 0.0290722 0)
(0.992305 0.0302057 0)
(0.994792 0.0325499 0)
(1.00352 -0.00835911 0)
(0.992002 0.00245433 0)
(0.996137 -0.00315925 0)
(0.985602 -0.00349697 0)
(0.991638 0.0219884 0)
(1.0062 -0.000376535 0)
(1.00335 0.0105676 0)
(1.01495 -0.000875199 0)
(1.00999 -0.0187922 0)
(0.986608 -0.0194907 0)
(0.984668 -0.0109762 0)
(0.976394 -0.0194168 0)
(0.969816 7.84326e-05 0)
(0.973808 -0.00475495 0)
(0.970872 0.0064386 0)
(0.971992 0.0151044 0)
(0.977309 0.0184279 0)
(0.981107 0.028114 0)
(0.987565 0.0300744 0)
(0.99084 0.0315644 0)
(1.00348 -0.00815512 0)
(0.992127 0.00230949 0)
(0.995935 -0.00287535 0)
(0.986182 -0.0033779 0)
(0.990846 0.0213624 0)
(1.00582 -0.000355591 0)
(1.00294 0.0099341 0)
(1.0141 -0.000705585 0)
(1.00989 -0.0181097 0)
(0.987127 -0.0185133 0)
(0.984811 -0.0108247 0)
(0.977233 -0.0183615 0)
(0.969719 -0.000470852 0)
(0.973406 -0.00395273 0)
(0.970113 0.00586055 0)
(0.96994 0.0151382 0)
(0.975322 0.0180566 0)
(0.978688 0.0270825 0)
(0.984951 0.0298337 0)
(0.988812 0.0306011 0)
(1.00341 -0.00794141 0)
(0.9923 0.00215642 0)
(0.995749 -0.00258211 0)
(0.986678 -0.0032464 0)
(0.990471 0.0207244 0)
(1.00543 -0.000335204 0)
(1.00259 0.00928369 0)
(1.01316 -0.000536186 0)
(1.00967 -0.0174358 0)
(0.987586 -0.0175194 0)
(0.985073 -0.0106348 0)
(0.978049 -0.0173114 0)
(0.969912 -0.000935896 0)
(0.973292 -0.00317883 0)
(0.970191 0.00540455 0)
(0.969131 0.0151245 0)
(0.974702 0.0177881 0)
(0.977905 0.0260266 0)
(0.983769 0.0294917 0)
(0.988037 0.0296975 0)
(1.00332 -0.00771844 0)
(0.99249 0.00199466 0)
(0.995598 -0.0022761 0)
(0.9871 -0.00311242 0)
(0.990432 0.0200764 0)
(1.00504 -0.000307157 0)
(1.00222 0.00861873 0)
(1.0121 -0.00036422 0)
(1.00936 -0.0167758 0)
(0.987987 -0.0165121 0)
(0.985412 -0.010413 0)
(0.978886 -0.0162734 0)
(0.970297 -0.00129682 0)
(0.973357 -0.00243845 0)
(0.97074 0.00503964 0)
(0.969087 0.0150365 0)
(0.974833 0.0175865 0)
(0.978092 0.0249477 0)
(0.983438 0.0290424 0)
(0.987953 0.0288945 0)
(1.00322 -0.00748579 0)
(0.992675 0.00182364 0)
(0.995494 -0.00195825 0)
(0.987472 -0.00297707 0)
(0.990671 0.0194149 0)
(1.00467 -0.000261238 0)
(1.00184 0.00794699 0)
(1.01094 -0.000191358 0)
(1.00896 -0.0161315 0)
(0.988336 -0.0155093 0)
(0.985791 -0.0101497 0)
(0.979759 -0.0152636 0)
(0.970828 -0.0015545 0)
(0.973547 -0.00174772 0)
(0.971524 0.00473933 0)
(0.969469 0.0148758 0)
(0.975282 0.0174099 0)
(0.97876 0.0238465 0)
(0.983534 0.0284802 0)
(0.988142 0.0282018 0)
(1.00308 -0.00724242 0)
(0.992847 0.00164188 0)
(0.995436 -0.00162847 0)
(0.987827 -0.00284728 0)
(0.991132 0.0187418 0)
(1.00433 -0.000188333 0)
(1.00146 0.00727776 0)
(1.0097 -1.39506e-05 0)
(1.00848 -0.0155006 0)
(0.988643 -0.014533 0)
(0.986176 -0.00982952 0)
(0.98066 -0.0143061 0)
(0.971495 -0.0017096 0)
(0.973838 -0.00110862 0)
(0.972413 0.00447745 0)
(0.970077 0.0146378 0)
(0.97579 0.0172625 0)
(0.979582 0.0227564 0)
(0.983791 0.027785 0)
(0.988337 0.0276007 0)
(1.00291 -0.00698753 0)
(0.993005 0.00144795 0)
(0.995417 -0.00128641 0)
(0.988195 -0.00272764 0)
(0.991756 0.0180551 0)
(1.00404 -8.01701e-05 0)
(1.00115 0.00661212 0)
(1.00845 0.000162181 0)
(1.00791 -0.0148792 0)
(0.988923 -0.0135906 0)
(0.986541 -0.00945183 0)
(0.98157 -0.0133991 0)
(0.972295 -0.00178436 0)
(0.974222 -0.000513555 0)
(0.973355 0.00426776 0)
(0.970812 0.0143158 0)
(0.976246 0.0171402 0)
(0.980388 0.0217063 0)
(0.984086 0.0269454 0)
(0.988415 0.0270701 0)
(1.00271 -0.00672004 0)
(0.993156 0.00124115 0)
(0.995419 -0.000935075 0)
(0.988596 -0.00261654 0)
(0.99247 0.0173498 0)
(1.00381 6.43885e-05 0)
(1.00095 0.00595347 0)
(1.00724 0.000338489 0)
(1.0073 -0.0142623 0)
(0.989192 -0.0126916 0)
(0.986867 -0.00901566 0)
(0.982464 -0.0125407 0)
(0.973221 -0.00178452 0)
(0.974697 5.00979e-05 0)
(0.974345 0.00409678 0)
(0.97165 0.0139316 0)
(0.976648 0.0170346 0)
(0.981119 0.0207197 0)
(0.984407 0.0259598 0)
(0.988373 0.0265747 0)
(1.00249 -0.00643978 0)
(0.993308 0.00102362 0)
(0.995427 -0.00058 0)
(0.989038 -0.00251659 0)
(0.993202 0.0166273 0)
(1.00364 0.000250162 0)
(1.00087 0.0053087 0)
(1.00612 0.000524469 0)
(1.00665 -0.0136427 0)
(0.989463 -0.0118536 0)
(0.987148 -0.00851666 0)
(0.983319 -0.0117423 0)
(0.974253 -0.00172509 0)
(0.975248 0.000601461 0)
(0.975392 0.00397379 0)
(0.972605 0.0134873 0)
(0.977047 0.0169411 0)
(0.981788 0.0198353 0)
(0.984797 0.0248397 0)
(0.988285 0.0260428 0)
(1.00228 -0.00614551 0)
(0.993469 0.00079196 0)
(0.995428 -0.000220022 0)
(0.98952 -0.00242668 0)
(0.993883 0.0158835 0)
(1.00349 0.000474685 0)
(1.00091 0.00467951 0)
(1.00512 0.000716568 0)
(1.00601 -0.0130094 0)
(0.989752 -0.0110808 0)
(0.987384 -0.00796096 0)
(0.984117 -0.0109843 0)
(0.975362 -0.00163957 0)
(0.97586 0.00116427 0)
(0.976488 0.00390551 0)
(0.973692 0.0129749 0)
(0.977509 0.0168343 0)
(0.982422 0.0190766 0)
(0.9853 0.0236395 0)
(0.988248 0.025423 0)
(1.00207 -0.0058384 0)
(0.993647 0.000550446 0)
(0.995419 0.000137557 0)
(0.990031 -0.00234127 0)
(0.994465 0.0151168 0)
(1.00335 0.000731647 0)
(1.00103 0.00407143 0)
(1.00424 0.000912327 0)
(1.00539 -0.0123569 0)
(0.990071 -0.0103797 0)
(0.987585 -0.00735542 0)
(0.984847 -0.0102416 0)
(0.976517 -0.00154095 0)
(0.97651 0.00172442 0)
(0.977608 0.0039014 0)
(0.974905 0.0124219 0)
(0.978075 0.0166828 0)
(0.983048 0.0184418 0)
(0.985932 0.0223985 0)
(0.98834 0.0246585 0)
(1.0019 -0.00551941 0)
(0.993846 0.000300675 0)
(0.9954 0.000491632 0)
(0.99056 -0.00225361 0)
(0.994931 0.0143268 0)
(1.00319 0.00101657 0)
(1.0012 0.00348601 0)
(1.00347 0.00110393 0)
(1.00481 -0.0116716 0)
(0.990429 -0.00975591 0)
(0.987769 -0.00671567 0)
(0.98551 -0.0095095 0)
(0.977691 -0.00144064 0)
(0.977181 0.00227715 0)
(0.978717 0.00397674 0)
(0.976216 0.011834 0)
(0.978755 0.0164706 0)
(0.983662 0.0179224 0)
(0.986661 0.0211723 0)
(0.988605 0.0237182 0)
(1.00174 -0.00519008 0)
(0.994065 4.5509e-05 0)
(0.99538 0.000838605 0)
(0.991095 -0.00216009 0)
(0.995288 0.013511 0)
(1.00298 0.00132707 0)
(1.00137 0.00292579 0)
(1.0028 0.00128466 0)
(1.00427 -0.0109413 0)
(0.990832 -0.00919856 0)
(0.987954 -0.00605117 0)
(0.986114 -0.00877758 0)
(0.97887 -0.00136508 0)
(0.977862 0.00280904 0)
(0.979775 0.00412212 0)
(0.977584 0.0112066 0)
(0.97954 0.016174 0)
(0.984255 0.0175033 0)
(0.987429 0.0200516 0)
(0.989037 0.0226452 0)
(1.0016 -0.00485309 0)
(0.994306 -0.000210063 0)
(0.995365 0.00116653 0)
(0.991627 -0.00205064 0)
(0.995566 0.0126705 0)
(1.00272 0.00165282 0)
(1.00154 0.00239247 0)
(1.00221 0.00144665 0)
(1.00377 -0.0101621 0)
(0.991279 -0.00870105 0)
(0.988156 -0.00539055 0)
(0.986665 -0.00801912 0)
(0.980047 -0.00132094 0)
(0.978558 0.00328723 0)
(0.980756 0.00434985 0)
(0.978968 0.0105772 0)
(0.980415 0.0157779 0)
(0.984823 0.0171344 0)
(0.988178 0.0190618 0)
(0.989603 0.0214598 0)
(1.00148 -0.00450841 0)
(0.994566 -0.00047092 0)
(0.995361 0.00147845 0)
(0.992149 -0.00191946 0)
(0.995799 0.0118078 0)
(1.00242 0.00198051 0)
(1.00167 0.00190176 0)
(1.0017 0.00157854 0)
(1.0033 -0.00933918 0)
(0.99176 -0.00824743 0)
(0.988392 -0.00475001 0)
(0.987172 -0.00722662 0)
(0.981219 -0.00129052 0)
(0.979283 0.00369238 0)
(0.981655 0.00465052 0)
(0.980331 0.00999393 0)
(0.98136 0.0152925 0)
(0.985368 0.0167896 0)
(0.988857 0.0182286 0)
(0.990255 0.0202178 0)
(1.00137 -0.00415977 0)
(0.994845 -0.000728017 0)
(0.995374 0.00176076 0)
(0.992652 -0.00175614 0)
(0.996016 0.0109386 0)
(1.00208 0.00230743 0)
(1.00177 0.00145185 0)
(1.00125 0.00166532 0)
(1.00285 -0.00846997 0)
(0.992264 -0.00782357 0)
(0.988668 -0.0041367 0)
(0.987641 -0.00639889 0)
(0.982382 -0.00125173 0)
(0.98005 0.004012 0)
(0.982478 0.00499385 0)
(0.981652 0.00945906 0)
(0.982367 0.014711 0)
(0.985908 0.0164254 0)
(0.989439 0.0175598 0)
(0.990924 0.0190288 0)
(1.00126 -0.00381002 0)
(0.99514 -0.000977377 0)
(0.995406 0.00201088 0)
(0.993135 -0.00156296 0)
(0.996235 0.0100636 0)
(1.00174 0.00262419 0)
(1.00185 0.00106301 0)
(1.00085 0.00169138 0)
(1.00242 -0.0075694 0)
(0.992777 -0.00740638 0)
(0.988994 -0.00357586 0)
(0.988082 -0.00554316 0)
(0.98353 -0.00119593 0)
(0.980872 0.00425507 0)
(0.983237 0.00537528 0)
(0.982913 0.00901206 0)
(0.983426 0.0140612 0)
(0.986474 0.0159957 0)
(0.989938 0.0169832 0)
(0.991553 0.0179752 0)
(1.00115 -0.00345996 0)
(0.995449 -0.00122041 0)
(0.99546 0.00221673 0)
(0.99359 -0.00131733 0)
(0.996467 0.00918916 0)
(1.00139 0.00290742 0)
(1.00191 0.000743606 0)
(1.00051 0.00166884 0)
(1.00201 -0.00665009 0)
(0.993289 -0.00698317 0)
(0.989369 -0.00307603 0)
(0.988497 -0.00465698 0)
(0.984658 -0.00110634 0)
(0.98176 0.00438809 0)
(0.983955 0.0057622 0)
(0.984102 0.00867157 0)
(0.984521 0.0133672 0)
(0.987079 0.0155065 0)
(0.990382 0.01644 0)
(0.992114 0.0170705 0)
(1.00105 -0.00311278 0)
(0.99577 -0.00144471 0)
(0.995541 0.0023639 0)
(0.994018 -0.00103172 0)
(0.996713 0.00833496 0)
(1.00105 0.00316512 0)
(1.00194 0.000504077 0)
(1.00023 0.00159116 0)
(1.0016 -0.00574078 0)
(0.993785 -0.00653456 0)
(0.9898 -0.00265567 0)
(0.988897 -0.00376097 0)
(0.985746 -0.000955748 0)
(0.982712 0.00441012 0)
(0.984654 0.00612147 0)
(0.985208 0.00844331 0)
(0.985638 0.0126698 0)
(0.987742 0.0149678 0)
(0.990797 0.0158887 0)
(0.992588 0.0162832 0)
(1.00095 -0.00277294 0)
(0.996098 -0.00165177 0)
(0.995647 0.00244973 0)
(0.994417 -0.000689813 0)
(0.996974 0.00749912 0)
(1.00073 0.00336879 0)
(1.00195 0.000354135 0)
(1 0.00146828 0)
(1.00122 -0.00486083 0)
(0.994258 -0.00604514 0)
(0.990282 -0.00228431 0)
(0.989293 -0.00290431 0)
(0.986789 -0.000751081 0)
(0.983727 0.00436665 0)
(0.985362 0.0064041 0)
(0.986234 0.00829482 0)
(0.986756 0.0120197 0)
(0.988452 0.0144152 0)
(0.991206 0.0153555 0)
(0.992977 0.0156168 0)
(1.00085 -0.00244201 0)
(0.99643 -0.00182752 0)
(0.995786 0.00245121 0)
(0.99479 -0.00030842 0)
(0.99724 0.00672294 0)
(1.00044 0.00352095 0)
(1.00194 0.000285566 0)
(0.999825 0.00130287 0)
(1.00086 -0.00402082 0)
(0.994702 -0.00551469 0)
(0.990811 -0.00197657 0)
(0.989688 -0.00208668 0)
(0.987778 -0.000469146 0)
(0.984789 0.00426376 0)
(0.986087 0.00661653 0)
(0.987188 0.00818851 0)
(0.987869 0.0113937 0)
(0.98922 0.0138161 0)
(0.991631 0.0148283 0)
(0.993306 0.0150515 0)
(1.00076 -0.00212485 0)
(0.99676 -0.00197346 0)
(0.995954 0.0024081 0)
(0.995141 8.76863e-05 0)
(0.997516 0.00599342 0)
(1.00018 0.00360665 0)
(1.0019 0.000312119 0)
(0.999696 0.00112249 0)
(1.00054 -0.00324679 0)
(0.995109 -0.00493805 0)
(0.991383 -0.00170854 0)
(0.990105 -0.00133732 0)
(0.988704 -0.000119789 0)
(0.985888 0.00413744 0)
(0.986851 0.00671714 0)
(0.988066 0.00811566 0)
(0.988945 0.0108169 0)
(0.990035 0.0131394 0)
(0.992092 0.0142228 0)
(0.993605 0.0144744 0)
(1.00067 -0.00181828 0)
(0.997088 -0.00209547 0)
(0.99616 0.00233187 0)
(0.995466 0.000477187 0)
(0.997785 0.00533746 0)
(0.999947 0.00363436 0)
(1.00185 0.000388155 0)
(0.999611 0.000951628 0)
(1.00026 -0.00255598 0)
(0.995483 -0.00432196 0)
(0.991986 -0.00145915 0)
(0.99054 -0.000674172 0)
(0.989571 0.0002829 0)
(0.986992 0.00400917 0)
(0.987654 0.00669628 0)
(0.9889 0.00804857 0)
(0.989972 0.0102389 0)
(0.990872 0.0123846 0)
(0.992592 0.0135266 0)
(0.993923 0.0138376 0)
(1.00059 -0.00153656 0)
(0.997409 -0.00216134 0)
(0.996395 0.00220823 0)
(0.995775 0.00084666 0)
(0.998054 0.0047541 0)
(0.99975 0.00360064 0)
(1.00176 0.000521936 0)
(0.999561 0.000808849 0)
(1.00002 -0.00194827 0)
(0.995822 -0.00367953 0)
(0.99261 -0.00123116 0)
(0.991012 -8.23699e-05 0)
(0.990376 0.000720422 0)
(0.988084 0.00389984 0)
(0.988507 0.00660211 0)
(0.989679 0.00795471 0)
(0.990919 0.0096784 0)
(0.991729 0.0115776 0)
(0.993153 0.0127827 0)
(0.994294 0.0132074 0)
(1.00051 -0.00126845 0)
(0.997721 -0.00219638 0)
(0.996663 0.00206892 0)
(0.996064 0.00116433 0)
(0.998302 0.00426343 0)
(0.999594 0.00351689 0)
(1.00167 0.000688974 0)
(0.999538 0.000696568 0)
(0.99983 -0.00140571 0)
(0.996131 -0.00303637 0)
(0.993244 -0.000979887 0)
(0.991516 0.0003954 0)
(0.991125 0.0011701 0)
(0.989142 0.00384334 0)
(0.989389 0.00643848 0)
(0.99043 0.00783417 0)
(0.991787 0.00926363 0)
(0.992584 0.0109144 0)
(0.993791 0.0121267 0)
(0.994762 0.0127046 0)
(1.00043 -0.00102664 0)
(0.998018 -0.00216401 0)
(0.996955 0.00188281 0)
(0.99634 0.00142894 0)
(0.998543 0.003869 0)
(0.999466 0.00340354 0)
(1.00156 0.000862166 0)
(0.999535 0.000639985 0)
(0.999692 -0.000943634 0)
(0.996412 -0.00239096 0)
(0.99387 -0.000727903 0)
(0.992061 0.000797105 0)
(0.991843 0.00157641 0)
(0.99015 0.00384143 0)
(0.990296 0.00626776 0)
(0.991187 0.00770376 0)
(0.992614 0.00895917 0)
(0.993424 0.0103308 0)
(0.994473 0.0114896 0)
(0.99524 0.0121893 0)
(1.00036 -0.000812877 0)
(0.998295 -0.0020615 0)
(0.997267 0.0016673 0)
(0.996606 0.00162303 0)
(0.998756 0.00354476 0)
(0.999372 0.00326254 0)
(1.00146 0.00104143 0)
(0.999547 0.000639255 0)
(0.9996 -0.000543789 0)
(0.996671 -0.00175878 0)
(0.994486 -0.000463313 0)
(0.992631 0.00113479 0)
(0.992525 0.00194438 0)
(0.991115 0.00387756 0)
(0.991207 0.0061047 0)
(0.99195 0.00754527 0)
(0.993375 0.00868762 0)
(0.994218 0.00980491 0)
(0.995201 0.0108451 0)
(0.99581 0.0115661 0)
(1.0003 -0.000621977 0)
(0.998548 -0.00190941 0)
(0.997583 0.00143742 0)
(0.996869 0.00171995 0)
(0.998959 0.00331332 0)
(0.999298 0.00312235 0)
(1.00134 0.00121075 0)
(0.999567 0.000675547 0)
(0.999556 -0.000189766 0)
(0.996914 -0.00116936 0)
(0.995075 -0.000162762 0)
(0.99323 0.00139982 0)
(0.993192 0.00230672 0)
(0.992027 0.00392768 0)
(0.992116 0.0059483 0)
(0.99272 0.0074021 0)
(0.994111 0.00843039 0)
(0.994962 0.00936162 0)
(0.995902 0.0102208 0)
(0.996369 0.0109227 0)
(1.00024 -0.000461831 0)
(0.998773 -0.00171891 0)
(0.997899 0.0012125 0)
(0.99713 0.00177753 0)
(0.999136 0.00310781 0)
(0.999245 0.00298788 0)
(1.00123 0.00137822 0)
(0.999594 0.000757633 0)
(0.999549 0.000129778 0)
(0.997147 -0.00060541 0)
(0.995634 0.000169703 0)
(0.993845 0.00165414 0)
(0.993841 0.00261127 0)
(0.992885 0.00401094 0)
(0.993023 0.00581979 0)
(0.993493 0.00722315 0)
(0.994794 0.00815116 0)
(0.995641 0.00894687 0)
(0.996587 0.00964319 0)
(0.996971 0.0103462 0)
(1.00018 -0.000316362 0)
(0.99897 -0.0015253 0)
(0.998203 0.00102254 0)
(0.997389 0.00176867 0)
(0.999306 0.00294406 0)
(0.99921 0.00288572 0)
(1.00111 0.00152789 0)
(0.999621 0.000864748 0)
(0.999581 0.000420585 0)
(0.997376 -8.23996e-05 0)
(0.996159 0.000537793 0)
(0.994463 0.00190241 0)
(0.994485 0.00286593 0)
(0.993704 0.00413172 0)
(0.993895 0.00570307 0)
(0.994251 0.00698544 0)
(0.995468 0.00785573 0)
(0.996284 0.00861598 0)
(0.997251 0.0091702 0)
(0.997604 0.00977601 0)
(1.00013 -0.000197336 0)
(0.999138 -0.00132273 0)
(0.998495 0.000872436 0)
(0.997648 0.00172873 0)
(0.99946 0.00278482 0)
(0.999186 0.0027767 0)
(1.00101 0.00168117 0)
(0.999651 0.00101184 0)
(0.999641 0.000686763 0)
(0.997612 0.000399225 0)
(0.996655 0.000925308 0)
(0.995068 0.00214131 0)
(0.99512 0.00309388 0)
(0.994476 0.00423838 0)
(0.994717 0.00556542 0)
(0.994996 0.0067602 0)
(0.996147 0.00757062 0)
(0.996906 0.00827672 0)
(0.99784 0.00874247 0)
(0.998208 0.00914111 0)
(1.00008 -9.37932e-05 0)
(0.999281 -0.00112861 0)
(0.998765 0.000774377 0)
(0.997898 0.0016484 0)
(0.99961 0.00262445 0)
(0.999184 0.00268944 0)
(1.00091 0.00183932 0)
(0.999673 0.00116991 0)
(0.999727 0.000932339 0)
(0.997856 0.000830242 0)
(0.99712 0.00128671 0)
(0.995658 0.00237778 0)
(0.995744 0.00329525 0)
(0.9952 0.00431739 0)
(0.995505 0.00543841 0)
(0.995731 0.00655144 0)
(0.996803 0.00728024 0)
(0.997505 0.00788641 0)
(0.998361 0.00833751 0)
(0.998767 0.00858509 0)
(1.00004 -6.90855e-06 0)
(0.999403 -0.000945751 0)
(0.999013 0.000723762 0)
(0.99814 0.00155408 0)
(0.999753 0.00246909 0)
(0.999197 0.00259348 0)
(1.00082 0.00197908 0)
(0.999696 0.00135908 0)
(0.999832 0.0011685 0)
(0.998106 0.00119723 0)
(0.997565 0.00163081 0)
(0.99623 0.00261911 0)
(0.996345 0.00345845 0)
(0.995878 0.00438755 0)
(0.99625 0.00533387 0)
(0.996439 0.00632084 0)
(0.997422 0.00698417 0)
(0.998097 0.00749441 0)
(0.998871 0.00793734 0)
(0.999274 0.00814423 0)
(1 6.50343e-05 0)
(0.999506 -0.000773939 0)
(0.999237 0.000702825 0)
(0.998365 0.00145789 0)
(0.999893 0.00231058 0)
(0.999233 0.00249229 0)
(1.00075 0.00212013 0)
(0.999714 0.00156264 0)
(0.999944 0.0013955 0)
(0.998366 0.00151158 0)
(0.997994 0.00194095 0)
(0.996776 0.00283429 0)
(0.996926 0.00359535 0)
(0.996522 0.00445203 0)
(0.996943 0.00524711 0)
(0.997119 0.00608619 0)
(0.998022 0.00670231 0)
(0.998665 0.00714497 0)
(0.999381 0.00752023 0)
(0.999722 0.00775455 0)
(0.999966 0.000123129 0)
(0.999592 -0.000618383 0)
(0.999437 0.000702664 0)
(0.998575 0.00137885 0)
(1.00003 0.00216675 0)
(0.99929 0.00237989 0)
(1.0007 0.00223291 0)
(0.99973 0.00177065 0)
(1.00006 0.00162068 0)
(0.998629 0.00179476 0)
(0.998409 0.0021963 0)
(0.997302 0.00302689 0)
(0.997488 0.00372172 0)
(0.99713 0.0044974 0)
(0.997582 0.00516627 0)
(0.997763 0.00587383 0)
(0.998604 0.00641368 0)
(0.9992 0.00681494 0)
(0.999887 0.00709553 0)
(1.00015 0.00735997 0)
(0.999936 0.000172402 0)
(0.999666 -0.000477573 0)
(0.999617 0.00071675 0)
(0.998767 0.00132135 0)
(1.00015 0.00203601 0)
(0.999367 0.00226758 0)
(1.00068 0.00231657 0)
(0.99975 0.00198231 0)
(1.00018 0.00184306 0)
(0.998888 0.00204177 0)
(0.998809 0.00241163 0)
(0.997813 0.00318241 0)
(0.998028 0.00382005 0)
(0.997706 0.00452476 0)
(0.998178 0.00509199 0)
(0.998364 0.00569024 0)
(0.999162 0.00612917 0)
(0.999703 0.00649241 0)
(1.00037 0.00669348 0)
(1.00058 0.00694549 0)
(0.99991 0.000212198 0)
(0.999726 -0.000351167 0)
(0.999778 0.000739144 0)
(0.998942 0.00127925 0)
(1.00026 0.00193716 0)
(0.999461 0.00216103 0)
(1.00069 0.00236967 0)
(0.999778 0.00216867 0)
(1.00029 0.00206354 0)
(0.999141 0.00225891 0)
(0.999196 0.00259848 0)
(0.998307 0.00329878 0)
(0.998555 0.00387699 0)
(0.998256 0.00453666 0)
(0.998735 0.0050203 0)
(0.998919 0.00552222 0)
(0.999684 0.00585718 0)
(1.00018 0.00617738 0)
(1.00083 0.00632933 0)
(1.00103 0.00652705 0)
(0.999887 0.00024497 0)
(0.999776 -0.000240646 0)
(0.999923 0.000770825 0)
(0.999103 0.00124222 0)
(1.00036 0.00187516 0)
(0.999565 0.00206873 0)
(1.00073 0.00238717 0)
(0.999824 0.00232705 0)
(1.00039 0.00227368 0)
(0.999381 0.00246316 0)
(0.999563 0.00275194 0)
(0.998779 0.00339279 0)
(0.999067 0.00389818 0)
(0.998791 0.00450947 0)
(0.999257 0.00493368 0)
(0.999426 0.005366 0)
(1.00017 0.0056094 0)
(1.00063 0.00587831 0)
(1.00126 0.00600112 0)
(1.00147 0.00612498 0)
(0.999869 0.000271318 0)
(0.999817 -0.000142869 0)
(1.00005 0.000807406 0)
(0.999253 0.00121188 0)
(1.00046 0.00184104 0)
(0.999672 0.00200278 0)
(1.0008 0.0023727 0)
(0.999893 0.00244651 0)
(1.00051 0.00245897 0)
(0.999607 0.0026555 0)
(0.999912 0.00287715 0)
(0.99923 0.00346232 0)
(0.999554 0.00390238 0)
(0.999307 0.00444907 0)
(0.999763 0.00481887 0)
(0.999903 0.0052146 0)
(1.00062 0.00539216 0)
(1.00107 0.00558786 0)
(1.00164 0.00568251 0)
(1.00187 0.00575875 0)
(0.999854 0.000291655 0)
(0.999851 -5.55646e-05 0)
(1.00017 0.000847049 0)
(0.999393 0.00118563 0)
(1.00055 0.00181904 0)
(0.999775 0.00196317 0)
(1.00088 0.00234569 0)
(0.999988 0.00251823 0)
(1.00063 0.00261365 0)
(0.999819 0.00283039 0)
(1.00023 0.00299069 0)
(0.999661 0.00350057 0)
(1.00002 0.00388841 0)
(0.999797 0.0043767 0)
(1.00025 0.00467965 0)
(1.00036 0.00504304 0)
(1.00102 0.0051904 0)
(1.00146 0.00531926 0)
(1.00201 0.00536916 0)
(1.00223 0.00543817 0)
(0.999842 0.000307362 0)
(0.999879 2.25623e-05 0)
(1.00026 0.000887509 0)
(0.999523 0.00116263 0)
(1.00063 0.00180007 0)
(0.999874 0.0019447 0)
(1.00097 0.0023214 0)
(1.00011 0.00255369 0)
(1.00077 0.00272741 0)
(1.00002 0.00297823 0)
(1.00053 0.00309838 0)
(1.00006 0.00352645 0)
(1.00046 0.00384353 0)
(1.00026 0.00429416 0)
(1.00072 0.00453505 0)
(1.00081 0.00484414 0)
(1.00141 0.00497823 0)
(1.00182 0.0050883 0)