/*--------------------------------*- C++ -*----------------------------------*\
| =========                 |                                                 |
| \\      /  F ield         | OpenFOAM: The Open Source CFD Toolbox           |
|  \\    /   O peration     | Version:  v1912                                 |
|   \\  /    A nd           | Website:  www.openfoam.com                      |
|    \\/     M anipulation  |                                                 |
\*---------------------------------------------------------------------------*/
FoamFile
{
    version     2.0;
    format      ascii;
    class       volScalarField;
    location    "7.25";
    object      p;
}
// * * * * * * * * * * * * * * * * * * * * * * * * * * * * * * * * * * * * * //

dimensions      [0 2 -2 0 0 0 0];


internalField   nonuniform List<scalar> 
9600
(
-1.26564e-10
0.00359236
0.00311579
0.00292363
0.00304832
0.00208536
0.00280862
0.0011583
0.00473826
0.0072932
0.00910839
0.0106628
0.0143257
0.0158621
0.0149953
0.0171677
0.0187674
0.020386
0.0250407
0.0302908
-3.7176e-06
0.00360208
0.00311348
0.00291977
0.00304287
0.00208803
0.00281771
0.00116952
0.00475895
0.00725425
0.00911648
0.0106625
0.0142942
0.0158703
0.0149877
0.0171276
0.0187735
0.0203259
0.025151
0.0297686
-6.87828e-06
0.00361353
0.00310867
0.0029132
0.0030338
0.002091
0.00283357
0.00118015
0.00478479
0.00720172
0.00911224
0.0106753
0.0142568
0.0158833
0.0149684
0.0170924
0.0187716
0.0202553
0.0251757
0.0290986
-8.1817e-06
0.00362142
0.00310259
0.00290462
0.00301887
0.00209473
0.00285574
0.00119166
0.00480725
0.00713516
0.00908716
0.0107087
0.0142136
0.0158907
0.0149469
0.0170476
0.0187647
0.0201815
0.0251205
0.0285203
-7.45244e-06
0.00362568
0.00309537
0.00289404
0.00299836
0.00209914
0.00288199
0.00120432
0.00483065
0.00705458
0.00905857
0.0107542
0.0141699
0.0158924
0.0149265
0.0169976
0.0187579
0.0200924
0.0250431
0.0279612
-4.86963e-06
0.00362668
0.0030872
0.0028832
0.00297427
0.00210446
0.00290953
0.00121816
0.00485729
0.00696151
0.00903102
0.0108114
0.0141255
0.0158885
0.0149083
0.0169428
0.0187433
0.0199972
0.0249298
0.027421
-8.21716e-07
0.0036251
0.00307865
0.00287487
0.00294976
0.00211118
0.00293626
0.00123127
0.00488443
0.00685612
0.00900316
0.0108769
0.0140797
0.015879
0.0148905
0.0168825
0.0187212
0.0198962
0.0247746
0.0268987
4.32702e-06
0.00362203
0.00307016
0.00287173
0.00292799
0.00212031
0.00296135
0.00124058
0.00490913
0.00673885
0.00897344
0.010949
0.0140321
0.0158627
0.0148719
0.0168185
0.01869
0.0197878
0.0245766
0.0263954
1.03287e-05
0.00361834
0.00306186
0.0028754
0.00291134
0.00213288
0.00298504
0.00124493
0.00493074
0.00661087
0.00894119
0.0110251
0.0139815
0.0158384
0.0148516
0.0167514
0.0186469
0.0196716
0.0243395
0.0259091
1.70181e-05
0.00361448
0.00305371
0.00288602
0.00290088
0.00214939
0.00300809
0.00124634
0.00495031
0.0064753
0.00890752
0.0110999
0.0139263
0.0158044
0.0148275
0.0166814
0.0185904
0.0195474
0.024066
0.0254324
2.42664e-05
0.00361055
0.0030457
0.00290247
0.00289643
0.00216957
0.00303141
0.00124948
0.00496979
0.00633836
0.00887552
0.0111659
0.0138644
0.0157648
0.0147969
0.0166082
0.0185199
0.019414
0.0237583
0.0249583
3.19774e-05
0.0036065
0.00303794
0.00292273
0.0028967
0.0021925
0.00305551
0.00125998
0.00499103
0.00620876
0.00884896
0.0112151
0.0137931
0.0157171
0.0147572
0.016531
0.0184347
0.0192688
0.0234213
0.0244816
4.00882e-05
0.0036021
0.00303062
0.00294468
0.00289998
0.00221715
0.00308032
0.00128236
0.00501516
0.00609539
0.00883052
0.0112416
0.0137099
0.015661
0.0147057
0.0164481
0.0183358
0.0191091
0.0230601
0.0239992
4.85564e-05
0.00359716
0.003024
0.00296663
0.00290476
0.00224264
0.0031057
0.00131873
0.00504224
0.00600484
0.00882088
0.011243
0.013613
0.0155968
0.0146407
0.0163573
0.0182247
0.018932
0.0226768
0.02351
5.73763e-05
0.00359163
0.00301835
0.00298751
0.00291008
0.00226833
0.00313169
0.0013691
0.00507166
0.00593994
0.00881904
0.0112207
0.0135017
0.0155247
0.014562
0.0162569
0.0181027
0.0187349
0.0222731
0.023015
6.65857e-05
0.00358547
0.00301377
0.00300678
0.00291555
0.00229387
0.00315823
0.00143206
0.00510276
0.00590013
0.00882286
0.0111785
0.013376
0.0154448
0.0144702
0.0161449
0.0179711
0.0185156
0.0218507
0.0225167
7.6242e-05
0.00357867
0.00301026
0.00302423
0.00292124
0.00231902
0.00318518
0.00150528
0.00513501
0.0058823
0.0088295
0.0111214
0.0132365
0.0153576
0.0143672
0.0160179
0.0178323
0.0182737
0.0214096
0.0220177
8.64126e-05
0.00357116
0.00300778
0.00303984
0.00292746
0.00234367
0.00321244
0.00158615
0.00516771
0.00588188
0.00883565
0.0110545
0.0130842
0.0152629
0.0142554
0.0158728
0.0176872
0.0180104
0.0209489
0.021521
9.718e-05
0.00356286
0.00300626
0.00305358
0.00293463
0.00236774
0.00323984
0.00167227
0.00519996
0.00589421
0.00883796
0.0109818
0.0129205
0.0151605
0.0141374
0.015707
0.0175354
0.0177278
0.0204672
0.0210293
0.000108641
0.00355363
0.00300566
0.00306541
0.00294313
0.00239125
0.00326716
0.00176161
0.00523074
0.00591555
0.00883331
0.0109065
0.0127471
0.0150497
0.014016
0.0155178
0.0173757
0.0174299
0.0199617
0.0205432
0.000120901
0.00354329
0.00300601
0.00307519
0.00295328
0.00241421
0.00329418
0.00185258
0.005259
0.00594336
0.00881902
0.0108303
0.0125655
0.0149292
0.0138935
0.0153036
0.0172056
0.0171216
0.0194302
0.0200612
0.000134085
0.00353161
0.00300737
0.00308271
0.00296532
0.00243663
0.0033206
0.00194417
0.00528369
0.00597603
0.008793
0.0107544
0.012378
0.0147965
0.013772
0.0150648
0.0170204
0.0168088
0.0188726
0.0195791
0.000148342
0.00351831
0.00300982
0.00308777
0.00297938
0.00245851
0.00334605
0.0020359
0.00530378
0.00601278
0.00875392
0.0106787
0.0121865
0.0146485
0.0136532
0.0148022
0.0168146
0.0164977
0.0182913
0.0190903
0.000163839
0.00350309
0.00301351
0.00309012
0.00299556
0.00247981
0.00337
0.00212766
0.0053182
0.00605337
0.00870113
0.0106022
0.011993
0.0144826
0.013537
0.0145178
0.016583
0.0161927
0.0176906
0.0185869
0.000180764
0.0034856
0.00301857
0.00308958
0.00301381
0.00250063
0.00339179
0.00221954
0.00532609
0.00609754
0.00863451
0.0105236
0.0118
0.0142962
0.013422
0.0142152
0.0163205
0.0158962
0.0170768
0.0180616
0.000199329
0.00346544
0.00302511
0.00308596
0.003034
0.00252114
0.00341079
0.0023118
0.00532668
0.00614481
0.00855476
0.0104409
0.0116097
0.014087
0.0133062
0.0138994
0.0160232
0.0156074
0.0164577
0.0175084
0.000219763
0.00344222
0.00303323
0.00307912
0.00305592
0.00254162
0.00342624
0.00240479
0.00531925
0.00619439
0.00846354
0.0103513
0.0114238
0.0138541
0.0131866
0.0135752
0.015689
0.0153236
0.0158417
0.0169238
0.00024231
0.00341551
0.003043
0.00306907
0.00307923
0.00256249
0.00343729
0.00249869
0.00530343
0.00624495
0.00836289
0.010252
0.0112429
0.0135982
0.0130592
0.0132475
0.0153178
0.0150403
0.0152372
0.0163067
0.000267233
0.00338484
0.00305448
0.00305587
0.00310351
0.00258441
0.00344311
0.00259334
0.00527908
0.00629473
0.00825528
0.0101402
0.0110675
0.0133216
0.0129194
0.0129204
0.0149107
0.0147507
0.0146526
0.0156586
0.000294801
0.00334978
0.00306766
0.0030397
0.00312821
0.00260824
0.00344305
0.00268843
0.0052464
0.00634146
0.00814376
0.010014
0.010897
0.0130269
0.0127613
0.012597
0.0144706
0.0144475
0.014095
0.0149837
0.000325279
0.00330988
0.00308242
0.00302101
0.0031524
0.00263485
0.00343682
0.00278306
0.00520633
0.00638261
0.0080308
0.00987163
0.0107293
0.0127176
0.0125806
0.0122786
0.014003
0.0141243
0.0135689
0.0142888
0.000358943
0.0032647
0.00309858
0.00300047
0.00317488
0.00266518
0.00342453
0.00287573
0.00516019
0.00641541
0.00791803
0.00971231
0.0105617
0.012398
0.0123739
0.0119652
0.0135154
0.0137752
0.0130758
0.0135835
0.000396057
0.00321386
0.00311587
0.00297887
0.0031942
0.00270006
0.00340684
0.00296457
0.0051093
0.00643711
0.00780648
0.00953639
0.0103914
0.0120721
0.0121391
0.0116548
0.0130148
0.0133963
0.0126141
0.0128794
0.000436889
0.00315702
0.00313377
0.00295722
0.00320901
0.00273982
0.00338465
0.00304755
0.0050551
0.00644592
0.00769638
0.00934488
0.0102146
0.0117422
0.0118764
0.0113455
0.0125076
0.0129855
0.0121796
0.0121897
0.0004817
0.00309389
0.00315153
0.00293656
0.00321818
0.00278446
0.00335912
0.00312237
0.00499888
0.00644061
0.00758718
0.00913935
0.010028
0.0114106
0.0115864
0.0110331
0.0120011
0.0125441
0.0117647
0.0115284
0.000530673
0.00302444
0.00316829
0.00291782
0.0032206
0.0028335
0.0033319
0.00318705
0.00494127
0.00642027
0.00747779
0.0089214
0.00982901
0.0110796
0.0112708
0.0107109
0.0114988
0.0120779
0.0113614
0.0109065
0.000583941
0.00294872
0.00318274
0.00290203
0.0032158
0.00288551
0.00330436
0.00324037
0.00488159
0.00638469
0.00736682
0.00869243
0.00961494
0.0107494
0.0109343
0.0103752
0.0110008
0.0115915
0.0109616
0.0103329
0.000641596
0.00286252
0.003193
0.00288942
0.00320435
0.0029393
0.00327797
0.00328096
0.00482117
0.00633437
0.00725251
0.00845451
0.00938448
0.0104175
0.0105807
0.010026
0.0105102
0.0110917
0.0105543
0.00980599
0.000703653
0.0027791
0.00319726
0.00287983
0.00318685
0.00299315
0.00325469
0.00330836
0.00475787
0.00627022
0.00713351
0.00820814
0.00913657
0.0100839
0.0102112
0.00965914
0.0100271
0.0105913
0.0101389
0.00931397
0.000770144
0.00269365
0.00319311
0.00287285
0.00316485
0.00304522
0.00323532
0.00332289
0.00468986
0.00619266
0.00701005
0.00795402
0.00886785
0.00974809
0.00982994
0.00927155
0.00954563
0.0100976
0.00972664
0.00885803
0.000840922
0.00260745
0.00317867
0.00286758
0.00313972
0.00309443
0.00322093
0.00332473
0.00461605
0.00610117
0.00688022
0.00769588
0.00857823
0.00940485
0.00943962
0.00886415
0.00905934
0.00960759
0.00932656
0.00844286
0.00091568
0.00252158
0.00315251
0.00286363
0.00311245
0.0031387
0.00321222
0.003315
0.00453467
0.00599678
0.00674219
0.00743475
0.0082705
0.0090503
0.00903809
0.00843912
0.008558
0.00911561
0.0089408
0.00808059
0.000993967
0.00243753
0.00311335
0.00286007
0.00308414
0.00317698
0.00320896
0.00329537
0.00444264
0.00587982
0.00659841
0.00717093
0.00794658
0.00868442
0.00861584
0.00798896
0.008029
0.00860175
0.00854881
0.00777319
0.00107492
0.00235662
0.00306131
0.00285524
0.0030551
0.00320833
0.00321094
0.00326754
0.00433989
0.00574815
0.00644688
0.00690873
0.00760963
0.00830919
0.00821747
0.00756232
0.00751541
0.00807998
0.00813044
0.00740047
0.00115752
0.00228051
0.00299687
0.00284736
0.00302572
0.00323202
0.00321689
0.00323382
0.00422573
0.0056011
0.00628691
0.00664867
0.00726358
0.00792749
0.00784307
0.00715317
0.00700957
0.00752952
0.00765622
0.00698156
0.00123999
0.00221085
0.00292233
0.00283416
0.00299487
0.00324747
0.00322636
0.00319609
0.00409983
0.00543802
0.00611824
0.00639166
0.00691228
0.00753633
0.00748247
0.00677949
0.00653988
0.0069774
0.00713413
0.00647239
0.00132002
0.00214915
0.00284085
0.00281244
0.0029624
0.00325471
0.00323686
0.0031565
0.00396431
0.00525564
0.00593849
0.00614192
0.0065588
0.00712844
0.00704049
0.00633163
0.00600151
0.00635269
0.00658108
0.00609285
0.00139601
0.00209642
0.00275548
0.00278107
0.00292616
0.00325291
0.00324695
0.0031174
0.00381754
0.00505702
0.00574894
0.00589257
0.00620676
0.00671246
0.00665952
0.00597025
0.00553035
0.00574602
0.0059933
0.0055791
0.00146673
0.00205236
0.00266959
0.00273937
0.00288382
0.00324122
0.00325595
0.0030788
0.00366475
0.00484149
0.00554278
0.00564479
0.00585517
0.00628241
0.00623039
0.00556496
0.00504556
0.00512336
0.00537063
0.00509616
0.00153123
0.0020167
0.00258526
0.00268709
0.00283421
0.00321948
0.00326052
0.00304198
0.0035079
0.00460616
0.00532054
0.00539907
0.00549743
0.00584029
0.00577631
0.00514898
0.00458269
0.00454097
0.004733
0.00458023
0.00158921
0.00198759
0.00250437
0.00262743
0.00277458
0.00318455
0.00325953
0.00300778
0.00334757
0.00435622
0.00507653
0.00514444
0.00514197
0.00539613
0.0053076
0.00472893
0.00413395
0.003985
0.00409887
0.00402801
0.00164018
0.00196332
0.00242869
0.00256167
0.0027032
0.00313488
0.00325208
0.00297473
0.00318577
0.00408941
0.00480743
0.0048849
0.00479051
0.00485336
0.00482432
0.00430047
0.00368744
0.00345516
0.00351044
0.00346444
0.00168417
0.00194251
0.00235854
0.00248275
0.00262118
0.00306845
0.00323285
0.00294179
0.00302437
0.0038113
0.00451827
0.00461419
0.00444947
0.00442019
0.0043362
0.00385927
0.00325722
0.00295443
0.00294398
0.00288497
0.00172141
0.00192303
0.00229386
0.00241211
0.00252864
0.00298157
0.003199
0.00290862
0.00286638
0.00352358
0.0042054
0.0043283
0.00412287
0.0039943
0.00384255
0.00340202
0.00283471
0.00247362
0.00239223
0.00233571
0.00175197
0.00190394
0.00223384
0.00234243
0.00242796
0.00287429
0.00314736
0.00287141
0.00271208
0.00323075
0.00387346
0.00402939
0.00380255
0.00357515
0.0033582
0.00293461
0.00240449
0.00201378
0.00186957
0.00180838
0.00177627
0.0018842
0.00217638
0.00227667
0.00232381
0.00274658
0.00307147
0.00282616
0.00256543
0.00293814
0.00352547
0.00371113
0.00348415
0.00318185
0.00289079
0.00246074
0.00195707
0.0015696
0.00137746
0.00129483
0.0017945
0.0018631
0.00212004
0.00221411
0.00221784
0.00259916
0.00296801
0.00276992
0.00242768
0.00264852
0.00316357
0.00337268
0.00316628
0.00280714
0.00243573
0.00198668
0.00150282
0.00112877
0.000909415
0.000799589
0.00180682
0.00184033
0.00206282
0.00215326
0.00211446
0.00243684
0.00283387
0.00269485
0.0022981
0.00237093
0.00279409
0.00301267
0.00283968
0.00244886
0.00200914
0.00152523
0.00104601
0.00067916
0.000453245
0.000324689
0.00181372
0.00181564
0.00200335
0.00209337
0.00201605
0.00226385
0.00266745
0.00259644
0.00217499
0.00211056
0.00241016
0.00263069
0.00249908
0.00210953
0.00161497
0.00108012
0.000587862
0.000224815
5.47884e-06
-0.000126893
0.00181493
0.00178885
0.00194059
0.00203089
0.0019233
0.00208643
0.00247145
0.00247113
0.00205273
0.00186947
0.00204288
0.00223366
0.00213796
0.00177651
0.00124894
0.000665808
0.000142803
-0.000228807
-0.000444483
-0.000568169
0.00181008
0.00175972
0.00187398
0.00196221
0.0018351
0.00191099
0.0022523
0.00231559
0.0019258
0.00164624
0.00169045
0.00180567
0.00175218
0.00143489
0.000909347
0.000287458
-0.000277619
-0.000676226
-0.000902192
-0.00100955
0.00179873
0.00172788
0.00180376
0.0018844
0.00174945
0.00174346
0.00201977
0.0021297
0.00178607
0.00143981
0.00135794
0.00139877
0.00133277
0.00106674
0.000579042
-5.96355e-05
-0.00066652
-0.00110327
-0.00135559
-0.00145576
0.00178046
0.00169259
0.00173067
0.00179708
0.00166401
0.00158744
0.00178278
0.00191615
0.00166235
0.00124886
0.00104913
0.00100667
0.000916474
0.000675986
0.000236835
-0.00038118
-0.00102285
-0.00149833
-0.00178964
-0.00190638
0.00175479
0.00165314
0.00165552
0.00170137
0.00156938
0.0014418
0.00154894
0.00167419
0.00147567
0.00106062
0.000764011
0.000635472
0.000509218
0.000271121
-0.000126846
-0.000696308
-0.00134854
-0.00186402
-0.00219177
-0.00234748
0.0017215
0.00160889
0.00157894
0.00159856
0.00146629
0.00130406
0.00132611
0.00141531
0.001266
0.000868713
0.000500192
0.000288554
0.000117171
-0.000131317
-0.00050565
-0.00102056
-0.00165238
-0.00220366
-0.00256067
-0.00275807
0.00168059
0.00155916
0.00150114
0.00148974
0.00135446
0.00117034
0.00111687
0.00115239
0.00103384
0.000670147
0.000252482
-3.44474e-05
-0.000253922
-0.000521576
-0.000891401
-0.00136141
-0.00194589
-0.00251747
-0.00290425
-0.00312989
0.00163228
0.00150344
0.00142203
0.00137707
0.00123421
0.00103682
0.000921526
0.000894014
0.00078411
0.000458771
1.93997e-05
-0.000333155
-0.000603468
-0.000890286
-0.00127009
-0.00171548
-0.00224249
-0.00280911
-0.00322804
-0.0034717
0.00157698
0.00144127
0.00134127
0.00126445
0.00110704
0.000899919
0.000738528
0.000649278
0.000526686
0.00022835
-0.000206614
-0.000605947
-0.000931858
-0.00123849
-0.00162453
-0.00206943
-0.00254907
-0.0030843
-0.00352964
-0.00379254
0.00151513
0.00137292
0.0012582
0.00115213
0.000975922
0.000773898
0.000564597
0.000419914
0.000271544
-1.49434e-05
-0.000436871
-0.000854418
-0.00123222
-0.00157089
-0.00195441
-0.0024062
-0.00286282
-0.00335294
-0.00380573
-0.00409199
0.0014471
0.00129832
0.00117239
0.00104057
0.000840972
0.000626936
0.000396767
0.000206169
2.33596e-05
-0.000257801
-0.000667828
-0.00108777
-0.0014986
-0.00187922
-0.00226614
-0.00271579
-0.00317136
-0.00362488
-0.0040631
-0.00436822
0.00137372
0.00121907
0.00108334
0.000930217
0.000705642
0.000478037
0.000233162
2.48143e-06
-0.000212523
-0.000500083
-0.000896736
-0.00131143
-0.00173549
-0.00215187
-0.00255602
-0.00299531
-0.00345705
-0.00389373
-0.00430919
-0.00462272
0.00129491
0.0011347
0.000991417
0.000821327
0.000573096
0.000330214
7.32281e-05
-0.000178685
-0.000428459
-0.000715879
-0.00108646
-0.00151186
-0.0019441
-0.00238475
-0.00281242
-0.00324499
-0.00370478
-0.00414153
-0.00453886
-0.00485232
0.00121207
0.00104693
0.000896853
0.000713171
0.000444602
0.000186246
-7.9165e-05
-0.000349912
-0.000637558
-0.00104615
-0.00140953
-0.00176293
-0.00217128
-0.00260853
-0.00304813
-0.00348026
-0.00392966
-0.00436937
-0.00475858
-0.00506766
0.00112537
0.000956718
0.000800331
0.000607229
0.000322463
4.65716e-05
-0.000223682
-0.000494107
-0.00076105
-0.000999199
-0.0013663
-0.00181161
-0.00224925
-0.00270859
-0.00316485
-0.00361234
-0.00405986
-0.00450151
-0.00489664
-0.00521135
0.00103466
0.000861664
0.000703427
0.000505404
0.000210182
-8.01512e-05
-0.000369595
-0.000661438
-0.000999816
-0.00137548
-0.00178731
-0.00215961
-0.00252741
-0.00293033
-0.00335172
-0.00377981
-0.00420981
-0.00462977
-0.00501152
-0.00530731
0.000942619
0.000766567
0.000604494
0.000405118
0.000106653
-0.0001915
-0.000463584
-0.00073511
-0.00103154
-0.00137924
-0.00174078
-0.00205246
-0.00244779
-0.00287547
-0.00332279
-0.0037827
-0.00425828
-0.00473562
-0.00518465
-0.00555821
0.000848249
0.00066909
0.000504217
0.000311108
2.08829e-05
-0.00029539
-0.000631967
-0.000975268
-0.00137028
-0.00178364
-0.00215192
-0.00243935
-0.0026646
-0.0029465
-0.00327233
-0.00360076
-0.00389679
-0.00414481
-0.00434528
-0.00453721
0.000744493
0.000572203
0.000418759
0.0002442
-3.17902e-05
-0.000332839
-0.000604402
-0.000879703
-0.00120283
-0.00150381
-0.00186603
-0.00222015
-0.00255846
-0.00294466
-0.0033664
-0.00382153
-0.00430856
-0.00481513
-0.00530864
-0.00574095
0.000618557
0.000433272
0.000318416
0.000200177
-3.61304e-05
-0.00035148
-0.000686573
-0.00101314
-0.00138597
-0.00175308
-0.00211752
-0.0024906
-0.00279337
-0.00307547
-0.00337486
-0.0036589
-0.00391078
-0.00413088
-0.00435137
-0.00460063
0.000538977
0.000353702
0.000253853
0.000157062
-6.05076e-05
-0.000363502
-0.000653959
-0.000901217
-0.00122937
-0.00156707
-0.0019023
-0.00227299
-0.00260772
-0.00290038
-0.00321567
-0.00354424
-0.00386312
-0.00416673
-0.00448483
-0.0048507
0.0426375
0.0290356
0.0158991
0.00722494
0.00320509
0.00169306
0.000127182
-0.0017603
-0.00341343
-0.00456777
-0.0051735
-0.00516369
-0.00459503
-0.00414219
-0.00447042
-0.00540674
-0.00648313
-0.00756772
-0.00863483
-0.00960556
-0.0105387
-0.0115903
-0.0127084
-0.0136321
-0.0142561
-0.0147263
-0.0153153
-0.0161956
-0.0172052
-0.0181441
-0.019072
-0.019923
-0.0205727
-0.0212424
-0.0220499
-0.022828
-0.0236541
-0.0246211
-0.0255372
-0.0263126
-0.0270587
-0.0278531
-0.0287038
-0.0296134
-0.0305712
-0.0315297
-0.0324765
-0.033437
-0.0344567
-0.0355175
-0.0365587
-0.0376076
-0.0386857
-0.0398013
-0.0408578
-0.0418816
-0.0429582
-0.0440851
-0.0452151
-0.0464163
-0.0476834
-0.0489978
-0.0503192
-0.0515764
-0.052813
-0.0541119
-0.0554073
-0.0566155
-0.0579892
-0.0596097
-0.0612037
-0.0626385
-0.0640828
-0.0655298
-0.0670173
-0.0685755
-0.0702057
-0.0718554
-0.0734955
-0.0752246
-0.0769927
-0.0787456
-0.0805711
-0.0824412
-0.0842828
-0.0860949
-0.0880178
-0.0899544
-0.0919158
-0.0939404
-0.0959886
-0.0981037
-0.100173
-0.10232
-0.104477
-0.10675
-0.108966
-0.111206
-0.113466
-0.115429
0.0405429
0.0288411
0.0159725
0.00737117
0.00331623
0.00175341
0.000161633
-0.00174114
-0.00340172
-0.00455944
-0.00516655
-0.00515712
-0.00458765
-0.00413403
-0.00446307
-0.00540076
-0.00647791
-0.00756297
-0.00863059
-0.0096016
-0.0105347
-0.0115866
-0.0127055
-0.0136299
-0.014254
-0.0147242
-0.015313
-0.0161935
-0.0172035
-0.0181426
-0.0190707
-0.019922
-0.0205717
-0.0212412
-0.0220489
-0.0228271
-0.0236531
-0.0246203
-0.0255366
-0.026312
-0.027058
-0.0278524
-0.0287031
-0.0296128
-0.0305706
-0.0315292
-0.032476
-0.0334365
-0.0344561
-0.035517
-0.0365583
-0.0376071
-0.0386852
-0.0398009
-0.0408574
-0.0418813
-0.0429578
-0.0440847
-0.0452148
-0.0464159
-0.0476831
-0.0489975
-0.0503189
-0.0515761
-0.0528127
-0.0541116
-0.0554071
-0.0566153
-0.0579888
-0.0596094
-0.0612035
-0.0626383
-0.0640826
-0.0655297
-0.0670172
-0.0685753
-0.0702055
-0.0718552
-0.0734953
-0.0752245
-0.0769926
-0.0787454
-0.080571
-0.0824411
-0.0842827
-0.0860948
-0.0880176
-0.0899543
-0.0919157
-0.0939403
-0.0959885
-0.0981036
-0.100172
-0.10232
-0.104477
-0.10675
-0.108966
-0.111206
-0.113466
-0.115429
0.0392367
0.0287576
0.0161453
0.00763863
0.0034931
0.00181722
0.000191352
-0.00171571
-0.00338256
-0.00454826
-0.00516075
-0.0051521
-0.0045806
-0.00412593
-0.00445601
-0.00539526
-0.00647334
-0.00755909
-0.00862728
-0.00959843
-0.0105314
-0.0115835
-0.0127033
-0.0136282
-0.0142523
-0.0147221
-0.0153106
-0.0161915
-0.0172021
-0.0181415
-0.0190697
-0.0199212
-0.0205707
-0.0212402
-0.0220482
-0.0228263
-0.0236522
-0.0246197
-0.0255362
-0.0263115
-0.0270575
-0.0278518
-0.0287026
-0.0296123
-0.0305702
-0.0315288
-0.0324756
-0.0334361
-0.0344557
-0.0355166
-0.0365579
-0.0376067
-0.0386848
-0.0398005
-0.0408572
-0.041881
-0.0429575
-0.0440844
-0.0452145
-0.0464156
-0.0476828
-0.0489972
-0.0503187
-0.0515759
-0.0528125
-0.0541114
-0.055407
-0.0566151
-0.0579885
-0.0596092
-0.0612034
-0.0626382
-0.0640825
-0.0655295
-0.067017
-0.0685751
-0.0702054
-0.0718551
-0.0734952
-0.0752243
-0.0769925
-0.0787453
-0.0805708
-0.082441
-0.0842826
-0.0860947
-0.0880175
-0.0899542
-0.0919156
-0.0939402
-0.0959884
-0.0981036
-0.100172
-0.10232
-0.104476
-0.10675
-0.108966
-0.111206
-0.113466
-0.11543
0.0378757
0.0285735
0.0163103
0.00793618
0.00371017
0.00189954
0.000238823
-0.0016715
-0.00334976
-0.00452946
-0.00515021
-0.00514287
-0.00457081
-0.00411775
-0.00445012
-0.00539014
-0.00646818
-0.00755428
-0.00862308
-0.00959464
-0.0105278
-0.0115803
-0.0127007
-0.0136261
-0.0142501
-0.0147194
-0.0153075
-0.0161888
-0.0172004
-0.0181401
-0.0190686
-0.0199203
-0.0205695
-0.0212389
-0.0220472
-0.0228252
-0.0236512
-0.024619
-0.0255359
-0.026311
-0.0270569
-0.0278512
-0.028702
-0.0296117
-0.0305697
-0.0315284
-0.0324751
-0.0334356
-0.0344552
-0.0355162
-0.0365575
-0.0376063
-0.0386844
-0.0398002
-0.0408569
-0.0418806
-0.0429571
-0.0440841
-0.0452141
-0.0464153
-0.0476825
-0.0489969
-0.0503185
-0.0515758
-0.0528122
-0.0541111
-0.0554069
-0.0566148
-0.0579881
-0.059609
-0.0612034
-0.062638
-0.0640823
-0.0655294
-0.0670168
-0.068575
-0.0702052
-0.071855
-0.0734951
-0.0752242
-0.0769923
-0.0787452
-0.0805707
-0.0824409
-0.0842825
-0.0860946
-0.0880174
-0.0899541
-0.0919155
-0.0939401
-0.0959883
-0.0981035
-0.100172
-0.10232
-0.104476
-0.10675
-0.108966
-0.111206
-0.113466
-0.11543
0.0364817
0.0283076
0.0164703
0.00824337
0.00394141
0.00199056
0.000293659
-0.00161584
-0.00330604
-0.00450407
-0.00513506
-0.00512739
-0.00455517
-0.00410768
-0.00444522
-0.00538624
-0.00646349
-0.00754887
-0.00861729
-0.00958918
-0.0105231
-0.0115763
-0.0126977
-0.0136235
-0.0142475
-0.0147161
-0.0153033
-0.0161848
-0.0171976
-0.0181383
-0.0190671
-0.0199187
-0.0205676
-0.0212372
-0.0220459
-0.0228238
-0.0236498
-0.0246183
-0.0255353
-0.0263103
-0.0270561
-0.0278505
-0.0287013
-0.0296111
-0.0305692
-0.0315279
-0.0324746
-0.0334351
-0.0344548
-0.0355157
-0.0365571
-0.0376059
-0.038684
-0.0397999
-0.0408565
-0.0418803
-0.0429568
-0.0440837
-0.0452137
-0.0464149
-0.0476822
-0.0489966
-0.0503184
-0.0515756
-0.0528119
-0.0541109
-0.0554068
-0.0566145
-0.0579876
-0.0596088
-0.0612034
-0.0626379
-0.0640821
-0.0655292
-0.0670166
-0.0685748
-0.0702051
-0.0718549
-0.0734949
-0.075224
-0.0769922
-0.0787451
-0.0805706
-0.0824408
-0.0842824
-0.0860945
-0.0880173
-0.089954
-0.0919154
-0.09394
-0.0959882
-0.0981034
-0.100172
-0.10232
-0.104476
-0.10675
-0.108966
-0.111206
-0.113466
-0.115431
0.0350854
0.0279818
0.0166282
0.0085508
0.00417862
0.00208548
0.000348065
-0.00155815
-0.00325954
-0.00447854
-0.00511972
-0.00510735
-0.00453241
-0.00409318
-0.00443983
-0.00538386
-0.00646046
-0.00754385
-0.00861021
-0.00958171
-0.0105167
-0.011571
-0.0126933
-0.0136201
-0.0142448
-0.014713
-0.0152986
-0.0161793
-0.0171934
-0.0181356
-0.0190646
-0.0199159
-0.020565
-0.021235
-0.0220439
-0.0228216
-0.023648
-0.0246172
-0.0255344
-0.0263093
-0.0270552
-0.0278496
-0.0287005
-0.0296105
-0.0305685
-0.0315272
-0.0324741
-0.0334346
-0.0344542
-0.0355152
-0.0365566
-0.0376055
-0.0386836
-0.0397995
-0.0408562
-0.0418799
-0.0429564
-0.0440833
-0.0452133
-0.0464146
-0.0476818
-0.0489962
-0.0503182
-0.0515754
-0.0528115
-0.0541105
-0.0554067
-0.0566141
-0.057987
-0.0596085
-0.0612034
-0.0626378
-0.0640819
-0.065529
-0.0670164
-0.0685746
-0.0702049
-0.0718547
-0.0734947
-0.0752238
-0.0769921
-0.0787449
-0.0805704
-0.0824408
-0.0842823
-0.0860943
-0.0880172
-0.0899539
-0.0919153
-0.0939399
-0.0959881
-0.0981033
-0.100172
-0.10232
-0.104476
-0.10675
-0.108966
-0.111206
-0.113467
-0.115431
0.0337067
0.0276002
0.0167739
0.00885064
0.00441893
0.00218409
0.000400743
-0.00150134
-0.00321337
-0.00445615
-0.00510842
-0.00508724
-0.00450477
-0.00407327
-0.00443191
-0.00538198
-0.00645937
-0.00754021
-0.0086028
-0.00957276
-0.0105084
-0.0115638
-0.0126872
-0.0136152
-0.0142418
-0.0147106
-0.0152942
-0.0161733
-0.0171882
-0.0181319
-0.0190607
-0.0199114
-0.0205613
-0.0212324
-0.0220412
-0.0228187
-0.0236456
-0.0246156
-0.0255329
-0.0263079
-0.027054
-0.0278485
-0.0286996
-0.0296098
-0.0305677
-0.0315264
-0.0324734
-0.0334341
-0.0344535
-0.0355144
-0.036556
-0.0376051
-0.0386832
-0.039799
-0.0408557
-0.0418795
-0.0429559
-0.0440827
-0.0452127
-0.0464142
-0.0476815
-0.0489958
-0.050318
-0.0515753
-0.0528111
-0.0541102
-0.0554066
-0.0566137
-0.0579863
-0.0596083
-0.0612034
-0.0626376
-0.0640817
-0.0655287
-0.0670161
-0.0685743
-0.0702047
-0.0718546
-0.0734945
-0.0752237
-0.076992
-0.0787447
-0.0805703
-0.0824407
-0.0842822
-0.0860942
-0.088017
-0.0899538
-0.0919151
-0.0939398
-0.095988
-0.0981032
-0.100172
-0.10232
-0.104476
-0.10675
-0.108966
-0.111206
-0.113467
-0.115433
0.0323599
0.0271605
0.016895
0.00913746
0.00466267
0.00228923
0.000452892
-0.00144652
-0.00316904
-0.00443841
-0.00510382
-0.0050713
-0.00447605
-0.00404934
-0.00442087
-0.00537955
-0.00645942
-0.0075378
-0.0085957
-0.00956311
-0.0104988
-0.011555
-0.0126793
-0.0136089
-0.0142382
-0.0147088
-0.0152909
-0.0161676
-0.017183
-0.0181281
-0.0190555
-0.0199046
-0.020556
-0.0212292
-0.0220379
-0.022815
-0.0236428
-0.0246134
-0.0255306
-0.0263058
-0.0270523
-0.0278472
-0.0286986
-0.0296089
-0.0305668
-0.0315254
-0.0324727
-0.0334335
-0.0344526
-0.0355134
-0.0365552
-0.0376047
-0.0386828
-0.0397984
-0.0408552
-0.0418791
-0.0429554
-0.044082
-0.045212
-0.0464137
-0.047681
-0.0489953
-0.0503178
-0.0515752
-0.0528107
-0.0541098
-0.0554065
-0.0566132
-0.0579855
-0.059608
-0.0612033
-0.0626374
-0.0640814
-0.0655284
-0.0670158
-0.068574
-0.0702044
-0.0718543
-0.0734943
-0.0752234
-0.0769918
-0.0787445
-0.0805701
-0.0824406
-0.0842821
-0.086094
-0.0880169
-0.0899537
-0.091915
-0.0939397
-0.0959879
-0.0981031
-0.100172
-0.10232
-0.104476
-0.106749
-0.108966
-0.111206
-0.113467
-0.115434
0.0310517
0.0266598
0.0169839
0.00941075
0.00491298
0.00240342
0.00050383
-0.00139624
-0.00312851
-0.00442649
-0.00510737
-0.00506214
-0.0044497
-0.00402404
-0.00440779
-0.00537646
-0.00645987
-0.0075359
-0.00858877
-0.00955304
-0.0104884
-0.0115451
-0.0126704
-0.0136014
-0.0142338
-0.0147068
-0.0152881
-0.0161629
-0.0171791
-0.0181252
-0.0190498
-0.0198957
-0.0205489
-0.0212249
-0.0220339
-0.022811
-0.02364
-0.0246108
-0.0255275
-0.0263028
-0.0270501
-0.0278454
-0.0286973
-0.029608
-0.0305656
-0.0315242
-0.032472
-0.0334329
-0.0344515
-0.0355118
-0.036554
-0.037604
-0.0386821
-0.0397977
-0.0408547
-0.0418789
-0.042955
-0.0440812
-0.0452112
-0.0464131
-0.0476804
-0.0489946
-0.0503175
-0.0515752
-0.0528103
-0.0541094
-0.0554064
-0.0566126
-0.0579846
-0.0596076
-0.0612033
-0.0626372
-0.0640811
-0.0655281
-0.0670154
-0.0685737
-0.0702041
-0.0718541
-0.073494
-0.0752231
-0.0769916
-0.0787443
-0.0805699
-0.0824405
-0.084282
-0.0860938
-0.0880167
-0.0899536
-0.0919148
-0.0939396
-0.0959878
-0.098103
-0.100172
-0.102319
-0.104476
-0.106749
-0.108966
-0.111206
-0.113468
-0.115436
0.0297884
0.0261054
0.017041
0.0096696
0.00516526
0.00252414
0.00055128
-0.00135238
-0.00309279
-0.00442109
-0.00512005
-0.00506163
-0.0044288
-0.00400053
-0.00439453
-0.00537322
-0.00646046
-0.00753387
-0.00858163
-0.00954262
-0.0104773
-0.0115347
-0.012661
-0.0135933
-0.0142286
-0.0147041
-0.015285
-0.0161587
-0.0171764
-0.018124
-0.0190447
-0.0198858
-0.0205401
-0.0212195
-0.022029
-0.0228067
-0.0236374
-0.0246084
-0.0255239
-0.0262991
-0.0270471
-0.0278431
-0.0286958
-0.0296069
-0.0305642
-0.0315228
-0.0324712
-0.0334325
-0.0344504
-0.0355099
-0.0365524
-0.0376029
-0.0386811
-0.0397967
-0.0408541
-0.0418788
-0.0429548
-0.0440804
-0.0452104
-0.0464125
-0.0476797
-0.0489936
-0.050317
-0.0515751
-0.0528099
-0.0541091
-0.0554064
-0.0566121
-0.0579836
-0.0596071
-0.0612032
-0.062637
-0.0640808
-0.0655277
-0.0670151
-0.0685733
-0.0702037
-0.0718537
-0.0734936
-0.0752228
-0.0769913
-0.078744
-0.0805696
-0.0824403
-0.0842818
-0.0860936
-0.0880165
-0.0899534
-0.0919147
-0.0939395
-0.0959876
-0.0981029
-0.100172
-0.102319
-0.104476
-0.106749
-0.108966
-0.111206
-0.113468
-0.115437
0.0285766
0.0255069
0.0170651
0.00990703
0.00541205
0.00264977
0.000596531
-0.00131476
-0.00306273
-0.00442303
-0.00514272
-0.00507133
-0.00441597
-0.00398167
-0.00438309
-0.00537059
-0.00646121
-0.0075314
-0.00857409
-0.00953213
-0.0104662
-0.0115242
-0.0126519
-0.0135855
-0.014223
-0.0147007
-0.0152812
-0.0161543
-0.0171741
-0.0181237
-0.0190405
-0.0198757
-0.0205304
-0.0212131
-0.0220232
-0.0228019
-0.0236353
-0.0246066
-0.0255204
-0.026295
-0.0270436
-0.0278401
-0.0286938
-0.0296055
-0.0305626
-0.0315211
-0.0324705
-0.0334323
-0.0344494
-0.0355079
-0.0365504
-0.0376014
-0.0386796
-0.0397951
-0.0408532
-0.0418788
-0.0429548
-0.0440798
-0.0452097
-0.0464121
-0.0476788
-0.0489922
-0.050316
-0.0515746